 Entering Gaussian System, Link 0=g16
 Input=bigQM7w_TDwB97XD_def2SVPD_at_def2TZVP_000029.com
 Output=bigQM7w_TDwB97XD_def2SVPD_at_def2TZVP_000029.log
 Initial command:
 /home/rr/g16/l1.exe "/scratch/rr/PBS_7962953.helios/Gau-2947.inp" -scrdir="/scratch/rr/PBS_7962953.helios/"
 Entering Link 1 = /home/rr/g16/l1.exe PID=      2950.
  
 Copyright (c) 1988-2019, Gaussian, Inc.  All Rights Reserved.
  
 This is part of the Gaussian(R) 16 program.  It is based on
 the Gaussian(R) 09 system (copyright 2009, Gaussian, Inc.),
 the Gaussian(R) 03 system (copyright 2003, Gaussian, Inc.),
 the Gaussian(R) 98 system (copyright 1998, Gaussian, Inc.),
 the Gaussian(R) 94 system (copyright 1995, Gaussian, Inc.),
 the Gaussian 92(TM) system (copyright 1992, Gaussian, Inc.),
 the Gaussian 90(TM) system (copyright 1990, Gaussian, Inc.),
 the Gaussian 88(TM) system (copyright 1988, Gaussian, Inc.),
 the Gaussian 86(TM) system (copyright 1986, Carnegie Mellon
 University), and the Gaussian 82(TM) system (copyright 1983,
 Carnegie Mellon University). Gaussian is a federally registered
 trademark of Gaussian, Inc.
  
 This software contains proprietary and confidential information,
 including trade secrets, belonging to Gaussian, Inc.
  
 This software is provided under written license and may be
 used, copied, transmitted, or stored only in accord with that
 written license.
  
 The following legend is applicable only to US Government
 contracts under FAR:
  
                    RESTRICTED RIGHTS LEGEND
  
 Use, reproduction and disclosure by the US Government is
 subject to restrictions as set forth in subparagraphs (a)
 and (c) of the Commercial Computer Software - Restricted
 Rights clause in FAR 52.227-19.
  
 Gaussian, Inc.
 340 Quinnipiac St., Bldg. 40, Wallingford CT 06492
  
  
 ---------------------------------------------------------------
 Warning -- This program may not be used in any manner that
 competes with the business of Gaussian, Inc. or will provide
 assistance to any competitor of Gaussian, Inc.  The licensee
 of this program is prohibited from giving any competitor of
 Gaussian, Inc. access to this program.  By using this program,
 the user acknowledges that Gaussian, Inc. is engaged in the
 business of creating and licensing software in the field of
 computational chemistry and represents and warrants to the
 licensee that it is not a competitor of Gaussian, Inc. and that
 it will not use this program in any manner prohibited above.
 ---------------------------------------------------------------
  

 Cite this work as:
 Gaussian 16, Revision C.01,
 M. J. Frisch, G. W. Trucks, H. B. Schlegel, G. E. Scuseria, 
 M. A. Robb, J. R. Cheeseman, G. Scalmani, V. Barone, 
 G. A. Petersson, H. Nakatsuji, X. Li, M. Caricato, A. V. Marenich, 
 J. Bloino, B. G. Janesko, R. Gomperts, B. Mennucci, H. P. Hratchian, 
 J. V. Ortiz, A. F. Izmaylov, J. L. Sonnenberg, D. Williams-Young, 
 F. Ding, F. Lipparini, F. Egidi, J. Goings, B. Peng, A. Petrone, 
 T. Henderson, D. Ranasinghe, V. G. Zakrzewski, J. Gao, N. Rega, 
 G. Zheng, W. Liang, M. Hada, M. Ehara, K. Toyota, R. Fukuda, 
 J. Hasegawa, M. Ishida, T. Nakajima, Y. Honda, O. Kitao, H. Nakai, 
 T. Vreven, K. Throssell, J. A. Montgomery, Jr., J. E. Peralta, 
 F. Ogliaro, M. J. Bearpark, J. J. Heyd, E. N. Brothers, K. N. Kudin, 
 V. N. Staroverov, T. A. Keith, R. Kobayashi, J. Normand, 
 K. Raghavachari, A. P. Rendell, J. C. Burant, S. S. Iyengar, 
 J. Tomasi, M. Cossi, J. M. Millam, M. Klene, C. Adamo, R. Cammi, 
 J. W. Ochterski, R. L. Martin, K. Morokuma, O. Farkas, 
 J. B. Foresman, and D. J. Fox, Gaussian, Inc., Wallingford CT, 2019.
 
 ******************************************
 Gaussian 16:  EM64L-G16RevC.01  3-Jul-2019
                21-Mar-2022 
 ******************************************
 %mem=64gb
 %nproc=8
 Will use up to    8 processors via shared memory.
 ----------------------------------------------------------------------
 #P TD(Nstates=10000) wB97XD/Gen SCF(maxcycles=100) Int(Grid=ultrafine)
 ----------------------------------------------------------------------
 1/38=1,172=1/1;
 2/12=2,17=6,18=5,40=1/2;
 3/5=7,11=9,25=1,30=1,74=-58,75=-5/1,2,3,8;
 4//1;
 5/5=2,7=100,38=5/2;
 8/6=1,10=1,108=10000/1;
 9/41=10000,42=1,70=2/14;
 6/7=2,8=2,9=2,10=2/1;
 99/5=1,9=1/99;
 Leave Link    1 at Mon Mar 21 15:51:16 2022, MaxMem=  8589934592 cpu:               0.4 elap:               0.1
 (Enter /home/rr/g16/l101.exe)
 ---------------------
 xGDB7_00001_tier4.com
 ---------------------
 Symbolic Z-matrix:
 Charge =  0 Multiplicity = 1
 8                    -1.02862  -0.39518   0. 
 7                     0.        0.52623   0. 
 6                     1.13275  -0.03091   0. 
 1                    -1.81657   0.15179   0. 
 1                     1.99426   0.62344   0. 
 1                     1.2548   -1.11197   0. 
 
 ITRead=  0  0  0  0  0  0
 MicOpt= -1 -1 -1 -1 -1 -1
 NAtoms=      6 NQM=        6 NQMF=       0 NMMI=      0 NMMIF=      0
                NMic=       0 NMicF=      0.
                    Isotopes and Nuclear Properties:
 (Nuclear quadrupole moments (NQMom) in fm**2, nuclear magnetic moments (NMagM)
  in nuclear magnetons)

  Atom         1           2           3           4           5           6
 IAtWgt=          16          14          12           1           1           1
 AtmWgt=  15.9949146  14.0030740  12.0000000   1.0078250   1.0078250   1.0078250
 NucSpn=           0           2           0           1           1           1
 AtZEff=  -0.0000000  -0.0000000  -0.0000000  -0.0000000  -0.0000000  -0.0000000
 NQMom=    0.0000000   2.0440000   0.0000000   0.0000000   0.0000000   0.0000000
 NMagM=    0.0000000   0.4037610   0.0000000   2.7928460   2.7928460   2.7928460
 AtZNuc=   8.0000000   7.0000000   6.0000000   1.0000000   1.0000000   1.0000000
 Leave Link  101 at Mon Mar 21 15:51:16 2022, MaxMem=  8589934592 cpu:               0.8 elap:               0.1
 (Enter /home/rr/g16/l202.exe)
                          Input orientation:                          
 ---------------------------------------------------------------------
 Center     Atomic      Atomic             Coordinates (Angstroms)
 Number     Number       Type             X           Y           Z
 ---------------------------------------------------------------------
      1          8           0       -1.028621   -0.395177    0.000000
      2          7           0        0.000000    0.526228    0.000000
      3          6           0        1.132746   -0.030907    0.000000
      4          1           0       -1.816572    0.151791    0.000000
      5          1           0        1.994262    0.623439    0.000000
      6          1           0        1.254802   -1.111965    0.000000
 ---------------------------------------------------------------------
                    Distance matrix (angstroms):
                    1          2          3          4          5
     1  O    0.000000
     2  N    1.380959   0.000000
     3  C    2.191849   1.262344   0.000000
     4  H    0.959188   1.854761   2.954971   0.000000
     5  H    3.189890   1.996630   1.081840   3.839910   0.000000
     6  H    2.393283   2.063542   1.087926   3.321207   1.886380
                    6
     6  H    0.000000
 Stoichiometry    CH3NO
 Framework group  CS[SG(CH3NO)]
 Deg. of freedom     9
 Full point group                 CS      NOp   2
 Largest Abelian subgroup         CS      NOp   2
 Largest concise Abelian subgroup C1      NOp   1
                         Standard orientation:                         
 ---------------------------------------------------------------------
 Center     Atomic      Atomic             Coordinates (Angstroms)
 Number     Number       Type             X           Y           Z
 ---------------------------------------------------------------------
      1          8           0       -1.028621   -0.395177   -0.000000
      2          7           0       -0.000000    0.526228   -0.000000
      3          6           0        1.132746   -0.030907    0.000000
      4          1           0       -1.816572    0.151791   -0.000000
      5          1           0        1.994262    0.623439    0.000000
      6          1           0        1.254802   -1.111965    0.000000
 ---------------------------------------------------------------------
 Rotational constants (GHZ):          71.1254820          11.9936263          10.2630126
 Leave Link  202 at Mon Mar 21 15:51:17 2022, MaxMem=  8589934592 cpu:               0.1 elap:               0.0
 (Enter /home/rr/g16/l301.exe)
 General basis read from cards:  (5D, 7F)
 Centers:       4      5      6
 S 3 1.00
     Exponent=  1.3010701000D+01 Coefficients=  1.9682158000D-02
     Exponent=  1.9622572000D+00 Coefficients=  1.3796524000D-01
     Exponent=  4.4453796000D-01 Coefficients=  4.7831935000D-01
 S 1 1.00
     Exponent=  1.2194962000D-01 Coefficients=  1.0000000000D+00
 P 1 1.00
     Exponent=  8.0000000000D-01 Coefficients=  1.0000000000D+00
 P 1 1.00
     Exponent=  1.1704099050D-01 Coefficients=  1.0000000000D+00
 ****
 Centers:       3
 S 5 1.00
     Exponent=  1.2384016938D+03 Coefficients=  5.4568832082D-03
     Exponent=  1.8629004992D+02 Coefficients=  4.0638409211D-02
     Exponent=  4.2251176346D+01 Coefficients=  1.8025593888D-01
     Exponent=  1.1676557932D+01 Coefficients=  4.6315121755D-01
     Exponent=  3.5930506482D+00 Coefficients=  4.4087173314D-01
 S 1 1.00
     Exponent=  4.0245147363D-01 Coefficients=  1.0000000000D+00
 S 1 1.00
     Exponent=  1.3090182668D-01 Coefficients=  1.0000000000D+00
 S 1 1.00
     Exponent=  6.7053540256D-02 Coefficients=  1.0000000000D+00
 P 3 1.00
     Exponent=  9.4680970621D+00 Coefficients=  3.8387871728D-02
     Exponent=  2.0103545142D+00 Coefficients=  2.1117025112D-01
     Exponent=  5.4771004707D-01 Coefficients=  5.1328172114D-01
 P 1 1.00
     Exponent=  1.5268613795D-01 Coefficients=  1.0000000000D+00
 D 1 1.00
     Exponent=  8.0000000000D-01 Coefficients=  1.0000000000D+00
 D 1 1.00
     Exponent=  1.1713185140D-01 Coefficients=  1.0000000000D+00
 ****
 Centers:       2
 S 5 1.00
     Exponent=  1.7128415853D+03 Coefficients= -5.3934125305D-03
     Exponent=  2.5764812677D+02 Coefficients= -4.0221581118D-02
     Exponent=  5.8458245853D+01 Coefficients= -1.7931144990D-01
     Exponent=  1.6198367905D+01 Coefficients= -4.6376317823D-01
     Exponent=  5.0052600809D+00 Coefficients= -4.4171422662D-01
 S 1 1.00
     Exponent=  5.8731856571D-01 Coefficients=  1.0000000000D+00
 S 1 1.00
     Exponent=  1.8764592253D-01 Coefficients=  1.0000000000D+00
 S 1 1.00
     Exponent=  9.6171241529D-02 Coefficients=  1.0000000000D+00
 P 3 1.00
     Exponent=  1.3571470233D+01 Coefficients= -4.0072398852D-02
     Exponent=  2.9257372874D+00 Coefficients= -2.1807045028D-01
     Exponent=  7.9927750754D-01 Coefficients= -5.1294466049D-01
 P 1 1.00
     Exponent=  2.1954348034D-01 Coefficients=  1.0000000000D+00
 D 1 1.00
     Exponent=  1.0000000000D+00 Coefficients=  1.0000000000D+00
 D 1 1.00
     Exponent=  1.6697708112D-01 Coefficients=  1.0000000000D+00
 ****
 Centers:       1
 S 5 1.00
     Exponent=  2.2661767785D+03 Coefficients= -5.3431809926D-03
     Exponent=  3.4087010191D+02 Coefficients= -3.9890039230D-02
     Exponent=  7.7363135167D+01 Coefficients= -1.7853911985D-01
     Exponent=  2.1479644940D+01 Coefficients= -4.6427684959D-01
     Exponent=  6.6589433124D+00 Coefficients= -4.4309745172D-01
 S 1 1.00
     Exponent=  8.0975975668D-01 Coefficients=  1.0000000000D+00
 S 1 1.00
     Exponent=  2.5530772234D-01 Coefficients=  1.0000000000D+00
 S 1 1.00
     Exponent=  7.6572453250D-02 Coefficients=  1.0000000000D+00
 P 3 1.00
     Exponent=  1.7721504317D+01 Coefficients=  4.3394573193D-02
     Exponent=  3.8635505440D+00 Coefficients=  2.3094120765D-01
     Exponent=  1.0480920883D+00 Coefficients=  5.1375311064D-01
 P 1 1.00
     Exponent=  2.7641544411D-01 Coefficients=  1.0000000000D+00
 P 1 1.00
     Exponent=  6.9002276350D-02 Coefficients=  1.0000000000D+00
 D 1 1.00
     Exponent=  1.2000000000D+00 Coefficients=  1.0000000000D+00
 D 1 1.00
     Exponent=  1.7992024323D-01 Coefficients=  1.0000000000D+00
 ****
 Ernie: Thresh=  0.10000D-02 Tol=  0.10000D-05 Strict=F.
 There are    68 symmetry adapted cartesian basis functions of A'  symmetry.
 There are    25 symmetry adapted cartesian basis functions of A"  symmetry.
 There are    62 symmetry adapted basis functions of A'  symmetry.
 There are    25 symmetry adapted basis functions of A"  symmetry.
    87 basis functions,   129 primitive gaussians,    93 cartesian basis functions
    12 alpha electrons       12 beta electrons
       nuclear repulsion energy        71.3165683749 Hartrees.
 IExCor= 4639 DFT=T Ex+Corr=wB97XD ExCW=0 ScaHFX=  1.000000
 ScaDFX=  1.000000  1.000000  1.000000  1.000000 ScalE2=  1.000000  1.000000
 IRadAn=      5 IRanWt=     -1 IRanGd=            0 ICorTp=0 IEmpDi=121
 HFx  wShort=  0.000000 wLong=  0.200000 cFull=  0.222036 cShort=  0.000000 cLong=  0.777964
 DFx  wShort=  0.000000 wLong=  0.200000 cFull=  0.000000 cShort=  0.000000 cLong=  1.000000
 NAtoms=    6 NActive=    6 NUniq=    6 SFac= 1.00D+00 NAtFMM=   60 NAOKFM=F Big=F
 Integral buffers will be    131072 words long.
 Raffenetti 1 integral format.
 Two-electron integral symmetry is turned on.
 R6Disp:  Grimme-D2 Dispersion energy=       -0.0006983295 Hartrees.
 Nuclear repulsion after empirical dispersion term =       71.3158700454 Hartrees.
 Leave Link  301 at Mon Mar 21 15:51:17 2022, MaxMem=  8589934592 cpu:               0.7 elap:               0.1
 (Enter /home/rr/g16/l302.exe)
 NPDir=0 NMtPBC=     1 NCelOv=     1 NCel=       1 NClECP=     1 NCelD=      1
         NCelK=      1 NCelE2=     1 NClLst=     1 CellRange=     0.0.
 One-electron integrals computed using PRISM.
 One-electron integral symmetry used in STVInt
 NBasis=    87 RedAO= T EigKep=  4.94D-04  NBF=    62    25
 NBsUse=    87 1.00D-06 EigRej= -1.00D+00 NBFU=    62    25
 Precomputing XC quadrature grid using
 IXCGrd= 4 IRadAn=           5 IRanWt=          -1 IRanGd=           0 AccXCQ= 0.00D+00.
 Generated NRdTot=       0 NPtTot=           0 NUsed=           0 NTot=          32
 NSgBfM=    93    93    93    93    93 MxSgAt=     6 MxSgA2=     6.
 Leave Link  302 at Mon Mar 21 15:51:17 2022, MaxMem=  8589934592 cpu:               1.0 elap:               0.2
 (Enter /home/rr/g16/l303.exe)
 DipDrv:  MaxL=1.
 Leave Link  303 at Mon Mar 21 15:51:17 2022, MaxMem=  8589934592 cpu:               0.3 elap:               0.1
 (Enter /home/rr/g16/l308.exe)
 Leave Link  308 at Mon Mar 21 15:51:17 2022, MaxMem=  8589934592 cpu:               0.2 elap:               0.1
 (Enter /home/rr/g16/l401.exe)
 ExpMin= 6.71D-02 ExpMax= 2.27D+03 ExpMxC= 3.41D+02 IAcc=3 IRadAn=         5 AccDes= 0.00D+00
 Harris functional with IExCor= 4639 and IRadAn=       5 diagonalized for initial guess.
 HarFok:  IExCor= 4639 AccDes= 0.00D+00 IRadAn=         5 IDoV= 1 UseB2=F ITyADJ=14
 ICtDFT=  3500011 ScaDFX=  1.000000  1.000000  1.000000  1.000000
 FoFCou: FMM=F IPFlag=           0 FMFlag=      100000 FMFlg1=           0
         NFxFlg=           0 DoJE=T BraDBF=F KetDBF=T FulRan=T
         wScrn=  0.000000 ICntrl=       500 IOpCl=  0 I1Cent=   200000004 NGrid=           0
         NMat0=    1 NMatS0=      1 NMatT0=    0 NMatD0=    1 NMtDS0=    0 NMtDT0=    0
 Petite list used in FoFCou.
 Harris En= -163.013686770656    
 JPrj=0 DoOrth=F DoCkMO=F.
 Initial guess orbital symmetries:
       Occupied  (A') (A') (A') (A') (A') (A') (A') (A') (A') (A")
                 (A') (A")
       Virtual   (A") (A') (A') (A') (A') (A") (A') (A') (A') (A")
                 (A") (A') (A') (A') (A") (A') (A') (A") (A') (A')
                 (A') (A') (A") (A') (A') (A") (A') (A') (A') (A')
                 (A") (A') (A") (A') (A") (A") (A') (A') (A') (A')
                 (A') (A') (A") (A') (A') (A") (A') (A") (A') (A')
                 (A") (A') (A') (A') (A") (A') (A") (A') (A') (A')
                 (A") (A') (A") (A') (A') (A') (A") (A') (A") (A')
                 (A") (A') (A') (A') (A')
 The electronic state of the initial guess is 1-A'.
 Leave Link  401 at Mon Mar 21 15:51:17 2022, MaxMem=  8589934592 cpu:               1.9 elap:               0.3
 (Enter /home/rr/g16/l502.exe)
 Keep R1 ints in memory in symmetry-blocked form, NReq=22354432.
 FoFCou: FMM=F IPFlag=           0 FMFlag=           0 FMFlg1=           0
         NFxFlg=           0 DoJE=F BraDBF=F KetDBF=F FulRan=T
         wScrn=  0.000000 ICntrl=       600 IOpCl=  0 I1Cent=           0 NGrid=           0
         NMat0=    1 NMatS0=   3828 NMatT0=    0 NMatD0=    1 NMtDS0=    0 NMtDT0=    0
 Petite list used in FoFCou.
 Closed shell SCF:
 Using DIIS extrapolation, IDIIS=  1040.
 NGot=  8589934592 LenX=  8586108576 LenY=  8586099486
 Requested convergence on RMS density matrix=1.00D-08 within 100 cycles.
 Requested convergence on MAX density matrix=1.00D-06.
 Requested convergence on             energy=1.00D-06.
 No special actions if energy rises.
 Integral accuracy reduced to 1.0D-05 until final iterations.

 Cycle   1  Pass 0  IDiag  1:
 E= -169.534398147133    
 DIIS: error= 3.01D-02 at cycle   1 NSaved=   1.
 NSaved= 1 IEnMin= 1 EnMin= -169.534398147133     IErMin= 1 ErrMin= 3.01D-02
 ErrMax= 3.01D-02  0.00D+00 EMaxC= 1.00D-01 BMatC= 1.67D-01 BMatP= 1.67D-01
 IDIUse=3 WtCom= 6.99D-01 WtEn= 3.01D-01
 Coeff-Com:  0.100D+01
 Coeff-En:   0.100D+01
 Coeff:      0.100D+01
 Gap=     0.441 Goal=   None    Shift=    0.000
 GapD=    0.441 DampG=2.000 DampE=0.500 DampFc=1.0000 IDamp=-1.
 RMSDP=8.60D-03 MaxDP=1.49D-01              OVMax= 2.78D-01

 Cycle   2  Pass 0  IDiag  1:
 E= -169.497202061320     Delta-E=        0.037196085813 Rises=F Damp=F
 DIIS: error= 3.26D-02 at cycle   2 NSaved=   2.
 NSaved= 2 IEnMin= 1 EnMin= -169.534398147133     IErMin= 1 ErrMin= 3.01D-02
 ErrMax= 3.26D-02  0.00D+00 EMaxC= 1.00D-01 BMatC= 1.78D-01 BMatP= 1.67D-01
 IDIUse=3 WtCom= 6.74D-01 WtEn= 3.26D-01
 Coeff-Com:  0.509D+00 0.491D+00
 Coeff-En:   0.573D+00 0.427D+00
 Coeff:      0.530D+00 0.470D+00
 Gap=     0.403 Goal=   None    Shift=    0.000
 RMSDP=4.13D-03 MaxDP=9.34D-02 DE= 3.72D-02 OVMax= 1.52D-01

 Cycle   3  Pass 0  IDiag  1:
 E= -169.639766603837     Delta-E=       -0.142564542517 Rises=F Damp=F
 DIIS: error= 2.78D-03 at cycle   3 NSaved=   3.
 NSaved= 3 IEnMin= 3 EnMin= -169.639766603837     IErMin= 3 ErrMin= 2.78D-03
 ErrMax= 2.78D-03  0.00D+00 EMaxC= 1.00D-01 BMatC= 1.21D-03 BMatP= 1.67D-01
 IDIUse=3 WtCom= 9.72D-01 WtEn= 2.78D-02
 Coeff-Com:  0.132D-01 0.713D-01 0.915D+00
 Coeff-En:   0.000D+00 0.000D+00 0.100D+01
 Coeff:      0.129D-01 0.693D-01 0.918D+00
 Gap=     0.417 Goal=   None    Shift=    0.000
 RMSDP=8.42D-04 MaxDP=1.58D-02 DE=-1.43D-01 OVMax= 2.39D-02

 Cycle   4  Pass 0  IDiag  1:
 E= -169.640938693536     Delta-E=       -0.001172089699 Rises=F Damp=F
 DIIS: error= 1.11D-03 at cycle   4 NSaved=   4.
 NSaved= 4 IEnMin= 4 EnMin= -169.640938693536     IErMin= 4 ErrMin= 1.11D-03
 ErrMax= 1.11D-03  0.00D+00 EMaxC= 1.00D-01 BMatC= 2.22D-04 BMatP= 1.21D-03
 IDIUse=3 WtCom= 9.89D-01 WtEn= 1.11D-02
 Coeff-Com: -0.671D-02 0.861D-02 0.358D+00 0.640D+00
 Coeff-En:   0.000D+00 0.000D+00 0.000D+00 0.100D+01
 Coeff:     -0.663D-02 0.851D-02 0.354D+00 0.644D+00
 Gap=     0.420 Goal=   None    Shift=    0.000
 RMSDP=1.79D-04 MaxDP=5.12D-03 DE=-1.17D-03 OVMax= 4.71D-03

 Cycle   5  Pass 0  IDiag  1:
 E= -169.641130907735     Delta-E=       -0.000192214199 Rises=F Damp=F
 DIIS: error= 4.20D-04 at cycle   5 NSaved=   5.
 NSaved= 5 IEnMin= 5 EnMin= -169.641130907735     IErMin= 5 ErrMin= 4.20D-04
 ErrMax= 4.20D-04  0.00D+00 EMaxC= 1.00D-01 BMatC= 2.17D-05 BMatP= 2.22D-04
 IDIUse=3 WtCom= 9.96D-01 WtEn= 4.20D-03
 Coeff-Com: -0.377D-02-0.616D-02 0.562D-01 0.238D+00 0.715D+00
 Coeff-En:   0.000D+00 0.000D+00 0.000D+00 0.000D+00 0.100D+01
 Coeff:     -0.375D-02-0.614D-02 0.559D-01 0.237D+00 0.717D+00
 Gap=     0.419 Goal=   None    Shift=    0.000
 RMSDP=7.93D-05 MaxDP=1.70D-03 DE=-1.92D-04 OVMax= 1.75D-03

 Cycle   6  Pass 0  IDiag  1:
 E= -169.641150556639     Delta-E=       -0.000019648904 Rises=F Damp=F
 DIIS: error= 2.58D-04 at cycle   6 NSaved=   6.
 NSaved= 6 IEnMin= 6 EnMin= -169.641150556639     IErMin= 6 ErrMin= 2.58D-04
 ErrMax= 2.58D-04  0.00D+00 EMaxC= 1.00D-01 BMatC= 4.14D-06 BMatP= 2.17D-05
 IDIUse=3 WtCom= 9.97D-01 WtEn= 2.58D-03
 Coeff-Com:  0.682D-04-0.518D-02-0.458D-01-0.421D-01 0.300D+00 0.793D+00
 Coeff-En:   0.000D+00 0.000D+00 0.000D+00 0.000D+00 0.000D+00 0.100D+01
 Coeff:      0.680D-04-0.516D-02-0.457D-01-0.420D-01 0.300D+00 0.793D+00
 Gap=     0.419 Goal=   None    Shift=    0.000
 RMSDP=3.64D-05 MaxDP=5.62D-04 DE=-1.96D-05 OVMax= 1.01D-03

 Cycle   7  Pass 0  IDiag  1:
 E= -169.641155856075     Delta-E=       -0.000005299436 Rises=F Damp=F
 DIIS: error= 3.40D-05 at cycle   7 NSaved=   7.
 NSaved= 7 IEnMin= 7 EnMin= -169.641155856075     IErMin= 7 ErrMin= 3.40D-05
 ErrMax= 3.40D-05  0.00D+00 EMaxC= 1.00D-01 BMatC= 1.88D-07 BMatP= 4.14D-06
 IDIUse=1 WtCom= 1.00D+00 WtEn= 0.00D+00
 Coeff-Com:  0.264D-03-0.691D-03-0.107D-01-0.328D-01-0.170D-01 0.129D+00
 Coeff-Com:  0.932D+00
 Coeff:      0.264D-03-0.691D-03-0.107D-01-0.328D-01-0.170D-01 0.129D+00
 Coeff:      0.932D+00
 Gap=     0.419 Goal=   None    Shift=    0.000
 RMSDP=9.65D-06 MaxDP=1.21D-04 DE=-5.30D-06 OVMax= 3.53D-04

 Initial convergence to 1.0D-05 achieved.  Increase integral accuracy.
 Cycle   8  Pass 1  IDiag  1:
 E= -169.641168433995     Delta-E=       -0.000012577920 Rises=F Damp=F
 DIIS: error= 1.92D-05 at cycle   1 NSaved=   1.
 NSaved= 1 IEnMin= 1 EnMin= -169.641168433995     IErMin= 1 ErrMin= 1.92D-05
 ErrMax= 1.92D-05  0.00D+00 EMaxC= 1.00D-01 BMatC= 7.62D-08 BMatP= 7.62D-08
 IDIUse=1 WtCom= 1.00D+00 WtEn= 0.00D+00
 Coeff-Com:  0.100D+01
 Coeff:      0.100D+01
 Gap=     0.419 Goal=   None    Shift=    0.000
 RMSDP=9.65D-06 MaxDP=1.21D-04 DE=-1.26D-05 OVMax= 8.96D-05

 Cycle   9  Pass 1  IDiag  1:
 E= -169.641168523724     Delta-E=       -0.000000089729 Rises=F Damp=F
 DIIS: error= 5.64D-06 at cycle   2 NSaved=   2.
 NSaved= 2 IEnMin= 2 EnMin= -169.641168523724     IErMin= 2 ErrMin= 5.64D-06
 ErrMax= 5.64D-06  0.00D+00 EMaxC= 1.00D-01 BMatC= 3.68D-09 BMatP= 7.62D-08
 IDIUse=1 WtCom= 1.00D+00 WtEn= 0.00D+00
 Coeff-Com: -0.530D-01 0.105D+01
 Coeff:     -0.530D-01 0.105D+01
 Gap=     0.419 Goal=   None    Shift=    0.000
 RMSDP=1.59D-06 MaxDP=2.74D-05 DE=-8.97D-08 OVMax= 7.24D-05

 Cycle  10  Pass 1  IDiag  1:
 E= -169.641168528365     Delta-E=       -0.000000004641 Rises=F Damp=F
 DIIS: error= 7.86D-06 at cycle   3 NSaved=   3.
 NSaved= 3 IEnMin= 3 EnMin= -169.641168528365     IErMin= 2 ErrMin= 5.64D-06
 ErrMax= 7.86D-06  0.00D+00 EMaxC= 1.00D-01 BMatC= 4.38D-09 BMatP= 3.68D-09
 IDIUse=1 WtCom= 1.00D+00 WtEn= 0.00D+00
 Coeff-Com: -0.732D-01 0.585D+00 0.488D+00
 Coeff:     -0.732D-01 0.585D+00 0.488D+00
 Gap=     0.419 Goal=   None    Shift=    0.000
 RMSDP=7.23D-07 MaxDP=1.55D-05 DE=-4.64D-09 OVMax= 2.08D-05

 Cycle  11  Pass 1  IDiag  1:
 E= -169.641168532118     Delta-E=       -0.000000003753 Rises=F Damp=F
 DIIS: error= 1.26D-06 at cycle   4 NSaved=   4.
 NSaved= 4 IEnMin= 4 EnMin= -169.641168532118     IErMin= 4 ErrMin= 1.26D-06
 ErrMax= 1.26D-06  0.00D+00 EMaxC= 1.00D-01 BMatC= 8.66D-11 BMatP= 3.68D-09
 IDIUse=1 WtCom= 1.00D+00 WtEn= 0.00D+00
 Coeff-Com: -0.845D-02-0.351D-01 0.181D-01 0.103D+01
 Coeff:     -0.845D-02-0.351D-01 0.181D-01 0.103D+01
 Gap=     0.419 Goal=   None    Shift=    0.000
 RMSDP=2.66D-07 MaxDP=4.25D-06 DE=-3.75D-09 OVMax= 1.31D-05

 Cycle  12  Pass 1  IDiag  1:
 E= -169.641168532433     Delta-E=       -0.000000000316 Rises=F Damp=F
 DIIS: error= 3.79D-07 at cycle   5 NSaved=   5.
 NSaved= 5 IEnMin= 5 EnMin= -169.641168532433     IErMin= 5 ErrMin= 3.79D-07
 ErrMax= 3.79D-07  0.00D+00 EMaxC= 1.00D-01 BMatC= 1.85D-11 BMatP= 8.66D-11
 IDIUse=1 WtCom= 1.00D+00 WtEn= 0.00D+00
 Coeff-Com:  0.763D-02-0.648D-01-0.892D-01 0.869D-01 0.106D+01
 Coeff:      0.763D-02-0.648D-01-0.892D-01 0.869D-01 0.106D+01
 Gap=     0.419 Goal=   None    Shift=    0.000
 RMSDP=1.16D-07 MaxDP=1.74D-06 DE=-3.16D-10 OVMax= 5.09D-06

 Cycle  13  Pass 1  IDiag  1:
 E= -169.641168532478     Delta-E=       -0.000000000045 Rises=F Damp=F
 DIIS: error= 1.22D-07 at cycle   6 NSaved=   6.
 NSaved= 6 IEnMin= 6 EnMin= -169.641168532478     IErMin= 6 ErrMin= 1.22D-07
 ErrMax= 1.22D-07  0.00D+00 EMaxC= 1.00D-01 BMatC= 2.16D-12 BMatP= 1.85D-11
 IDIUse=1 WtCom= 1.00D+00 WtEn= 0.00D+00
 Coeff-Com:  0.345D-02-0.232D-01-0.411D-01-0.170D-01 0.422D+00 0.656D+00
 Coeff:      0.345D-02-0.232D-01-0.411D-01-0.170D-01 0.422D+00 0.656D+00
 Gap=     0.419 Goal=   None    Shift=    0.000
 RMSDP=2.11D-08 MaxDP=4.35D-07 DE=-4.47D-11 OVMax= 6.38D-07

 Cycle  14  Pass 1  IDiag  1:
 E= -169.641168532480     Delta-E=       -0.000000000002 Rises=F Damp=F
 DIIS: error= 6.51D-08 at cycle   7 NSaved=   7.
 NSaved= 7 IEnMin= 7 EnMin= -169.641168532480     IErMin= 7 ErrMin= 6.51D-08
 ErrMax= 6.51D-08  0.00D+00 EMaxC= 1.00D-01 BMatC= 2.85D-13 BMatP= 2.16D-12
 IDIUse=1 WtCom= 1.00D+00 WtEn= 0.00D+00
 Coeff-Com: -0.252D-03 0.437D-02-0.423D-03-0.192D-01-0.435D-01 0.252D+00
 Coeff-Com:  0.807D+00
 Coeff:     -0.252D-03 0.437D-02-0.423D-03-0.192D-01-0.435D-01 0.252D+00
 Coeff:      0.807D+00
 Gap=     0.419 Goal=   None    Shift=    0.000
 RMSDP=8.48D-09 MaxDP=1.57D-07 DE=-2.33D-12 OVMax= 3.77D-07

 SCF Done:  E(RwB97XD) =  -169.641168532     A.U. after   14 cycles
            NFock= 14  Conv=0.85D-08     -V/T= 2.0085
 KE= 1.682091195389D+02 PE=-5.398107866572D+02 EE= 1.306446285404D+02
 Leave Link  502 at Mon Mar 21 15:51:19 2022, MaxMem=  8589934592 cpu:              13.6 elap:               1.8
 (Enter /home/rr/g16/l801.exe)
 DoSCS=F DFT=T ScalE2(SS,OS)=  1.000000  1.000000
 ExpMin= 6.71D-02 ExpMax= 2.27D+03 ExpMxC= 3.41D+02 IAcc=3 IRadAn=         5 AccDes= 0.00D+00
 HarFok:  IExCor=  205 AccDes= 0.00D+00 IRadAn=         5 IDoV=-2 UseB2=F ITyADJ=14
 ICtDFT= 12500011 ScaDFX=  1.000000  1.000000  1.000000  1.000000
 Largest valence mixing into a core orbital is  7.12D-05
 Largest core mixing into a valence orbital is  1.67D-05
 Range of M.O.s used for correlation:     4    87
 NBasis=    87 NAE=    12 NBE=    12 NFC=     3 NFV=     0
 NROrb=     84 NOA=     9 NOB=     9 NVA=    75 NVB=    75

 **** Warning!!: The largest alpha MO coefficient is  0.16557159D+02

 Leave Link  801 at Mon Mar 21 15:51:19 2022, MaxMem=  8589934592 cpu:               0.5 elap:               0.1
 (Enter /home/rr/g16/l914.exe)
 RHF ground state
 Keep R1, R2, and R3 ints in memory in symmetry-blocked form, NReq=506697564.
 FoFCou: FMM=F IPFlag=           0 FMFlag=           0 FMFlg1=           0
         NFxFlg=           0 DoJE=F BraDBF=F KetDBF=F FulRan=T
         wScrn=  0.000000 ICntrl=       600 IOpCl=  0 I1Cent=           0 NGrid=           0
         NMat0=    1 NMatS0=   3828 NMatT0=    0 NMatD0=    1 NMtDS0=    0 NMtDT0=    0
 Petite list used in FoFCou.
 MDV=  8589934592 DFT=T DoStab=F Mixed=T DoRPA=T DoScal=F NonHer=T
 Making orbital integer symmetry assigments:
 Orbital symmetries:
       Occupied  (A') (A') (A') (A') (A') (A') (A') (A') (A") (A')
                 (A') (A")
       Virtual   (A") (A') (A') (A') (A') (A") (A') (A') (A') (A")
                 (A") (A') (A') (A') (A") (A') (A') (A") (A') (A')
                 (A') (A') (A") (A') (A') (A") (A') (A') (A') (A')
                 (A") (A') (A") (A') (A") (A") (A') (A') (A') (A')
                 (A') (A') (A") (A') (A') (A") (A') (A") (A') (A')
                 (A") (A') (A') (A') (A") (A') (A") (A') (A') (A')
                 (A") (A') (A") (A') (A') (A') (A") (A') (A") (A")
                 (A') (A') (A') (A') (A')
   675 initial guesses have been made.
 Convergence on wavefunction:    0.001000000000000
 Davidson Disk Diagonalization:  ConvIn= 1.00D-03 SkipCon=T Conv= 1.00D-03.
 Max sub-space:  4050 roots to seek:  1350 dimension of matrix:         1350
 *** WARNING: Number of orthogonal guesses is          675
 Iteration     1 Dimension   675 NMult     0 NNew    675
 CISAX will form   675 AO SS matrices at one time.
 NMat=   675 NSing=   675 JSym2X=-1.
 New state      1 was old state      2
 New state      2 was old state      1
 New state      7 was old state      8
 New state      8 was old state     14
 New state      9 was old state      7
 New state     10 was old state     11
 New state     11 was old state      9
 New state     12 was old state     10
 New state     13 was old state     12
 New state     14 was old state     16
 New state     15 was old state     13
 New state     16 was old state     15
 New state     17 was old state     18
 New state     18 was old state     24
 New state     19 was old state     17
 New state     20 was old state     19
 New state     23 was old state     20
 New state     24 was old state     23
 New state     25 was old state     26
 New state     26 was old state     25
 New state     27 was old state     39
 New state     28 was old state     27
 New state     30 was old state     31
 New state     31 was old state     28
 New state     32 was old state     30
 New state     33 was old state     32
 New state     35 was old state     40
 New state     36 was old state     37
 New state     37 was old state     38
 New state     38 was old state     36
 New state     39 was old state     33
 New state     40 was old state     42
 New state     41 was old state     35
 New state     42 was old state     43
 New state     43 was old state     41
 New state     45 was old state     46
 New state     46 was old state     51
 New state     47 was old state     45
 New state     48 was old state     49
 New state     49 was old state     52
 New state     50 was old state     47
 New state     51 was old state     48
 New state     52 was old state     53
 New state     53 was old state     50
 New state     54 was old state     56
 New state     55 was old state     58
 New state     56 was old state     57
 New state     57 was old state     60
 New state     58 was old state     55
 New state     59 was old state     54
 New state     60 was old state     59
 New state     62 was old state     63
 New state     63 was old state     65
 New state     64 was old state     67
 New state     65 was old state     64
 New state     66 was old state     62
 New state     67 was old state     71
 New state     68 was old state     66
 New state     69 was old state     74
 New state     70 was old state     75
 New state     71 was old state     72
 New state     72 was old state     69
 New state     73 was old state     76
 New state     74 was old state     68
 New state     75 was old state     80
 New state     76 was old state     73
 New state     77 was old state     81
 New state     78 was old state     77
 New state     79 was old state     85
 New state     80 was old state     84
 New state     81 was old state     70
 New state     82 was old state     79
 New state     83 was old state     87
 New state     84 was old state     86
 New state     85 was old state     82
 New state     86 was old state     78
 New state     87 was old state     89
 New state     88 was old state     83
 New state     89 was old state     90
 New state     90 was old state     88
 New state     91 was old state     93
 New state     93 was old state     91
 New state     96 was old state    102
 New state     98 was old state     96
 New state     99 was old state    104
 New state    100 was old state     99
 New state    102 was old state    100
 New state    103 was old state     98
 New state    104 was old state    106
 New state    105 was old state    109
 New state    106 was old state    107
 New state    107 was old state    108
 New state    108 was old state    105
 New state    109 was old state    112
 New state    110 was old state    113
 New state    111 was old state    118
 New state    112 was old state    110
 New state    113 was old state    111
 New state    114 was old state    116
 New state    115 was old state    114
 New state    116 was old state    122
 New state    117 was old state    119
 New state    118 was old state    126
 New state    119 was old state    125
 New state    120 was old state    117
 New state    121 was old state    115
 New state    122 was old state    123
 New state    123 was old state    121
 New state    124 was old state    129
 New state    125 was old state    120
 New state    126 was old state    124
 New state    127 was old state    131
 New state    128 was old state    127
 New state    129 was old state    133
 New state    130 was old state    128
 New state    131 was old state    138
 New state    133 was old state    135
 New state    135 was old state    130
 New state    136 was old state    142
 New state    137 was old state    156
 New state    138 was old state    136
 New state    139 was old state    137
 New state    140 was old state    141
 New state    141 was old state    153
 New state    142 was old state    150
 New state    143 was old state    139
 New state    144 was old state    140
 New state    145 was old state    143
 New state    146 was old state    144
 New state    147 was old state    148
 New state    148 was old state    151
 New state    149 was old state    147
 New state    150 was old state    155
 New state    151 was old state    159
 New state    152 was old state    145
 New state    153 was old state    146
 New state    155 was old state    152
 New state    156 was old state    149
 New state    157 was old state    163
 New state    159 was old state    161
 New state    160 was old state    157
 New state    161 was old state    167
 New state    162 was old state    160
 New state    163 was old state    162
 New state    164 was old state    165
 New state    165 was old state    173
 New state    167 was old state    169
 New state    168 was old state    176
 New state    169 was old state    164
 New state    170 was old state    180
 New state    171 was old state    175
 New state    172 was old state    170
 New state    173 was old state    172
 New state    174 was old state    168
 New state    175 was old state    178
 New state    176 was old state    182
 New state    177 was old state    181
 New state    178 was old state    179
 New state    179 was old state    184
 New state    180 was old state    171
 New state    181 was old state    174
 New state    182 was old state    177
 New state    183 was old state    187
 New state    184 was old state    186
 New state    186 was old state    193
 New state    187 was old state    192
 New state    188 was old state    196
 New state    190 was old state    183
 New state    191 was old state    188
 New state    192 was old state    195
 New state    193 was old state    198
 New state    194 was old state    200
 New state    195 was old state    199
 New state    196 was old state    191
 New state    197 was old state    194
 New state    198 was old state    190
 New state    199 was old state    197
 New state    200 was old state    205
 New state    201 was old state    208
 New state    203 was old state    201
 New state    204 was old state    207
 New state    205 was old state    211
 New state    206 was old state    209
 New state    207 was old state    203
 New state    208 was old state    206
 New state    209 was old state    214
 New state    211 was old state    220
 New state    212 was old state    218
 New state    213 was old state    212
 New state    214 was old state    216
 New state    215 was old state    213
 New state    216 was old state    204
 New state    217 was old state    215
 New state    218 was old state    217
 New state    220 was old state    221
 New state    221 was old state    222
 New state    222 was old state    227
 New state    224 was old state    225
 New state    225 was old state    226
 New state    226 was old state    230
 New state    227 was old state    233
 New state    228 was old state    232
 New state    229 was old state    228
 New state    230 was old state    234
 New state    231 was old state    224
 New state    232 was old state    229
 New state    233 was old state    243
 New state    234 was old state    231
 New state    235 was old state    240
 New state    236 was old state    235
 New state    238 was old state    242
 New state    239 was old state    238
 New state    240 was old state    239
 New state    241 was old state    236
 New state    242 was old state    241
 New state    243 was old state    244
 New state    244 was old state    245
 New state    245 was old state    247
 New state    246 was old state    249
 New state    247 was old state    248
 New state    248 was old state    252
 New state    249 was old state    246
 New state    250 was old state    255
 New state    251 was old state    250
 New state    252 was old state    253
 New state    253 was old state    258
 New state    254 was old state    257
 New state    255 was old state    256
 New state    256 was old state    254
 New state    257 was old state    261
 New state    258 was old state    260
 New state    259 was old state    251
 New state    260 was old state    265
 New state    261 was old state    259
 New state    262 was old state    269
 New state    264 was old state    276
 New state    265 was old state    264
 New state    266 was old state    262
 New state    267 was old state    279
 New state    268 was old state    273
 New state    269 was old state    268
 New state    270 was old state    272
 New state    271 was old state    270
 New state    272 was old state    271
 New state    273 was old state    267
 New state    274 was old state    266
 New state    275 was old state    274
 New state    276 was old state    275
 New state    279 was old state    281
 New state    281 was old state    289
 New state    283 was old state    284
 New state    284 was old state    283
 New state    285 was old state    290
 New state    287 was old state    285
 New state    288 was old state    293
 New state    289 was old state    288
 New state    290 was old state    287
 New state    293 was old state    300
 New state    294 was old state    297
 New state    296 was old state    303
 New state    297 was old state    298
 New state    298 was old state    296
 New state    299 was old state    301
 New state    300 was old state    304
 New state    301 was old state    299
 New state    302 was old state    294
 New state    303 was old state    307
 New state    304 was old state    302
 New state    306 was old state    309
 New state    307 was old state    311
 New state    308 was old state    310
 New state    309 was old state    306
 New state    310 was old state    308
 New state    311 was old state    324
 New state    312 was old state    323
 New state    313 was old state    315
 New state    314 was old state    313
 New state    315 was old state    314
 New state    316 was old state    312
 New state    318 was old state    319
 New state    319 was old state    316
 New state    320 was old state    322
 New state    322 was old state    320
 New state    323 was old state    318
 New state    324 was old state    331
 New state    325 was old state    328
 New state    326 was old state    325
 New state    327 was old state    329
 New state    328 was old state    330
 New state    329 was old state    333
 New state    330 was old state    326
 New state    331 was old state    336
 New state    332 was old state    334
 New state    333 was old state    332
 New state    334 was old state    327
 New state    335 was old state    338
 New state    336 was old state    335
 New state    337 was old state    341
 New state    338 was old state    340
 New state    339 was old state    337
 New state    340 was old state    342
 New state    341 was old state    344
 New state    342 was old state    347
 New state    344 was old state    339
 New state    345 was old state    346
 New state    346 was old state    352
 New state    347 was old state    345
 New state    349 was old state    351
 New state    351 was old state    354
 New state    352 was old state    353
 New state    353 was old state    349
 New state    354 was old state    356
 New state    355 was old state    358
 New state    356 was old state    355
 New state    357 was old state    363
 New state    358 was old state    360
 New state    360 was old state    357
 New state    361 was old state    365
 New state    362 was old state    364
 New state    363 was old state    361
 New state    364 was old state    362
 New state    365 was old state    368
 New state    366 was old state    372
 New state    367 was old state    366
 New state    368 was old state    376
 New state    369 was old state    370
 New state    370 was old state    374
 New state    371 was old state    367
 New state    372 was old state    377
 New state    373 was old state    369
 New state    374 was old state    371
 New state    375 was old state    373
 New state    376 was old state    378
 New state    377 was old state    379
 New state    378 was old state    375
 New state    379 was old state    382
 New state    380 was old state    384
 New state    382 was old state    383
 New state    383 was old state    380
 New state    384 was old state    388
 New state    385 was old state    386
 New state    386 was old state    385
 New state    388 was old state    390
 New state    390 was old state    392
 New state    391 was old state    393
 New state    392 was old state    391
 New state    393 was old state    395
 New state    394 was old state    400
 New state    395 was old state    394
 New state    396 was old state    398
 New state    397 was old state    396
 New state    398 was old state    397
 New state    400 was old state    401
 New state    401 was old state    406
 New state    402 was old state    407
 New state    403 was old state    402
 New state    404 was old state    405
 New state    405 was old state    404
 New state    406 was old state    403
 New state    407 was old state    408
 New state    408 was old state    413
 New state    409 was old state    411
 New state    411 was old state    412
 New state    412 was old state    414
 New state    413 was old state    409
 New state    414 was old state    416
 New state    415 was old state    417
 New state    416 was old state    420
 New state    417 was old state    415
 New state    419 was old state    421
 New state    420 was old state    419
 New state    421 was old state    425
 New state    423 was old state    429
 New state    424 was old state    426
 New state    425 was old state    424
 New state    426 was old state    428
 New state    427 was old state    423
 New state    428 was old state    432
 New state    429 was old state    434
 New state    430 was old state    427
 New state    432 was old state    430
 New state    434 was old state    437
 New state    437 was old state    438
 New state    438 was old state    439
 New state    439 was old state    441
 New state    441 was old state    444
 New state    444 was old state    445
 New state    445 was old state    447
 New state    446 was old state    448
 New state    447 was old state    449
 New state    448 was old state    446
 New state    449 was old state    450
 New state    450 was old state    456
 New state    452 was old state    454
 New state    454 was old state    452
 New state    456 was old state    458
 New state    458 was old state    459
 New state    459 was old state    461
 New state    461 was old state    462
 New state    462 was old state    464
 New state    463 was old state    466
 New state    464 was old state    463
 New state    465 was old state    468
 New state    466 was old state    465
 New state    467 was old state    471
 New state    468 was old state    469
 New state    469 was old state    467
 New state    470 was old state    472
 New state    471 was old state    470
 New state    472 was old state    474
 New state    473 was old state    482
 New state    474 was old state    480
 New state    475 was old state    473
 New state    477 was old state    481
 New state    478 was old state    479
 New state    479 was old state    478
 New state    480 was old state    475
 New state    481 was old state    477
 New state    482 was old state    485
 New state    483 was old state    484
 New state    484 was old state    487
 New state    485 was old state    483
 New state    486 was old state    488
 New state    487 was old state    486
 New state    488 was old state    490
 New state    490 was old state    492
 New state    491 was old state    495
 New state    492 was old state    491
 New state    495 was old state    498
 New state    496 was old state    499
 New state    497 was old state    501
 New state    498 was old state    496
 New state    499 was old state    500
 New state    500 was old state    510
 New state    501 was old state    504
 New state    502 was old state    497
 New state    503 was old state    502
 New state    504 was old state    503
 New state    505 was old state    506
 New state    506 was old state    505
 New state    508 was old state    509
 New state    509 was old state    508
 New state    510 was old state    511
 New state    511 was old state    512
 New state    512 was old state    513
 New state    513 was old state    518
 New state    514 was old state    517
 New state    516 was old state    514
 New state    517 was old state    516
 New state    518 was old state    520
 New state    520 was old state    525
 New state    525 was old state    526
 New state    526 was old state    529
 New state    527 was old state    537
 New state    528 was old state    527
 New state    529 was old state    528
 New state    530 was old state    531
 New state    531 was old state    532
 New state    532 was old state    530
 New state    535 was old state    538
 New state    536 was old state    535
 No map to state    537
 New state    538 was old state    540
 New state    539 was old state    536
 New state    540 was old state    539
 New state    542 was old state    544
 New state    544 was old state    542
 New state    546 was old state    547
 New state    547 was old state    546
 New state    552 was old state    553
 New state    553 was old state    554
 New state    554 was old state    552
 New state    555 was old state    557
 New state    556 was old state    555
 New state    557 was old state    556
 New state    558 was old state    559
 New state    559 was old state    558
 New state    560 was old state    564
 New state    561 was old state    563
 New state    562 was old state    561
 New state    563 was old state    560
 New state    564 was old state    565
 New state    565 was old state    562
 New state    567 was old state    568
 New state    568 was old state    570
 New state    569 was old state    567
 New state    570 was old state    569
 New state    571 was old state    572
 New state    572 was old state    571
 New state    576 was old state    578
 New state    577 was old state    576
 New state    578 was old state    579
 New state    579 was old state    577
 New state    583 was old state    584
 New state    584 was old state    583
 New state    587 was old state    588
 New state    588 was old state    587
 New state    589 was old state    590
 New state    590 was old state    591
 New state    591 was old state    589
 New state    595 was old state    596
 New state    596 was old state    597
 New state    597 was old state    595
 New state    598 was old state    600
 New state    600 was old state    598
 New state    603 was old state    605
 New state    604 was old state    606
 New state    605 was old state    603
 New state    606 was old state    604
 New state    608 was old state    609
 New state    609 was old state    608
 New state    610 was old state    611
 New state    611 was old state    616
 New state    613 was old state    615
 New state    614 was old state    621
 New state    615 was old state    617
 New state    616 was old state    614
 New state    617 was old state    610
 New state    618 was old state    619
 New state    619 was old state    618
 New state    621 was old state    613
 New state    622 was old state    623
 New state    623 was old state    622
 New state    625 was old state    626
 New state    626 was old state    629
 New state    629 was old state    625
 New state    642 was old state    644
 New state    643 was old state    642
 New state    644 was old state    643
 New state    646 was old state    647
 New state    647 was old state    646
 New state    648 was old state    649
 New state    649 was old state    648
 New state    653 was old state    654
 New state    654 was old state    653
 New state    655 was old state    657
 New state    656 was old state    655
 New state    657 was old state    656
 New state    658 was old state    659
 New state    659 was old state    658
 New state    660 was old state    661
 New state    661 was old state    660
 New state    662 was old state    663
 New state    663 was old state    662
 New state    664 was old state    665
 New state    665 was old state    664
 New state    666 was old state    667
 New state    667 was old state    666
 Excitation Energies [eV] at current iteration:
 Root      1 :     5.971228727038553
 Root      2 :     7.026731102683939
 Root      3 :     7.527122504344251
 Root      4 :     7.971971280143109
 Root      5 :     8.468247355603989
 Root      6 :     9.033588546884481
 Root      7 :     9.221364868732847
 Root      8 :     9.618628322427346
 Root      9 :     9.750220396909823
 Root     10 :     9.779325962503297
 Root     11 :    10.222754151659190
 Root     12 :    10.426491355119930
 Root     13 :    10.571183869767010
 Root     14 :    10.631212276386880
 Root     15 :    10.786559814389480
 Root     16 :    10.849234782184020
 Root     17 :    11.142905701982020
 Root     18 :    11.160452466644020
 Root     19 :    11.207653694277940
 Root     20 :    11.471538098712100
 Root     21 :    11.727328297634400
 Root     22 :    11.988728771205350
 Root     23 :    12.049774063538590
 Root     24 :    12.445991129760920
 Root     25 :    12.670093024918130
 Root     26 :    12.750573882699950
 Root     27 :    12.910052483001750
 Root     28 :    13.016845658640500
 Root     29 :    13.056919927281910
 Root     30 :    13.092306813540690
 Root     31 :    13.270670348570470
 Root     32 :    13.312280265431190
 Root     33 :    13.463001074653740
 Root     34 :    13.553557388598370
 Root     35 :    13.606965190145180
 Root     36 :    13.742035518511370
 Root     37 :    13.923226433987970
 Root     38 :    14.025303754254870
 Root     39 :    14.103485217652600
 Root     40 :    14.209146340899010
 Root     41 :    14.217870067666080
 Root     42 :    14.383654111829810
 Root     43 :    14.519129291789890
 Root     44 :    14.580672170426790
 Root     45 :    14.781237872564440
 Root     46 :    14.923077326591900
 Root     47 :    14.954845469785950
 Root     48 :    15.019548722833960
 Root     49 :    15.207699576159630
 Root     50 :    15.299480863749280
 Root     51 :    15.335368599249320
 Root     52 :    15.370994010100320
 Root     53 :    15.518645521077370
 Root     54 :    15.535206097102620
 Root     55 :    15.630367008166260
 Root     56 :    15.696446349723670
 Root     57 :    15.814160207189330
 Root     58 :    15.858777349800590
 Root     59 :    16.000599357517580
 Root     60 :    16.146876654132530
 Root     61 :    16.161640134182140
 Root     62 :    16.271103971965510
 Root     63 :    16.474528128794620
 Root     64 :    16.494589666847430
 Root     65 :    16.588336239868320
 Root     66 :    16.611912480390280
 Root     67 :    16.647394302669160
 Root     68 :    16.744297443461490
 Root     69 :    16.818505040089580
 Root     70 :    16.936383468198900
 Root     71 :    16.992250479985580
 Root     72 :    17.094649490936400
 Root     73 :    17.137859484986370
 Root     74 :    17.245218438843570
 Root     75 :    17.362839838036000
 Root     76 :    17.364544636466980
 Root     77 :    17.411267532552860
 Root     78 :    17.502460761657800
 Root     79 :    17.505268951208680
 Root     80 :    17.600851043124060
 Root     81 :    17.631584448985720
 Root     82 :    17.735188309284150
 Root     83 :    17.817082757903900
 Root     84 :    17.863868056234020
 Root     85 :    17.910212594311580
 Root     86 :    18.001627566336100
 Root     87 :    18.107221333697270
 Root     88 :    18.271585009575410
 Root     89 :    18.329570653712330
 Root     90 :    18.335568962783240
 Root     91 :    18.417212732893220
 Root     92 :    18.552486638017360
 Root     93 :    18.611823070524860
 Root     94 :    18.613161976485180
 Root     95 :    18.630162171539740
 Root     96 :    18.814481764707430
 Root     97 :    18.834517935557040
 Root     98 :    18.977735592643730
 Root     99 :    19.028925158033450
 Root    100 :    19.075745862581420
 Root    101 :    19.108080571778680
 Root    102 :    19.199921079346440
 Root    103 :    19.510562949136760
 Root    104 :    19.597058301583930
 Root    105 :    19.707473602693050
 Root    106 :    19.744278046660290
 Root    107 :    19.761507968746800
 Root    108 :    19.869348577828480
 Root    109 :    19.891531251346420
 Root    110 :    20.032427200191230
 Root    111 :    20.066107268683290
 Root    112 :    20.093716638938630
 Root    113 :    20.184048456946460
 Root    114 :    20.212200430506810
 Root    115 :    20.243948651377220
 Root    116 :    20.331413751454520
 Root    117 :    20.348897009014770
 Root    118 :    20.389689234011680
 Root    119 :    20.581399703073530
 Root    120 :    20.615687135076130
 Root    121 :    20.640268913697410
 Root    122 :    20.692478422514240
 Root    123 :    20.747253266162970
 Root    124 :    20.818323703140040
 Root    125 :    20.853454385890490
 Root    126 :    21.006967861733570
 Root    127 :    21.026930052713470
 Root    128 :    21.079270403649830
 Root    129 :    21.185254814774250
 Root    130 :    21.271092346449230
 Root    131 :    21.421298196011650
 Root    132 :    21.480166224134380
 Root    133 :    21.620449646973000
 Root    134 :    21.688298288634440
 Root    135 :    21.759035458366000
 Root    136 :    21.795910500977900
 Root    137 :    21.907860422565370
 Root    138 :    21.927902003246240
 Root    139 :    21.995012201767620
 Root    140 :    22.018579681580150
 Root    141 :    22.111404829624930
 Root    142 :    22.260126418659250
 Root    143 :    22.284096968421370
 Root    144 :    22.301132381325560
 Root    145 :    22.475668179102430
 Root    146 :    22.507119757839560
 Root    147 :    22.614387916629570
 Root    148 :    22.632545401000950
 Root    149 :    22.654999831061110
 Root    150 :    22.754583943913600
 Root    151 :    22.877350829578720
 Root    152 :    22.957201221456160
 Root    153 :    22.969951879136070
 Root    154 :    23.045336372486390
 Root    155 :    23.185523150563380
 Root    156 :    23.282018043740420
 Root    157 :    23.333559135827190
 Root    158 :    23.375110361805690
 Root    159 :    23.388964797520400
 Root    160 :    23.501332953320730
 Root    161 :    23.522355457135240
 Root    162 :    23.685859344781180
 Root    163 :    23.727410694573650
 Root    164 :    23.835281953760100
 Root    165 :    23.941976108329830
 Root    166 :    24.005298226404670
 Root    167 :    24.018214758956230
 Root    168 :    24.123094607368930
 Root    169 :    24.145973294990900
 Root    170 :    24.206815446234430
 Root    171 :    24.336817689316660
 Root    172 :    24.360084561818500
 Root    173 :    24.425747358320990
 Root    174 :    24.529681932876470
 Root    175 :    24.566979021750320
 Root    176 :    24.653085837017870
 Root    177 :    24.702503910804240
 Root    178 :    24.796894755362300
 Root    179 :    24.805461005847970
 Root    180 :    24.845025795560780
 Root    181 :    24.938111397686750
 Root    182 :    25.030952166703820
 Root    183 :    25.132337329122870
 Root    184 :    25.135886074037230
 Root    185 :    25.269395280900860
 Root    186 :    25.344813686412270
 Root    187 :    25.554364692597160
 Root    188 :    25.597238591762480
 Root    189 :    25.622382554196350
 Root    190 :    25.637905834053030
 Root    191 :    25.753153042820720
 Root    192 :    25.796347424769020
 Root    193 :    25.812729901350140
 Root    194 :    25.902725028947320
 Root    195 :    25.984491184729320
 Root    196 :    26.093907554881450
 Root    197 :    26.207523980177510
 Root    198 :    26.239997249943600
 Root    199 :    26.273541541045670
 Root    200 :    26.469018099708390
 Root    201 :    26.585559145367810
 Root    202 :    26.604957588349810
 Root    203 :    26.656353156395410
 Root    204 :    26.765278474930320
 Root    205 :    26.894800152662700
 Root    206 :    26.990571088325850
 Root    207 :    27.021434571347970
 Root    208 :    27.120000788271820
 Root    209 :    27.159872617997460
 Root    210 :    27.278252083163820
 Root    211 :    27.297795841680920
 Root    212 :    27.364623673667220
 Root    213 :    27.443767265054480
 Root    214 :    27.531100716656870
 Root    215 :    27.586842297397200
 Root    216 :    27.595923610256460
 Root    217 :    27.734163702749110
 Root    218 :    27.844123819480030
 Root    219 :    27.946824467344080
 Root    220 :    27.991870959022000
 Root    221 :    28.009403700061390
 Root    222 :    28.118878138027350
 Root    223 :    28.259867889083680
 Root    224 :    28.289802267590940
 Root    225 :    28.297935885875870
 Root    226 :    28.411336363737240
 Root    227 :    28.587746139529300
 Root    228 :    28.611145444744960
 Root    229 :    28.676435889139800
 Root    230 :    28.793137743771480
 Root    231 :    28.801594320237360
 Root    232 :    28.967827695469230
 Root    233 :    29.064097029976330
 Root    234 :    29.188679112081780
 Root    235 :    29.324840086882660
 Root    236 :    29.482182828042430
 Root    237 :    29.500131862625470
 Root    238 :    29.544760001842700
 Root    239 :    29.660306295951640
 Root    240 :    29.709078201865230
 Root    241 :    29.770440343947150
 Root    242 :    29.802453451856450
 Root    243 :    29.917570427824740
 Root    244 :    29.949226269103430
 Root    245 :    30.051859550265700
 Root    246 :    30.129155754788560
 Root    247 :    30.178394952041950
 Root    248 :    30.385634755885680
 Root    249 :    30.609967475075660
 Root    250 :    30.714942902319240
 Root    251 :    30.723466588590830
 Root    252 :    30.840625534176770
 Root    253 :    30.851756270872210
 Root    254 :    30.969541580913720
 Root    255 :    31.243397285357460
 Root    256 :    31.273494309834600
 Root    257 :    31.341646420201480
 Root    258 :    31.477853561382330
 Root    259 :    31.566530324581510
 Root    260 :    31.703203595138360
 Root    261 :    31.847848422114510
 Root    262 :    32.016036462086800
 Root    263 :    32.135431162373930
 Root    264 :    32.168611884910710
 Root    265 :    32.278308720962700
 Root    266 :    32.357112305817370
 Root    267 :    32.439437978651070
 Root    268 :    32.480433733691780
 Root    269 :    32.482400609537660
 Root    270 :    32.569804138337690
 Root    271 :    32.679804600286460
 Root    272 :    32.699522918846700
 Root    273 :    32.711973321303520
 Root    274 :    32.786568056903540
 Root    275 :    32.863392921261490
 Root    276 :    32.964931581808050
 Root    277 :    33.042058986928230
 Root    278 :    33.192086015979760
 Root    279 :    33.254613744644310
 Root    280 :    33.491560218939760
 Root    281 :    33.626518784592720
 Root    282 :    33.695233641982290
 Root    283 :    33.827742605486090
 Root    284 :    33.889544788624740
 Root    285 :    33.955612941302460
 Root    286 :    34.077846191316770
 Root    287 :    34.212287340435190
 Root    288 :    34.266026829289740
 Root    289 :    34.383270229366990
 Root    290 :    34.388452602734350
 Root    291 :    34.734876828099370
 Root    292 :    34.781841070932190
 Root    293 :    34.886943958816670
 Root    294 :    34.903238124133860
 Root    295 :    35.166002214635610
 Root    296 :    35.514080516573930
 Root    297 :    35.538102716249220
 Root    298 :    35.641324278578130
 Root    299 :    35.691319365296250
 Root    300 :    35.846514024646760
 Root    301 :    35.924355481600640
 Root    302 :    36.030614802597900
 Root    303 :    36.077413744438420
 Root    304 :    36.261171191976580
 Root    305 :    36.364107814388540
 Root    306 :    36.385412310374400
 Root    307 :    36.452623530918790
 Root    308 :    36.541920408793740
 Root    309 :    36.670384613672150
 Root    310 :    36.769008382858980
 Root    311 :    36.805884079095200
 Root    312 :    36.954254917277040
 Root    313 :    37.183333738605430
 Root    314 :    37.202467221404150
 Root    315 :    37.340828983429080
 Root    316 :    37.542274459486080
 Root    317 :    37.601111221425700
 Root    318 :    37.720534814123030
 Root    319 :    37.930746283515770
 Root    320 :    37.970515460230100
 Root    321 :    38.022780610949340
 Root    322 :    38.233503043407030
 Root    323 :    38.325502578041600
 Root    324 :    38.785946982359450
 Root    325 :    38.914218788561990
 Root    326 :    38.950183384115100
 Root    327 :    39.137567399191330
 Root    328 :    39.195093314618970
 Root    329 :    39.236260105378020
 Root    330 :    39.286954786815020
 Root    331 :    39.323425677766940
 Root    332 :    39.538282950693710
 Root    333 :    39.550623783398070
 Root    334 :    39.600180876470920
 Root    335 :    39.677215857578440
 Root    336 :    39.935521234599270
 Root    337 :    40.048703869589990
 Root    338 :    40.107802379199140
 Root    339 :    40.369395543579460
 Root    340 :    40.528396063280960
 Root    341 :    40.741939162792460
 Root    342 :    40.879306434035480
 Root    343 :    40.950097669575430
 Root    344 :    41.030627705138310
 Root    345 :    41.067195616539730
 Root    346 :    41.250626475311350
 Root    347 :    41.288886303751460
 Root    348 :    41.546419439971180
 Root    349 :    41.575826899383660
 Root    350 :    41.590061764064490
 Root    351 :    41.607822100781630
 Root    352 :    41.872128290261980
 Root    353 :    41.879468263728790
 Root    354 :    42.015742387689550
 Root    355 :    42.625027269839960
 Root    356 :    42.637946867227530
 Root    357 :    42.671922504161470
 Root    358 :    42.711737280865890
 Root    359 :    42.960563906007120
 Root    360 :    43.084358197681840
 Root    361 :    43.178565233911150
 Root    362 :    43.199924921403510
 Root    363 :    43.230614083649490
 Root    364 :    43.385154195679760
 Root    365 :    43.526816392055050
 Root    366 :    44.055690482497330
 Root    367 :    44.071211854601970
 Root    368 :    44.237376089869630
 Root    369 :    44.335571128042460
 Root    370 :    44.421227307649900
 Root    371 :    44.505812892874420
 Root    372 :    44.532782186801240
 Root    373 :    44.607696016153370
 Root    374 :    44.663358801375080
 Root    375 :    44.803373850833100
 Root    376 :    45.077598864608530
 Root    377 :    45.109030411405800
 Root    378 :    45.226263595329210
 Root    379 :    45.385240707634470
 Root    380 :    45.759969660430540
 Root    381 :    45.852305137970030
 Root    382 :    45.908179930832270
 Root    383 :    45.915607498928590
 Root    384 :    46.113747397691700
 Root    385 :    46.468364245090090
 Root    386 :    46.605752250825940
 Root    387 :    46.734714754951350
 Root    388 :    46.808221134188100
 Root    389 :    46.874243750648870
 Root    390 :    47.244741431276400
 Root    391 :    47.631514635012420
 Root    392 :    47.800838406735270
 Root    393 :    47.978588734135770
 Root    394 :    48.214395979079490
 Root    395 :    48.297008289440890
 Root    396 :    48.392734779503020
 Root    397 :    48.498025479662950
 Root    398 :    48.519334874851670
 Root    399 :    48.680127635626100
 Root    400 :    49.150058113667260
 Root    401 :    49.166505479706810
 Root    402 :    49.354747633119180
 Root    403 :    49.710332445725140
 Root    404 :    49.773920220224750
 Root    405 :    49.957657519404830
 Root    406 :    50.065255093109310
 Root    407 :    50.068704428068270
 Root    408 :    50.100955586477270
 Root    409 :    50.250652842998160
 Root    410 :    50.444315995531110
 Root    411 :    50.445218552846140
 Root    412 :    50.704196402457600
 Root    413 :    50.807887037809920
 Root    414 :    50.935469547258630
 Root    415 :    51.304168324154250
 Root    416 :    51.326383132639470
 Root    417 :    51.638840541998920
 Root    418 :    51.715262530452820
 Root    419 :    51.723561152653390
 Root    420 :    52.048146874649530
 Root    421 :    52.419642509777220
 Root    422 :    52.771175499173530
 Root    423 :    53.138793085100540
 Root    424 :    53.239421011535660
 Root    425 :    53.396080877058660
 Root    426 :    53.650047665755740
 Root    427 :    53.742858469182310
 Root    428 :    53.795643298801670
 Root    429 :    54.072656417373030
 Root    430 :    54.089046109752310
 Root    431 :    54.203721334197450
 Root    432 :    54.465853967952460
 Root    433 :    54.485048928859410
 Root    434 :    54.646168860827840
 Root    435 :    55.075980150748440
 Root    436 :    55.165325390190990
 Root    437 :    55.304369313014830
 Root    438 :    55.336791940875410
 Root    439 :    55.354521861890530
 Root    440 :    55.704749676660060
 Root    441 :    55.787130043874680
 Root    442 :    55.963619817018490
 Root    443 :    55.981174543834170
 Root    444 :    56.168086316789900
 Root    445 :    56.342856692282550
 Root    446 :    56.490237354527690
 Root    447 :    56.490304541068580
 Root    448 :    56.658113162455550
 Root    449 :    56.910945822265400
 Root    450 :    57.077359735280390
 Root    451 :    57.154477870326620
 Root    452 :    57.312246016719300
 Root    453 :    57.737326375746020
 Root    454 :    57.948462770375110
 Root    455 :    58.049855043514820
 Root    456 :    58.162403074741840
 Root    457 :    58.874135748714070
 Root    458 :    59.127444106713260
 Root    459 :    59.302120418731770
 Root    460 :    59.327466915141210
 Root    461 :    59.336726434334940
 Root    462 :    59.465395146860940
 Root    463 :    59.706418923913200
 Root    464 :    59.987045297260450
 Root    465 :    60.148649267471370
 Root    466 :    60.239867837790330
 Root    467 :    60.273562739123800
 Root    468 :    60.511591784505960
 Root    469 :    60.546780831635440
 Root    470 :    60.764739969302580
 Root    471 :    61.121751862061290
 Root    472 :    61.239776544213750
 Root    473 :    61.245951681457540
 Root    474 :    61.470434418748070
 Root    475 :    61.557775311135220
 Root    476 :    61.608731955798620
 Root    477 :    61.610499254836830
 Root    478 :    61.769453958240790
 Root    479 :    61.784232490977410
 Root    480 :    61.831600995787130
 Root    481 :    62.009173027180700
 Root    482 :    62.436808236587770
 Root    483 :    62.620844602071900
 Root    484 :    62.683930966622670
 Root    485 :    62.910552755557230
 Root    486 :    63.056984454931130
 Root    487 :    63.187341732833150
 Root    488 :    63.291680876349030
 Root    489 :    63.323551401605130
 Root    490 :    63.583819559642740
 Root    491 :    63.836985607214010
 Root    492 :    63.871493236161950
 Root    493 :    64.747819122787500
 Root    494 :    64.939068479195970
 Root    495 :    65.218885563204340
 Root    496 :    65.480578980460320
 Root    497 :    65.549265883803030
 Root    498 :    65.582317699779220
 Root    499 :    65.674452410109780
 Root    500 :    65.814001891741530
 Root    501 :    65.835529444140550
 Root    502 :    66.000461407212510
 Root    503 :    66.144312254408260
 Root    504 :    66.176068751349690
 Root    505 :    66.397012864379150
 Root    506 :    66.570722145401040
 Root    507 :    66.737646668132070
 Root    508 :    67.094571758091870
 Root    509 :    67.220939758173200
 Root    510 :    67.462012548939610
 Root    511 :    67.588724838479580
 Root    512 :    67.821804678413410
 Root    513 :    67.836852863965800
 Root    514 :    68.173023008290030
 Root    515 :    68.377805216363750
 Root    516 :    68.423581081049550
 Root    517 :    68.642813960366620
 Root    518 :    68.861295792699110
 Root    519 :    68.919898271486930
 Root    520 :    69.091084021741550
 Root    521 :    69.361277294570070
 Root    522 :    69.376568627307250
 Root    523 :    69.747516410773140
 Root    524 :    70.002653460658780
 Root    525 :    70.328742631248600
 Root    526 :    70.604544874025280
 Root    527 :    70.650477626699670
 Root    528 :    70.729777949342430
 Root    529 :    70.856280405709440
 Root    530 :    71.206585392974690
 Root    531 :    71.489114778684950
 Root    532 :    71.864672584143480
 Root    533 :    71.979508216053500
 Root    534 :    72.262547823672920
 Root    535 :    72.376622235311160
 Root    536 :    72.573577109206300
 Root    537 :    72.697541150970070
 Root    538 :    72.718250409141350
 Root    539 :    73.058585564121330
 Root    540 :    73.353010057886320
 Root    541 :    73.870393505688910
 Root    542 :    74.046369243155080
 Root    543 :    74.072165126143760
 Root    544 :    74.231295177466580
 Root    545 :    74.350996614864830
 Root    546 :    74.557356747994770
 Root    547 :    74.776691282965270
 Root    548 :    75.047297655157760
 Root    549 :    75.102093001580060
 Root    550 :    75.235302704908620
 Root    551 :    75.363348373648350
 Root    552 :    75.821870536129110
 Root    553 :    75.926439291313240
 Root    554 :    76.102111391867250
 Root    555 :    76.554452162337810
 Root    556 :    76.554972445177280
 Root    557 :    76.655423774944250
 Root    558 :    77.510138111517660
 Root    559 :    77.739185539759700
 Root    560 :    78.137084837101170
 Root    561 :    78.145375876107540
 Root    562 :    78.270247762456590
 Root    563 :    78.664649934472760
 Root    564 :    78.902418581720780
 Root    565 :    79.011074314555900
 Root    566 :    79.022513734158180
 Root    567 :    79.267986221314090
 Root    568 :    79.360562054587520
 Root    569 :    79.395025311566120
 Root    570 :    79.448039677991160
 Root    571 :    79.661353079679880
 Root    572 :    79.926304690572380
 Root    573 :    80.387533015927890
 Root    574 :    80.488138229663620
 Root    575 :    80.995765649877820
 Root    576 :    81.371019197999790
 Root    577 :    81.435499843693020
 Root    578 :    81.787332350361450
 Root    579 :    82.018093877104040
 Root    580 :    82.540433173295440
 Root    581 :    83.523037864178850
 Root    582 :    83.608685479162400
 Root    583 :    83.903180973491910
 Root    584 :    83.937662387110860
 Root    585 :    84.201770181355470
 Root    586 :    84.694400521924310
 Root    587 :    85.190078094849540
 Root    588 :    85.245577847905150
 Root    589 :    86.127555024728390
 Root    590 :    86.334819383735360
 Root    591 :    86.366250144709550
 Root    592 :    86.545346756961420
 Root    593 :    86.936427310660630
 Root    594 :    87.274696803430200
 Root    595 :    87.825575572205210
 Root    596 :    88.144837097280490
 Root    597 :    88.225448481712950
 Root    598 :    88.497747260024990
 Root    599 :    88.841579348699400
 Root    600 :    89.096053942087650
 Root    601 :    89.190755754366360
 Root    602 :    89.829806239077430
 Root    603 :    90.539820467702880
 Root    604 :    90.664111588763750
 Root    605 :    90.789259679484690
 Root    606 :    91.009366905629520
 Root    607 :    91.436660871117770
 Root    608 :    91.642472394521900
 Root    609 :    91.768993950781550
 Root    610 :    91.980738453602060
 Root    611 :    92.558053118561600
 Root    612 :    92.597325581539040
 Root    613 :    92.783893459375510
 Root    614 :    93.049074303080700
 Root    615 :    93.058442135082100
 Root    616 :    93.253898406546180
 Root    617 :    93.451069496435890
 Root    618 :    93.599012258185750
 Root    619 :    93.796792668821130
 Root    620 :    94.375760546827580
 Root    621 :    94.395114677202070
 Root    622 :    94.752227777990740
 Root    623 :    95.013107498692210
 Root    624 :    95.283744990324910
 Root    625 :    96.210279832731300
 Root    626 :    96.394524575361070
 Root    627 :    96.538538394104210
 Root    628 :    96.587256523853580
 Root    629 :    96.623948943230060
 Root    630 :    97.329188825399240
 Root    631 :    97.729992644716520
 Root    632 :    97.941033254345630
 Root    633 :    98.266285165822240
 Root    634 :    98.705587899670580
 Root    635 :    98.768258574430390
 Root    636 :    99.515448307842060
 Root    637 :    99.569881562641950
 Root    638 :   100.475067172561400
 Root    639 :   101.780564513394500
 Root    640 :   101.882943941287800
 Root    641 :   103.004306288897800
 Root    642 :   103.629941148378100
 Root    643 :   103.792565440272700
 Root    644 :   104.346541515501400
 Root    645 :   104.921913112714700
 Root    646 :   105.422237803530400
 Root    647 :   105.601866529788900
 Root    648 :   106.445186433161000
 Root    649 :   106.939217799456400
 Root    650 :   107.253722481301100
 Root    651 :   108.212787433413700
 Root    652 :   109.254736678162600
 Root    653 :   109.327635092768700
 Root    654 :   109.478971065041200
 Root    655 :   110.292164495522100
 Root    656 :   110.603817224952300
 Root    657 :   110.751520889576400
 Root    658 :   111.712476458794100
 Root    659 :   112.557084523132900
 Root    660 :   113.775574215109800
 Root    661 :   113.837405625676800
 Root    662 :   114.874145341257200
 Root    663 :   114.992710880003300
 Root    664 :   115.942270735934000
 Root    665 :   116.302141493277500
 Root    666 :   118.085538244456800
 Root    667 :   119.181210816400900
 Root    668 :   120.101246656492700
 Root    669 :   122.113001133462500
 Root    670 :   122.247059502056300
 Root    671 :   122.609489480334900
 Root    672 :   124.507634437427400
 Root    673 :   128.098177565205700
 Root    674 :   130.831806602324100
 Root    675 :   136.221095063260700
 Convergence achieved for final wavefunctions.
 ***********************************************************************
 Excited states from <AA,BB:AA,BB> singles matrix:
 ***********************************************************************
 
 1PDM for each excited state written to RWF  633
 Ground to excited state transition densities written to RWF  633
 Ground to excited state transition electric dipole moments (Au):
       state          X           Y           Z        Dip. S.      Osc.
         1         0.0000     -0.0000     -0.0836      0.0070      0.0010
         2         1.0363     -0.1050     -0.0000      1.0850      0.1868
         3         0.0000     -0.0000     -0.0892      0.0080      0.0015
         4        -0.3412     -0.0379      0.0000      0.1178      0.0230
         5        -0.0000      0.0000      0.3274      0.1072      0.0222
         6         0.2642     -0.2347     -0.0000      0.1248      0.0276
         7        -0.0000     -0.0000     -0.1651      0.0273      0.0062
         8        -0.0000      0.0000     -0.1296      0.0168      0.0040
         9        -0.0000     -0.0000     -0.2485      0.0618      0.0148
        10         0.6021      0.3392     -0.0000      0.4776      0.1144
        11         0.1638     -0.6423     -0.0000      0.4394      0.1101
        12        -0.3915      0.4562      0.0000      0.3613      0.0923
        13         0.0000      0.0000      0.2150      0.0462      0.0120
        14         0.0000      0.0000     -0.4148      0.1720      0.0448
        15        -0.0000      0.0000     -0.0968      0.0094      0.0025
        16        -0.4001      0.4495      0.0000      0.3621      0.0963
        17         0.1455      0.0197     -0.0000      0.0216      0.0059
        18        -0.0000     -0.0000     -0.0606      0.0037      0.0010
        19        -0.2618      0.1405      0.0000      0.0883      0.0242
        20         0.0000     -0.0000      0.0942      0.0089      0.0025
        21         0.0000      0.0000     -0.3055      0.0933      0.0268
        22         0.6770      0.0644      0.0000      0.4625      0.1358
        23        -0.6328      0.0468     -0.0000      0.4027      0.1189
        24         0.0057     -0.6290      0.0000      0.3957      0.1206
        25         0.3949      0.2807      0.0000      0.2347      0.0729
        26         0.0000      0.0000     -0.2673      0.0714      0.0223
        27        -0.0000      0.0000      0.0034      0.0000      0.0000
        28        -0.0000     -0.0000     -0.2531      0.0641      0.0204
        29        -0.7083     -0.0753     -0.0000      0.5073      0.1623
        30         0.0000      0.0000     -0.2567      0.0659      0.0211
        31         0.0084     -0.2758      0.0000      0.0762      0.0248
        32         0.0000      0.0000     -0.4507      0.2031      0.0662
        33        -0.0000      0.0000      0.2619      0.0686      0.0226
        34        -0.2783      0.0428      0.0000      0.0793      0.0263
        35        -0.0000      0.0000     -0.0439      0.0019      0.0006
        36        -0.1139     -0.2023     -0.0000      0.0539      0.0181
        37        -0.0358     -0.1085      0.0000      0.0131      0.0045
        38         0.0000      0.0000      0.1550      0.0240      0.0083
        39        -0.0999      0.0410      0.0000      0.0117      0.0040
        40        -0.0000     -0.0000     -0.0790      0.0062      0.0022
        41        -0.0555      0.2771      0.0000      0.0798      0.0278
        42         0.1600      0.0704      0.0000      0.0305      0.0108
        43         0.0000      0.0000      0.0596      0.0036      0.0013
        44         0.0499      0.1578     -0.0000      0.0274      0.0098
        45        -0.0252     -0.2259     -0.0000      0.0517      0.0187
        46         0.0000      0.0000      0.3469      0.1204      0.0440
        47         0.3466     -0.4040      0.0000      0.2833      0.1038
        48        -0.4169     -0.6175      0.0000      0.5551      0.2043
        49        -0.0000     -0.0000     -0.0362      0.0013      0.0005
        50        -0.3902      0.0272      0.0000      0.1530      0.0574
        51        -0.0000     -0.0000      0.0336      0.0011      0.0004
        52         0.2866      0.0657     -0.0000      0.0865      0.0326
        53        -0.7432     -0.0668     -0.0000      0.5568      0.2117
        54         0.0000      0.0000     -0.2808      0.0788      0.0300
        55         0.0000      0.0000      0.1914      0.0366      0.0140
        56         0.0000      0.0000      0.1307      0.0171      0.0066
        57        -0.0000      0.0000     -0.4440      0.1971      0.0764
        58         0.2626     -0.1971     -0.0000      0.1078      0.0419
        59         0.2469      0.3243      0.0000      0.1661      0.0651
        60        -0.4552     -0.1660      0.0000      0.2348      0.0929
        61        -0.0000     -0.0000     -0.4443      0.1974      0.0782
        62        -0.2975      0.1329      0.0000      0.1062      0.0423
        63        -0.2468      0.1717      0.0000      0.0904      0.0365
        64        -0.0000      0.0000     -0.7775      0.6046      0.2443
        65         0.3119     -0.3908      0.0000      0.2500      0.1016
        66         0.4062     -0.2419     -0.0000      0.2235      0.0910
        67         0.0000     -0.0000      0.0061      0.0000      0.0000
[...]
     13   0.000000D+00 -0.142218D+00  0.000000D+00 -0.470043D-01 -0.940869D-01
     14   0.000000D+00  0.788258D+00  0.000000D+00 -0.322417D+00  0.315652D+00
     15   0.803474D-01  0.000000D+00 -0.362524D+00  0.000000D+00  0.000000D+00
     16  -0.304631D-01  0.000000D+00  0.197759D-01  0.000000D+00  0.000000D+00
               606           607           608           609           610 
      1  -0.166297D+03 -0.166281D+03 -0.166273D+03 -0.166269D+03 -0.166261D+03
      2   0.251593D-01 -0.217180D-01 -0.171109D-01  0.000000D+00  0.000000D+00
      3   0.451448D-01  0.546098D-01 -0.728265D-01  0.000000D+00  0.000000D+00
      4   0.000000D+00  0.000000D+00  0.000000D+00  0.916424D-01 -0.912261D-01
      5  -0.765666D-01  0.506033D-01  0.610504D-01  0.000000D+00  0.000000D+00
      6  -0.136616D+00 -0.160864D+00  0.205828D+00  0.000000D+00  0.000000D+00
      7   0.000000D+00  0.000000D+00  0.000000D+00 -0.275683D+00  0.255889D+00
      8   0.000000D+00  0.000000D+00  0.000000D+00  0.188466D+00  0.154609D+00
      9   0.000000D+00  0.000000D+00  0.000000D+00 -0.250737D+00  0.450688D+00
     10   0.301502D+00 -0.229531D+00 -0.764907D+00  0.000000D+00  0.000000D+00
     11  -0.985402D+00 -0.111411D+01 -0.100658D+01  0.000000D+00  0.000000D+00
     12  -0.328991D+00 -0.683816D+00 -0.510505D+00  0.000000D+00  0.000000D+00
     13   0.656783D-01 -0.164460D-01  0.289755D-01  0.000000D+00  0.000000D+00
     14   0.605193D-01 -0.698676D+00 -0.862119D+00  0.000000D+00  0.000000D+00
     15   0.000000D+00  0.000000D+00  0.000000D+00  0.702644D-01 -0.644046D+00
     16   0.000000D+00  0.000000D+00  0.000000D+00  0.338648D+00  0.256741D+00
               611           612           613           614           615 
      1  -0.166240D+03 -0.166238D+03 -0.166231D+03 -0.166222D+03 -0.166221D+03
      2   0.000000D+00 -0.130087D+00 -0.719232D-01  0.000000D+00 -0.436419D-01
      3   0.000000D+00 -0.589854D-01 -0.811989D-01  0.000000D+00 -0.133927D+00
      4   0.732104D-01  0.000000D+00  0.000000D+00 -0.655038D-01  0.000000D+00
      5   0.000000D+00  0.423646D+00  0.222042D+00  0.000000D+00  0.115152D+00
      6   0.000000D+00  0.182147D+00  0.253002D+00  0.000000D+00  0.401024D+00
      7  -0.226848D+00  0.000000D+00  0.000000D+00  0.190325D+00  0.000000D+00
      8  -0.842920D-01  0.000000D+00  0.000000D+00 -0.346763D+00  0.000000D+00
      9  -0.209306D+00  0.000000D+00  0.000000D+00  0.478665D+00  0.000000D+00
     10   0.000000D+00 -0.562487D+00  0.204059D+00  0.000000D+00  0.633707D-01
     11   0.000000D+00 -0.109503D+01 -0.170586D+01  0.000000D+00  0.231697D+00
     12   0.000000D+00 -0.395845D+00  0.728805D-01  0.000000D+00 -0.515390D+00
     13   0.000000D+00 -0.293694D-01 -0.173153D+00  0.000000D+00  0.414418D-01
     14   0.000000D+00 -0.139940D+00 -0.961309D+00  0.000000D+00  0.546662D+00
     15   0.211850D-01  0.000000D+00  0.000000D+00 -0.338137D+00  0.000000D+00
     16  -0.107253D+00  0.000000D+00  0.000000D+00 -0.650939D+00  0.000000D+00
               616           617           618           619           620 
      1  -0.166214D+03 -0.166207D+03 -0.166201D+03 -0.166194D+03 -0.166173D+03
      2   0.000000D+00 -0.146398D+00 -0.110486D-01  0.000000D+00 -0.881748D-01
      3   0.000000D+00  0.251503D+00 -0.116921D+00  0.000000D+00 -0.950695D-01
      4  -0.105239D+00  0.000000D+00  0.000000D+00  0.400884D-01  0.000000D+00
      5   0.000000D+00  0.462625D+00  0.712765D-01  0.000000D+00  0.274904D+00
      6   0.000000D+00 -0.766634D+00  0.358327D+00  0.000000D+00  0.297302D+00
      7   0.292825D+00  0.000000D+00  0.000000D+00 -0.125185D+00  0.000000D+00
      8   0.646402D-02  0.000000D+00  0.000000D+00  0.921079D-01  0.000000D+00
      9   0.294444D+00  0.000000D+00  0.000000D+00 -0.617501D-01  0.000000D+00
     10   0.000000D+00  0.134284D+01 -0.282808D+00  0.000000D+00 -0.652712D+00
     11   0.000000D+00 -0.130796D+01  0.237386D+00  0.000000D+00 -0.953437D+00
     12   0.000000D+00  0.126421D+01 -0.234280D+00  0.000000D+00 -0.734816D+00
     13   0.000000D+00 -0.520006D-01  0.429666D+00  0.000000D+00 -0.876616D-01
     14   0.000000D+00  0.106135D+01 -0.543493D-01  0.000000D+00 -0.129596D+01
     15  -0.948939D-01  0.000000D+00  0.000000D+00  0.456196D-01  0.000000D+00
     16   0.960262D-01  0.000000D+00  0.000000D+00  0.152852D+00  0.000000D+00
               621           622           623           624           625 
      1  -0.166172D+03 -0.166159D+03 -0.166150D+03 -0.166140D+03 -0.166106D+03
      2   0.000000D+00  0.000000D+00  0.699316D-01  0.000000D+00  0.123931D+00
      3   0.000000D+00  0.000000D+00  0.694235D-01  0.000000D+00 -0.334493D-01
      4  -0.139257D+00  0.939617D-01  0.000000D+00 -0.471778D-01  0.000000D+00
      5   0.000000D+00  0.000000D+00 -0.213509D+00  0.000000D+00 -0.406833D+00
      6   0.000000D+00  0.000000D+00 -0.222777D+00  0.000000D+00  0.112142D+00
      7   0.403451D+00 -0.274463D+00  0.000000D+00  0.137134D+00  0.000000D+00
      8  -0.402045D+00 -0.340003D-01  0.000000D+00  0.925304D-01  0.000000D+00
      9   0.100970D+01 -0.324020D+00  0.000000D+00  0.830906D-01  0.000000D+00
     10   0.000000D+00  0.000000D+00  0.346604D+00  0.000000D+00 -0.133954D+00
     11   0.000000D+00  0.000000D+00 -0.319145D-01  0.000000D+00  0.116954D+01
     12   0.000000D+00  0.000000D+00  0.418563D+00  0.000000D+00  0.800157D-01
     13   0.000000D+00  0.000000D+00  0.538686D-01  0.000000D+00 -0.206160D-01
     14   0.000000D+00  0.000000D+00  0.587252D+00  0.000000D+00  0.190933D+00
     15  -0.105222D+01  0.191277D+00  0.000000D+00 -0.953164D-01  0.000000D+00
     16  -0.615481D+00 -0.530495D-01  0.000000D+00  0.839406D-01  0.000000D+00
               626           627           628           629           630 
      1  -0.166099D+03 -0.166093D+03 -0.166092D+03 -0.166090D+03 -0.166064D+03
      2   0.000000D+00 -0.307356D-01 -0.672055D-02  0.000000D+00  0.000000D+00
      3   0.000000D+00  0.230095D-01  0.656759D-01  0.000000D+00  0.000000D+00
      4   0.174222D+00  0.000000D+00  0.000000D+00 -0.694334D-01  0.317137D-01
      5   0.000000D+00  0.964866D-01  0.197071D-01  0.000000D+00  0.000000D+00
      6   0.000000D+00 -0.502893D-01 -0.172566D+00  0.000000D+00  0.000000D+00
      7  -0.532677D+00  0.000000D+00  0.000000D+00  0.203334D+00 -0.937328D-01
      8   0.884133D-01  0.000000D+00  0.000000D+00 -0.576554D+00  0.217849D+00
      9  -0.777325D+00  0.000000D+00  0.000000D+00  0.702743D+00 -0.439530D+00
     10   0.000000D+00  0.513536D+00  0.106270D+00  0.000000D+00  0.000000D+00
     11   0.000000D+00 -0.105720D+01 -0.107690D+01  0.000000D+00  0.000000D+00
     12   0.000000D+00  0.154427D+00  0.780883D-01  0.000000D+00  0.000000D+00
     13   0.000000D+00 -0.467082D-01 -0.369476D-01  0.000000D+00  0.000000D+00
     14   0.000000D+00  0.880375D-02 -0.458729D-01  0.000000D+00  0.000000D+00
     15   0.767039D+00  0.000000D+00  0.000000D+00 -0.597653D+00  0.505183D+00
     16   0.137446D+00  0.000000D+00  0.000000D+00 -0.920690D+00  0.385267D+00
               631           632           633           634           635 
      1  -0.166050D+03 -0.166042D+03 -0.166030D+03 -0.166014D+03 -0.166012D+03
      2   0.960155D-02  0.752371D-01  0.138648D+00  0.000000D+00  0.382530D-01
      3   0.178261D-01  0.501981D-01 -0.949607D-01  0.000000D+00 -0.844267D-01
      4   0.000000D+00  0.000000D+00  0.000000D+00  0.112535D+00  0.000000D+00
      5  -0.265932D-01 -0.232794D+00 -0.448864D+00  0.000000D+00 -0.108927D+00
      6  -0.636989D-01 -0.165867D+00  0.286661D+00  0.000000D+00  0.259185D+00
      7   0.000000D+00  0.000000D+00  0.000000D+00 -0.347229D+00  0.000000D+00
      8   0.000000D+00  0.000000D+00  0.000000D+00  0.358064D+00  0.000000D+00
      9   0.000000D+00  0.000000D+00  0.000000D+00 -0.759527D+00  0.000000D+00
     10  -0.134234D-01  0.122748D+00 -0.166141D+00  0.000000D+00  0.168277D-01
     11  -0.364934D-01  0.539548D-01  0.521977D+00  0.000000D+00 -0.764186D+00
     12   0.523576D-01  0.212691D+00  0.531446D+00  0.000000D+00 -0.367663D-01
     13  -0.670747D-01  0.106878D+00 -0.141054D+00  0.000000D+00 -0.121020D+00
     14   0.204374D+00  0.661442D-01 -0.469348D+00  0.000000D+00 -0.244906D+00
     15   0.000000D+00  0.000000D+00  0.000000D+00  0.811552D+00  0.000000D+00
     16   0.000000D+00  0.000000D+00  0.000000D+00  0.496847D+00  0.000000D+00
               636           637           638           639           640 
      1  -0.165984D+03 -0.165982D+03 -0.165949D+03 -0.165901D+03 -0.165897D+03
      2  -0.229567D-01  0.000000D+00  0.540848D-01  0.429123D-04  0.000000D+00
      3   0.460228D-01  0.000000D+00 -0.484519D-01 -0.328411D-01  0.000000D+00
      4   0.000000D+00  0.423475D-01  0.000000D+00  0.000000D+00  0.279156D-01
      5   0.733205D-01  0.000000D+00 -0.183811D+00  0.453778D-02  0.000000D+00
      6  -0.148918D+00  0.000000D+00  0.152023D+00  0.106978D+00  0.000000D+00
      7   0.000000D+00 -0.134041D+00  0.000000D+00  0.000000D+00 -0.831724D-01
      8   0.000000D+00  0.520320D-01  0.000000D+00  0.000000D+00  0.716238D-01
      9   0.000000D+00 -0.286450D+00  0.000000D+00  0.000000D+00 -0.148050D+00
     10   0.930623D-01  0.000000D+00 -0.483932D+00 -0.942911D-01  0.000000D+00
     11  -0.395273D+00  0.000000D+00  0.567934D+00 -0.980171D+00  0.000000D+00
     12   0.171720D+00  0.000000D+00 -0.161871D+01 -0.824224D+00  0.000000D+00
     13   0.122002D+00  0.000000D+00  0.110291D+00  0.232315D+00  0.000000D+00
     14   0.139590D+00  0.000000D+00 -0.705815D+00  0.690639D-01  0.000000D+00
     15   0.000000D+00  0.393980D+00  0.000000D+00  0.000000D+00  0.196196D+00
     16   0.000000D+00  0.304479D+00  0.000000D+00  0.000000D+00 -0.201567D+00
               641           642           643           644           645 
      1  -0.165856D+03 -0.165833D+03 -0.165827D+03 -0.165807D+03 -0.165785D+03
      2  -0.756388D-01  0.000000D+00  0.000000D+00  0.533797D-01  0.000000D+00
      3  -0.799328D-01  0.000000D+00  0.000000D+00  0.710544D-01  0.000000D+00
      4   0.000000D+00 -0.132921D-01 -0.177650D-01  0.000000D+00 -0.281242D-01
      5   0.239435D+00  0.000000D+00  0.000000D+00 -0.205000D+00  0.000000D+00
      6   0.266213D+00  0.000000D+00  0.000000D+00 -0.247713D+00  0.000000D+00
      7   0.000000D+00  0.213217D-01  0.529033D-01  0.000000D+00  0.843856D-01
      8   0.000000D+00  0.968699D-01  0.112824D+00  0.000000D+00 -0.236503D-01
      9   0.000000D+00 -0.530397D-01 -0.755339D-01  0.000000D+00  0.970212D-01
     10   0.281539D+00  0.000000D+00  0.000000D+00  0.262952D+00  0.000000D+00
     11   0.102620D+00  0.000000D+00  0.000000D+00 -0.198851D+00  0.000000D+00
     12   0.367069D-01  0.000000D+00  0.000000D+00  0.745990D+00  0.000000D+00
     13  -0.106123D+00  0.000000D+00  0.000000D+00 -0.151553D+00  0.000000D+00
     14   0.828834D-01  0.000000D+00  0.000000D+00  0.533055D+00  0.000000D+00
     15   0.000000D+00 -0.393702D-01  0.626075D-01  0.000000D+00 -0.269376D+00
     16   0.000000D+00  0.144095D+00 -0.629889D-02  0.000000D+00  0.335611D-01
               646           647           648           649           650 
      1  -0.165767D+03 -0.165760D+03 -0.165729D+03 -0.165711D+03 -0.165700D+03
      2   0.340121D-01 -0.106115D-01 -0.775377D-01  0.000000D+00 -0.684320D-02
      3  -0.475209D-01 -0.447914D-01 -0.521016D-01  0.000000D+00  0.870582D-01
      4   0.000000D+00  0.000000D+00  0.000000D+00  0.241394D+00  0.000000D+00
      5  -0.109915D+00  0.440501D-01  0.279481D+00  0.000000D+00  0.188473D-01
      6   0.159080D+00  0.176252D+00  0.206731D+00  0.000000D+00 -0.322150D+00
      7   0.000000D+00  0.000000D+00  0.000000D+00 -0.839048D+00  0.000000D+00
      8   0.000000D+00  0.000000D+00  0.000000D+00  0.374808D+00  0.000000D+00
      9   0.000000D+00  0.000000D+00  0.000000D+00 -0.146705D+01  0.000000D+00
     10  -0.640796D-01 -0.106088D+01 -0.700979D+00  0.000000D+00 -0.130190D+00
     11   0.375008D-01  0.314762D+00 -0.130341D+00  0.000000D+00  0.960751D+00
     12   0.101690D+00 -0.591075D+00 -0.273387D+00  0.000000D+00  0.133961D+00
     13  -0.200546D+00  0.138373D+00  0.417106D-01  0.000000D+00 -0.265409D-01
     14   0.867638D-01 -0.593965D+00 -0.798772D-01  0.000000D+00  0.321606D+00
     15   0.000000D+00  0.000000D+00  0.000000D+00  0.139597D+01  0.000000D+00
     16   0.000000D+00  0.000000D+00  0.000000D+00  0.507675D+00  0.000000D+00
               651           652           653           654           655 
      1  -0.165664D+03 -0.165626D+03 -0.165623D+03 -0.165618D+03 -0.165588D+03
      2   0.228618D-02 -0.330985D-01  0.000000D+00 -0.156907D-01  0.000000D+00
      3  -0.142239D-01  0.350783D-01  0.000000D+00  0.109013D-02  0.000000D+00
      4   0.000000D+00  0.000000D+00 -0.230225D-01  0.000000D+00  0.645234D-01
      5   0.167755D-01  0.106295D+00  0.000000D+00  0.509036D-01  0.000000D+00
      6   0.302121D-01 -0.130583D+00  0.000000D+00  0.685083D-02  0.000000D+00
      7   0.000000D+00  0.000000D+00  0.831582D-01  0.000000D+00 -0.229134D+00
      8   0.000000D+00  0.000000D+00 -0.624065D-01  0.000000D+00  0.201523D+00
      9   0.000000D+00  0.000000D+00  0.176319D+00  0.000000D+00 -0.490252D+00
     10   0.275274D+00  0.416539D+00  0.000000D+00  0.145645D+00  0.000000D+00
     11  -0.142784D+00  0.140693D+00  0.000000D+00 -0.334923D+00  0.000000D+00
     12  -0.396734D-01  0.280359D-01  0.000000D+00  0.187965D+00  0.000000D+00
     13   0.174669D-01  0.146917D+00  0.000000D+00 -0.119641D+00  0.000000D+00
     14   0.519658D+00  0.462406D+00  0.000000D+00 -0.467154D+00  0.000000D+00
     15   0.000000D+00  0.000000D+00 -0.156582D+00  0.000000D+00  0.800069D+00
     16   0.000000D+00  0.000000D+00  0.350067D+00  0.000000D+00  0.332110D+00
               656           657           658           659           660 
      1  -0.165577D+03 -0.165571D+03 -0.165536D+03 -0.165505D+03 -0.165460D+03
      2  -0.963411D-01  0.000000D+00 -0.301693D-01  0.228925D-01  0.000000D+00
      3   0.379034D-01  0.000000D+00 -0.703238D-01 -0.131381D-01  0.000000D+00
      4   0.000000D+00  0.170216D+00  0.000000D+00  0.000000D+00 -0.147414D-01
      5   0.347277D+00  0.000000D+00  0.129192D+00 -0.867071D-01  0.000000D+00
      6  -0.124457D+00  0.000000D+00  0.270077D+00  0.361528D-01  0.000000D+00
      7   0.000000D+00 -0.586534D+00  0.000000D+00  0.000000D+00  0.732843D-01
      8   0.000000D+00  0.609247D+00  0.000000D+00  0.000000D+00 -0.112423D+00
      9   0.000000D+00 -0.131396D+01  0.000000D+00  0.000000D+00  0.233693D+00
     10   0.438491D+00  0.000000D+00 -0.315157D-01  0.464643D-01  0.000000D+00
     11  -0.772527D+00  0.000000D+00 -0.670816D+00  0.132142D+00  0.000000D+00
     12   0.318050D-01  0.000000D+00  0.260994D+00  0.128724D+00  0.000000D+00
     13  -0.215891D+00  0.000000D+00  0.104912D+00  0.481628D-02  0.000000D+00
     14   0.654426D-01  0.000000D+00 -0.399212D+00  0.703577D-01  0.000000D+00
     15   0.000000D+00  0.118846D+01  0.000000D+00  0.000000D+00 -0.389775D-01
     16   0.000000D+00  0.846971D+00  0.000000D+00  0.000000D+00 -0.182803D+00
               661           662           663           664           665 
      1  -0.165458D+03 -0.165420D+03 -0.165415D+03 -0.165380D+03 -0.165367D+03
      2  -0.705456D-01 -0.963317D-01 -0.136272D+00  0.212267D-01  0.778302D-01
      3  -0.174184D-01 -0.377518D-01 -0.133535D-01  0.104553D-01  0.104834D-01
      4   0.000000D+00  0.000000D+00  0.000000D+00  0.000000D+00  0.000000D+00
      5   0.270450D+00  0.387051D+00  0.531954D+00 -0.102951D+00 -0.338515D+00
      6   0.605164D-01  0.126704D+00  0.634865D-01 -0.484738D-01 -0.653404D-01
      7   0.000000D+00  0.000000D+00  0.000000D+00  0.000000D+00  0.000000D+00
      8   0.000000D+00  0.000000D+00  0.000000D+00  0.000000D+00  0.000000D+00
      9   0.000000D+00  0.000000D+00  0.000000D+00  0.000000D+00  0.000000D+00
     10   0.592408D-01  0.121905D+00 -0.538240D-01  0.246478D+00  0.635031D-01
     11  -0.746494D+00 -0.927616D+00 -0.126586D+01  0.786558D+00  0.109695D+01
     12   0.331390D+00  0.585711D-02 -0.290027D+00 -0.840710D-01  0.565084D-01
     13  -0.104793D+00 -0.820941D-01 -0.470585D-02  0.604245D-01 -0.430834D-01
     14  -0.150102D+00 -0.915675D-01 -0.216543D+00  0.187246D+00  0.435311D+00
     15   0.000000D+00  0.000000D+00  0.000000D+00  0.000000D+00  0.000000D+00
     16   0.000000D+00  0.000000D+00  0.000000D+00  0.000000D+00  0.000000D+00
               666           667           668           669           670 
      1  -0.165302D+03 -0.165261D+03 -0.165228D+03 -0.165154D+03 -0.165149D+03
      2   0.000000D+00  0.135279D+00 -0.796396D-01  0.303729D-01  0.239814D-03
      3   0.000000D+00 -0.745901D-01 -0.998688D-01 -0.805710D-01 -0.776574D-01
      4  -0.407838D-01  0.000000D+00  0.000000D+00  0.000000D+00  0.000000D+00
      5   0.000000D+00 -0.526959D+00  0.345568D+00 -0.982189D-01 -0.148393D-02
      6   0.000000D+00  0.293382D+00  0.430468D+00  0.325413D+00  0.316631D+00
      7   0.175627D+00  0.000000D+00  0.000000D+00  0.000000D+00  0.000000D+00
      8   0.682821D-02  0.000000D+00  0.000000D+00  0.000000D+00  0.000000D+00
      9   0.191945D+00  0.000000D+00  0.000000D+00  0.000000D+00  0.000000D+00
     10   0.000000D+00 -0.907708D+00 -0.339047D+00 -0.623099D+00 -0.780966D+00
     11   0.000000D+00  0.200150D+01 -0.151330D+01  0.446281D+00  0.613248D+00
     12   0.000000D+00 -0.586000D+00 -0.148745D+00 -0.197865D+00 -0.338113D+00
     13   0.000000D+00  0.143359D+00 -0.246003D-01 -0.225323D-01  0.396107D-01
     14   0.000000D+00  0.148705D+00 -0.957083D+00 -0.270863D+00 -0.212095D+00
     15   0.130814D-01  0.000000D+00  0.000000D+00  0.000000D+00  0.000000D+00
     16   0.188772D-01  0.000000D+00  0.000000D+00  0.000000D+00  0.000000D+00
               671           672           673           674           675 
      1  -0.165135D+03 -0.165066D+03 -0.164934D+03 -0.164833D+03 -0.164635D+03
      2   0.586479D-02  0.819755D-02 -0.220385D-01  0.173764D-01  0.145537D-01
      3  -0.223262D-01  0.578697D-01  0.166487D-01 -0.325202D-02 -0.216224D-01
      4   0.000000D+00  0.000000D+00  0.000000D+00  0.000000D+00  0.000000D+00
      5  -0.605494D-02 -0.634976D-01  0.145776D+00 -0.727219D-01  0.134111D-01
      6   0.895552D-01 -0.262296D+00 -0.157740D-01  0.918459D-02  0.136487D+00
      7   0.000000D+00  0.000000D+00  0.000000D+00  0.000000D+00  0.000000D+00
      8   0.000000D+00  0.000000D+00  0.000000D+00  0.000000D+00  0.000000D+00
      9   0.000000D+00  0.000000D+00  0.000000D+00  0.000000D+00  0.000000D+00
     10  -0.221792D+00  0.509629D+00  0.162057D+00 -0.780114D-01 -0.216365D+00
     11  -0.291123D+00  0.620056D-01 -0.411711D+00 -0.470810D-02 -0.546249D-01
     12  -0.474200D+00  0.500889D+00  0.129383D+00 -0.449150D+00 -0.151408D+00
     13   0.181032D+00 -0.428194D-01 -0.207324D+00  0.329367D-01  0.872368D-01
     14  -0.335984D+00  0.614980D+00 -0.848528D-01 -0.224304D+00 -0.639673D-01
     15   0.000000D+00  0.000000D+00  0.000000D+00  0.000000D+00  0.000000D+00
     16   0.000000D+00  0.000000D+00  0.000000D+00  0.000000D+00  0.000000D+00
 Unable to Open any file for archive entry.
 1\1\GINC-HEL08\SP\RwB97XD TD-FC\Gen\C1H3N1O1\RR\21-Mar-2022\0\\#P TD(N
 states=10000) wB97XD/Gen SCF(maxcycles=100) Int(Grid=ultrafine)\\xGDB7
 _00001_tier4.com\\0,1\O,0,-1.028621,-0.395177,0.\N,0,0.,0.526228,0.\C,
 0,1.132746,-0.030907,0.\H,0,-1.816572,0.151791,0.\H,0,1.994262,0.62343
 9,0.\H,0,1.254802,-1.111965,0.\\Version=EM64L-G16RevC.01\State=1-A'\HF
 =-169.6411685\RMSD=8.484e-09\PG=CS [SG(C1H3N1O1)]\\@
 The archive entry for this job was punched.


 I am not a vegetarian because I love animals;
 I am a vegetarian because I hate plants.
                               -- A. Whitney Brown
 Job cpu time:       0 days  0 hours  8 minutes 21.0 seconds.
 Elapsed time:       0 days  0 hours  1 minutes  3.0 seconds.
 File lengths (MBytes):  RWF=    584 Int=      0 D2E=      0 Chk=    127 Scr=      1
 Normal termination of Gaussian 16 at Mon Mar 21 15:52:19 2022.
