 Entering Gaussian System, Link 0=g16
 Input=bigQM7w_TDwB97XD_def2SVPD_at_def2TZVP_000033.com
 Output=bigQM7w_TDwB97XD_def2SVPD_at_def2TZVP_000033.log
 Initial command:
 /home/rr/g16/l1.exe "/scratch/rr/PBS_7962957.helios/Gau-141644.inp" -scrdir="/scratch/rr/PBS_7962957.helios/"
 Entering Link 1 = /home/rr/g16/l1.exe PID=    141646.
  
 Copyright (c) 1988-2019, Gaussian, Inc.  All Rights Reserved.
  
 This is part of the Gaussian(R) 16 program.  It is based on
 the Gaussian(R) 09 system (copyright 2009, Gaussian, Inc.),
 the Gaussian(R) 03 system (copyright 2003, Gaussian, Inc.),
 the Gaussian(R) 98 system (copyright 1998, Gaussian, Inc.),
 the Gaussian(R) 94 system (copyright 1995, Gaussian, Inc.),
 the Gaussian 92(TM) system (copyright 1992, Gaussian, Inc.),
 the Gaussian 90(TM) system (copyright 1990, Gaussian, Inc.),
 the Gaussian 88(TM) system (copyright 1988, Gaussian, Inc.),
 the Gaussian 86(TM) system (copyright 1986, Carnegie Mellon
 University), and the Gaussian 82(TM) system (copyright 1983,
 Carnegie Mellon University). Gaussian is a federally registered
 trademark of Gaussian, Inc.
  
 This software contains proprietary and confidential information,
 including trade secrets, belonging to Gaussian, Inc.
  
 This software is provided under written license and may be
 used, copied, transmitted, or stored only in accord with that
 written license.
  
 The following legend is applicable only to US Government
 contracts under FAR:
  
                    RESTRICTED RIGHTS LEGEND
  
 Use, reproduction and disclosure by the US Government is
 subject to restrictions as set forth in subparagraphs (a)
 and (c) of the Commercial Computer Software - Restricted
 Rights clause in FAR 52.227-19.
  
 Gaussian, Inc.
 340 Quinnipiac St., Bldg. 40, Wallingford CT 06492
  
  
 ---------------------------------------------------------------
 Warning -- This program may not be used in any manner that
 competes with the business of Gaussian, Inc. or will provide
 assistance to any competitor of Gaussian, Inc.  The licensee
 of this program is prohibited from giving any competitor of
 Gaussian, Inc. access to this program.  By using this program,
 the user acknowledges that Gaussian, Inc. is engaged in the
 business of creating and licensing software in the field of
 computational chemistry and represents and warrants to the
 licensee that it is not a competitor of Gaussian, Inc. and that
 it will not use this program in any manner prohibited above.
 ---------------------------------------------------------------
  

 Cite this work as:
 Gaussian 16, Revision C.01,
 M. J. Frisch, G. W. Trucks, H. B. Schlegel, G. E. Scuseria, 
 M. A. Robb, J. R. Cheeseman, G. Scalmani, V. Barone, 
 G. A. Petersson, H. Nakatsuji, X. Li, M. Caricato, A. V. Marenich, 
 J. Bloino, B. G. Janesko, R. Gomperts, B. Mennucci, H. P. Hratchian, 
 J. V. Ortiz, A. F. Izmaylov, J. L. Sonnenberg, D. Williams-Young, 
 F. Ding, F. Lipparini, F. Egidi, J. Goings, B. Peng, A. Petrone, 
 T. Henderson, D. Ranasinghe, V. G. Zakrzewski, J. Gao, N. Rega, 
 G. Zheng, W. Liang, M. Hada, M. Ehara, K. Toyota, R. Fukuda, 
 J. Hasegawa, M. Ishida, T. Nakajima, Y. Honda, O. Kitao, H. Nakai, 
 T. Vreven, K. Throssell, J. A. Montgomery, Jr., J. E. Peralta, 
 F. Ogliaro, M. J. Bearpark, J. J. Heyd, E. N. Brothers, K. N. Kudin, 
 V. N. Staroverov, T. A. Keith, R. Kobayashi, J. Normand, 
 K. Raghavachari, A. P. Rendell, J. C. Burant, S. S. Iyengar, 
 J. Tomasi, M. Cossi, J. M. Millam, M. Klene, C. Adamo, R. Cammi, 
 J. W. Ochterski, R. L. Martin, K. Morokuma, O. Farkas, 
 J. B. Foresman, and D. J. Fox, Gaussian, Inc., Wallingford CT, 2019.
 
 ******************************************
 Gaussian 16:  EM64L-G16RevC.01  3-Jul-2019
                21-Mar-2022 
 ******************************************
 %mem=64gb
 %nproc=8
 Will use up to    8 processors via shared memory.
 ----------------------------------------------------------------------
 #P TD(Nstates=10000) wB97XD/Gen SCF(maxcycles=100) Int(Grid=ultrafine)
 ----------------------------------------------------------------------
 1/38=1,172=1/1;
 2/12=2,17=6,18=5,40=1/2;
 3/5=7,11=9,25=1,30=1,74=-58,75=-5/1,2,3,8;
 4//1;
 5/5=2,7=100,38=5/2;
 8/6=1,10=1,108=10000/1;
 9/41=10000,42=1,70=2/14;
 6/7=2,8=2,9=2,10=2/1;
 99/5=1,9=1/99;
 Leave Link    1 at Mon Mar 21 15:53:29 2022, MaxMem=  8589934592 cpu:               0.4 elap:               0.1
 (Enter /home/rr/g16/l101.exe)
 ---------------------
 xGDB7_00001_tier4.com
 ---------------------
 Symbolic Z-matrix:
 Charge =  0 Multiplicity = 1
 6                     0.        0.72955  -0.36736 
 6                     0.       -0.72955  -0.36736 
 8                     0.        0.        0.84503 
 1                    -0.91895   1.26424  -0.58798 
 1                     0.91895   1.26424  -0.58798 
 1                     0.91895  -1.26424  -0.58798 
 1                    -0.91895  -1.26424  -0.58798 
 
 ITRead=  0  0  0  0  0  0  0
 MicOpt= -1 -1 -1 -1 -1 -1 -1
 NAtoms=      7 NQM=        7 NQMF=       0 NMMI=      0 NMMIF=      0
                NMic=       0 NMicF=      0.
                    Isotopes and Nuclear Properties:
 (Nuclear quadrupole moments (NQMom) in fm**2, nuclear magnetic moments (NMagM)
  in nuclear magnetons)

  Atom         1           2           3           4           5           6           7
 IAtWgt=          12          12          16           1           1           1           1
 AtmWgt=  12.0000000  12.0000000  15.9949146   1.0078250   1.0078250   1.0078250   1.0078250
 NucSpn=           0           0           0           1           1           1           1
 AtZEff=  -0.0000000  -0.0000000  -0.0000000  -0.0000000  -0.0000000  -0.0000000  -0.0000000
 NQMom=    0.0000000   0.0000000   0.0000000   0.0000000   0.0000000   0.0000000   0.0000000
 NMagM=    0.0000000   0.0000000   0.0000000   2.7928460   2.7928460   2.7928460   2.7928460
 AtZNuc=   6.0000000   6.0000000   8.0000000   1.0000000   1.0000000   1.0000000   1.0000000
 Leave Link  101 at Mon Mar 21 15:53:29 2022, MaxMem=  8589934592 cpu:               0.8 elap:               0.1
 (Enter /home/rr/g16/l202.exe)
                          Input orientation:                          
 ---------------------------------------------------------------------
 Center     Atomic      Atomic             Coordinates (Angstroms)
 Number     Number       Type             X           Y           Z
 ---------------------------------------------------------------------
      1          6           0        0.000000    0.729549   -0.367364
      2          6           0        0.000000   -0.729549   -0.367364
      3          8           0        0.000000    0.000000    0.845033
      4          1           0       -0.918945    1.264243   -0.587975
      5          1           0        0.918945    1.264243   -0.587975
      6          1           0        0.918945   -1.264243   -0.587975
      7          1           0       -0.918945   -1.264243   -0.587975
 ---------------------------------------------------------------------
                    Distance matrix (angstroms):
                    1          2          3          4          5
     1  C    0.000000
     2  C    1.459098   0.000000
     3  O    1.414973   1.414973   0.000000
     4  H    1.085830   2.206431   2.120444   0.000000
     5  H    1.085830   2.206431   2.120444   1.837890   0.000000
     6  H    2.206431   1.085830   2.120444   3.125873   2.528486
     7  H    2.206431   1.085830   2.120444   2.528486   3.125873
                    6          7
     6  H    0.000000
     7  H    1.837890   0.000000
 Stoichiometry    C2H4O
 Framework group  C2V[C2(O),SGV(C2),X(H4)]
 Deg. of freedom     5
 Full point group                 C2V     NOp   4
 Largest Abelian subgroup         C2V     NOp   4
 Largest concise Abelian subgroup C2V     NOp   4
                         Standard orientation:                         
 ---------------------------------------------------------------------
 Center     Atomic      Atomic             Coordinates (Angstroms)
 Number     Number       Type             X           Y           Z
 ---------------------------------------------------------------------
      1          6           0        0.000000    0.729549   -0.367364
      2          6           0       -0.000000   -0.729549   -0.367364
      3          8           0       -0.000000   -0.000000    0.845033
      4          1           0       -0.918945    1.264243   -0.587975
      5          1           0        0.918945    1.264243   -0.587975
      6          1           0        0.918945   -1.264243   -0.587975
      7          1           0       -0.918945   -1.264243   -0.587975
 ---------------------------------------------------------------------
 Rotational constants (GHZ):          26.1375833          22.3408058          14.3785431
 Leave Link  202 at Mon Mar 21 15:53:29 2022, MaxMem=  8589934592 cpu:               0.1 elap:               0.0
 (Enter /home/rr/g16/l301.exe)
 General basis read from cards:  (5D, 7F)
 Centers:       4      5      6      7
 S 3 1.00
     Exponent=  1.3010701000D+01 Coefficients=  1.9682158000D-02
     Exponent=  1.9622572000D+00 Coefficients=  1.3796524000D-01
     Exponent=  4.4453796000D-01 Coefficients=  4.7831935000D-01
 S 1 1.00
     Exponent=  1.2194962000D-01 Coefficients=  1.0000000000D+00
 P 1 1.00
     Exponent=  8.0000000000D-01 Coefficients=  1.0000000000D+00
 P 1 1.00
     Exponent=  1.1704099050D-01 Coefficients=  1.0000000000D+00
 ****
 Centers:       1      2
 S 5 1.00
     Exponent=  1.2384016938D+03 Coefficients=  5.4568832082D-03
     Exponent=  1.8629004992D+02 Coefficients=  4.0638409211D-02
     Exponent=  4.2251176346D+01 Coefficients=  1.8025593888D-01
     Exponent=  1.1676557932D+01 Coefficients=  4.6315121755D-01
     Exponent=  3.5930506482D+00 Coefficients=  4.4087173314D-01
 S 1 1.00
     Exponent=  4.0245147363D-01 Coefficients=  1.0000000000D+00
 S 1 1.00
     Exponent=  1.3090182668D-01 Coefficients=  1.0000000000D+00
 S 1 1.00
     Exponent=  6.7053540256D-02 Coefficients=  1.0000000000D+00
 P 3 1.00
     Exponent=  9.4680970621D+00 Coefficients=  3.8387871728D-02
     Exponent=  2.0103545142D+00 Coefficients=  2.1117025112D-01
     Exponent=  5.4771004707D-01 Coefficients=  5.1328172114D-01
 P 1 1.00
     Exponent=  1.5268613795D-01 Coefficients=  1.0000000000D+00
 D 1 1.00
     Exponent=  8.0000000000D-01 Coefficients=  1.0000000000D+00
 D 1 1.00
     Exponent=  1.1713185140D-01 Coefficients=  1.0000000000D+00
 ****
 Centers:       3
 S 5 1.00
     Exponent=  2.2661767785D+03 Coefficients= -5.3431809926D-03
     Exponent=  3.4087010191D+02 Coefficients= -3.9890039230D-02
     Exponent=  7.7363135167D+01 Coefficients= -1.7853911985D-01
     Exponent=  2.1479644940D+01 Coefficients= -4.6427684959D-01
     Exponent=  6.6589433124D+00 Coefficients= -4.4309745172D-01
 S 1 1.00
     Exponent=  8.0975975668D-01 Coefficients=  1.0000000000D+00
 S 1 1.00
     Exponent=  2.5530772234D-01 Coefficients=  1.0000000000D+00
 S 1 1.00
     Exponent=  7.6572453250D-02 Coefficients=  1.0000000000D+00
 P 3 1.00
     Exponent=  1.7721504317D+01 Coefficients=  4.3394573193D-02
     Exponent=  3.8635505440D+00 Coefficients=  2.3094120765D-01
     Exponent=  1.0480920883D+00 Coefficients=  5.1375311064D-01
 P 1 1.00
     Exponent=  2.7641544411D-01 Coefficients=  1.0000000000D+00
 P 1 1.00
     Exponent=  6.9002276350D-02 Coefficients=  1.0000000000D+00
 D 1 1.00
     Exponent=  1.2000000000D+00 Coefficients=  1.0000000000D+00
 D 1 1.00
     Exponent=  1.7992024323D-01 Coefficients=  1.0000000000D+00
 ****
 Ernie: Thresh=  0.10000D-02 Tol=  0.10000D-05 Strict=F.
 There are    37 symmetry adapted cartesian basis functions of A1  symmetry.
 There are    16 symmetry adapted cartesian basis functions of A2  symmetry.
 There are    19 symmetry adapted cartesian basis functions of B1  symmetry.
 There are    29 symmetry adapted cartesian basis functions of B2  symmetry.
 There are    33 symmetry adapted basis functions of A1  symmetry.
 There are    16 symmetry adapted basis functions of A2  symmetry.
 There are    19 symmetry adapted basis functions of B1  symmetry.
 There are    27 symmetry adapted basis functions of B2  symmetry.
    95 basis functions,   139 primitive gaussians,   101 cartesian basis functions
    12 alpha electrons       12 beta electrons
       nuclear repulsion energy        75.7300204600 Hartrees.
 IExCor= 4639 DFT=T Ex+Corr=wB97XD ExCW=0 ScaHFX=  1.000000
 ScaDFX=  1.000000  1.000000  1.000000  1.000000 ScalE2=  1.000000  1.000000
 IRadAn=      5 IRanWt=     -1 IRanGd=            0 ICorTp=0 IEmpDi=121
 HFx  wShort=  0.000000 wLong=  0.200000 cFull=  0.222036 cShort=  0.000000 cLong=  0.777964
 DFx  wShort=  0.000000 wLong=  0.200000 cFull=  0.000000 cShort=  0.000000 cLong=  1.000000
 NAtoms=    7 NActive=    7 NUniq=    3 SFac= 4.00D+00 NAtFMM=   60 NAOKFM=F Big=F
 Integral buffers will be    131072 words long.
 Raffenetti 1 integral format.
 Two-electron integral symmetry is turned on.
 R6Disp:  Grimme-D2 Dispersion energy=       -0.0011217697 Hartrees.
 Nuclear repulsion after empirical dispersion term =       75.7288986903 Hartrees.
 Leave Link  301 at Mon Mar 21 15:53:29 2022, MaxMem=  8589934592 cpu:               0.5 elap:               0.1
 (Enter /home/rr/g16/l302.exe)
 NPDir=0 NMtPBC=     1 NCelOv=     1 NCel=       1 NClECP=     1 NCelD=      1
         NCelK=      1 NCelE2=     1 NClLst=     1 CellRange=     0.0.
 One-electron integrals computed using PRISM.
 One-electron integral symmetry used in STVInt
 NBasis=    95 RedAO= T EigKep=  1.49D-04  NBF=    33    16    19    27
 NBsUse=    95 1.00D-06 EigRej= -1.00D+00 NBFU=    33    16    19    27
 Precomputing XC quadrature grid using
 IXCGrd= 4 IRadAn=           5 IRanWt=          -1 IRanGd=           0 AccXCQ= 0.00D+00.
 Generated NRdTot=       0 NPtTot=           0 NUsed=           0 NTot=          32
 NSgBfM=   101   101   101   101   101 MxSgAt=     7 MxSgA2=     7.
 Leave Link  302 at Mon Mar 21 15:53:29 2022, MaxMem=  8589934592 cpu:               1.1 elap:               0.2
 (Enter /home/rr/g16/l303.exe)
 DipDrv:  MaxL=1.
 Leave Link  303 at Mon Mar 21 15:53:29 2022, MaxMem=  8589934592 cpu:               0.2 elap:               0.1
 (Enter /home/rr/g16/l308.exe)
 Leave Link  308 at Mon Mar 21 15:53:29 2022, MaxMem=  8589934592 cpu:               0.2 elap:               0.1
 (Enter /home/rr/g16/l401.exe)
 ExpMin= 6.71D-02 ExpMax= 2.27D+03 ExpMxC= 3.41D+02 IAcc=3 IRadAn=         5 AccDes= 0.00D+00
 Harris functional with IExCor= 4639 and IRadAn=       5 diagonalized for initial guess.
 HarFok:  IExCor= 4639 AccDes= 0.00D+00 IRadAn=         5 IDoV= 1 UseB2=F ITyADJ=14
 ICtDFT=  3500011 ScaDFX=  1.000000  1.000000  1.000000  1.000000
 FoFCou: FMM=F IPFlag=           0 FMFlag=      100000 FMFlg1=           0
         NFxFlg=           0 DoJE=T BraDBF=F KetDBF=T FulRan=T
         wScrn=  0.000000 ICntrl=       500 IOpCl=  0 I1Cent=   200000004 NGrid=           0
         NMat0=    1 NMatS0=      1 NMatT0=    0 NMatD0=    1 NMtDS0=    0 NMtDT0=    0
 Petite list used in FoFCou.
 Harris En= -147.225202967814    
 JPrj=0 DoOrth=F DoCkMO=F.
 Initial guess orbital symmetries:
       Occupied  (A1) (B2) (A1) (A1) (A1) (B2) (B1) (A1) (A2) (B2)
                 (A1) (B1)
       Virtual   (A1) (B2) (A1) (B1) (B2) (A1) (B2) (A2) (A1) (B1)
                 (B2) (B1) (A1) (A2) (A1) (B2) (B1) (A1) (B2) (B1)
                 (A1) (A2) (B2) (A1) (B2) (A2) (A1) (B1) (B2) (A2)
                 (A1) (B1) (B2) (B2) (A1) (B1) (B2) (A2) (A1) (A1)
                 (A2) (A1) (B1) (B2) (A2) (B2) (A1) (B1) (A1) (B2)
                 (B2) (A2) (B1) (A1) (A2) (B1) (A1) (B2) (A1) (B1)
                 (B1) (B2) (A2) (A1) (B2) (A1) (A2) (B1) (B2) (A1)
                 (A1) (B2) (A2) (B2) (B1) (A1) (A1) (A2) (B2) (B1)
                 (A2) (A1) (B2)
 The electronic state of the initial guess is 1-A1.
 Leave Link  401 at Mon Mar 21 15:53:29 2022, MaxMem=  8589934592 cpu:               1.6 elap:               0.2
 (Enter /home/rr/g16/l502.exe)
 Keep R1 ints in memory in symmetry-blocked form, NReq=28666224.
 FoFCou: FMM=F IPFlag=           0 FMFlag=           0 FMFlg1=           0
         NFxFlg=           0 DoJE=F BraDBF=F KetDBF=F FulRan=T
         wScrn=  0.000000 ICntrl=       600 IOpCl=  0 I1Cent=           0 NGrid=           0
         NMat0=    1 NMatS0=   4560 NMatT0=    0 NMatD0=    1 NMtDS0=    0 NMtDT0=    0
 Petite list used in FoFCou.
 Closed shell SCF:
 Using DIIS extrapolation, IDIIS=  1040.
 NGot=  8589934592 LenX=  8587281350 LenY=  8587270708
 Requested convergence on RMS density matrix=1.00D-08 within 100 cycles.
 Requested convergence on MAX density matrix=1.00D-06.
 Requested convergence on             energy=1.00D-06.
 No special actions if energy rises.
 Integral accuracy reduced to 1.0D-05 until final iterations.

 Cycle   1  Pass 0  IDiag  1:
 E= -153.583817503166    
 DIIS: error= 4.48D-02 at cycle   1 NSaved=   1.
 NSaved= 1 IEnMin= 1 EnMin= -153.583817503166     IErMin= 1 ErrMin= 4.48D-02
 ErrMax= 4.48D-02  0.00D+00 EMaxC= 1.00D-01 BMatC= 1.11D-01 BMatP= 1.11D-01
 IDIUse=3 WtCom= 5.52D-01 WtEn= 4.48D-01
 Coeff-Com:  0.100D+01
 Coeff-En:   0.100D+01
 Coeff:      0.100D+01
 Gap=     0.555 Goal=   None    Shift=    0.000
 GapD=    0.555 DampG=2.000 DampE=0.500 DampFc=1.0000 IDamp=-1.
 RMSDP=5.46D-03 MaxDP=1.26D-01              OVMax= 1.10D-01

 Cycle   2  Pass 0  IDiag  1:
 E= -153.571221654081     Delta-E=        0.012595849084 Rises=F Damp=F
 DIIS: error= 3.25D-02 at cycle   2 NSaved=   2.
 NSaved= 2 IEnMin= 1 EnMin= -153.583817503166     IErMin= 2 ErrMin= 3.25D-02
 ErrMax= 3.25D-02  0.00D+00 EMaxC= 1.00D-01 BMatC= 9.13D-02 BMatP= 1.11D-01
 IDIUse=3 WtCom= 6.75D-01 WtEn= 3.25D-01
 Coeff-Com:  0.471D+00 0.529D+00
 Coeff-En:   0.556D+00 0.444D+00
 Coeff:      0.499D+00 0.501D+00
 Gap=     0.470 Goal=   None    Shift=    0.000
 RMSDP=2.28D-03 MaxDP=6.97D-02 DE= 1.26D-02 OVMax= 8.02D-02

 Cycle   3  Pass 0  IDiag  1:
 E= -153.633135114147     Delta-E=       -0.061913460066 Rises=F Damp=F
 DIIS: error= 5.32D-03 at cycle   3 NSaved=   3.
 NSaved= 3 IEnMin= 3 EnMin= -153.633135114147     IErMin= 3 ErrMin= 5.32D-03
 ErrMax= 5.32D-03  0.00D+00 EMaxC= 1.00D-01 BMatC= 2.38D-03 BMatP= 9.13D-02
 IDIUse=3 WtCom= 9.47D-01 WtEn= 5.32D-02
 Coeff-Com:  0.772D-02 0.137D+00 0.855D+00
 Coeff-En:   0.000D+00 0.000D+00 0.100D+01
 Coeff:      0.731D-02 0.130D+00 0.863D+00
 Gap=     0.461 Goal=   None    Shift=    0.000
 RMSDP=5.26D-04 MaxDP=1.02D-02 DE=-6.19D-02 OVMax= 1.47D-02

 Cycle   4  Pass 0  IDiag  1:
 E= -153.634856057468     Delta-E=       -0.001720943321 Rises=F Damp=F
 DIIS: error= 1.04D-03 at cycle   4 NSaved=   4.
 NSaved= 4 IEnMin= 4 EnMin= -153.634856057468     IErMin= 4 ErrMin= 1.04D-03
 ErrMax= 1.04D-03  0.00D+00 EMaxC= 1.00D-01 BMatC= 1.28D-04 BMatP= 2.38D-03
 IDIUse=3 WtCom= 9.90D-01 WtEn= 1.04D-02
 Coeff-Com: -0.585D-02 0.299D-01 0.322D+00 0.654D+00
 Coeff-En:   0.000D+00 0.000D+00 0.000D+00 0.100D+01
 Coeff:     -0.579D-02 0.296D-01 0.318D+00 0.658D+00
 Gap=     0.461 Goal=   None    Shift=    0.000
 RMSDP=1.31D-04 MaxDP=2.73D-03 DE=-1.72D-03 OVMax= 2.32D-03

 Cycle   5  Pass 0  IDiag  1:
 E= -153.634959310022     Delta-E=       -0.000103252554 Rises=F Damp=F
 DIIS: error= 1.79D-04 at cycle   5 NSaved=   5.
 NSaved= 5 IEnMin= 5 EnMin= -153.634959310022     IErMin= 5 ErrMin= 1.79D-04
 ErrMax= 1.79D-04  0.00D+00 EMaxC= 1.00D-01 BMatC= 2.38D-06 BMatP= 1.28D-04
 IDIUse=3 WtCom= 9.98D-01 WtEn= 1.79D-03
 Coeff-Com: -0.491D-04-0.105D-01-0.411D-01 0.388D-01 0.101D+01
 Coeff-En:   0.000D+00 0.000D+00 0.000D+00 0.000D+00 0.100D+01
 Coeff:     -0.491D-04-0.105D-01-0.410D-01 0.387D-01 0.101D+01
 Gap=     0.460 Goal=   None    Shift=    0.000
 RMSDP=3.94D-05 MaxDP=5.73D-04 DE=-1.03D-04 OVMax= 5.29D-04

 Cycle   6  Pass 0  IDiag  1:
 E= -153.634962081504     Delta-E=       -0.000002771482 Rises=F Damp=F
 DIIS: error= 1.56D-05 at cycle   6 NSaved=   6.
 NSaved= 6 IEnMin= 6 EnMin= -153.634962081504     IErMin= 6 ErrMin= 1.56D-05
 ErrMax= 1.56D-05  0.00D+00 EMaxC= 1.00D-01 BMatC= 2.90D-08 BMatP= 2.38D-06
 IDIUse=1 WtCom= 1.00D+00 WtEn= 0.00D+00
 Coeff-Com:  0.946D-04-0.181D-02-0.124D-01-0.188D-01 0.738D-01 0.959D+00
 Coeff:      0.946D-04-0.181D-02-0.124D-01-0.188D-01 0.738D-01 0.959D+00
 Gap=     0.460 Goal=   None    Shift=    0.000
 RMSDP=5.81D-06 MaxDP=1.05D-04 DE=-2.77D-06 OVMax= 9.08D-05

 Initial convergence to 1.0D-05 achieved.  Increase integral accuracy.
 Cycle   7  Pass 1  IDiag  1:
 E= -153.634961393640     Delta-E=        0.000000687864 Rises=F Damp=F
 DIIS: error= 1.92D-05 at cycle   1 NSaved=   1.
 NSaved= 1 IEnMin= 1 EnMin= -153.634961393640     IErMin= 1 ErrMin= 1.92D-05
 ErrMax= 1.92D-05  0.00D+00 EMaxC= 1.00D-01 BMatC= 3.37D-08 BMatP= 3.37D-08
 IDIUse=1 WtCom= 1.00D+00 WtEn= 0.00D+00
 Coeff-Com:  0.100D+01
 Coeff:      0.100D+01
 Gap=     0.460 Goal=   None    Shift=    0.000
 RMSDP=5.81D-06 MaxDP=1.05D-04 DE= 6.88D-07 OVMax= 3.75D-05

 Cycle   8  Pass 1  IDiag  1:
 E= -153.634961424964     Delta-E=       -0.000000031324 Rises=F Damp=F
 DIIS: error= 2.55D-06 at cycle   2 NSaved=   2.
 NSaved= 2 IEnMin= 2 EnMin= -153.634961424964     IErMin= 2 ErrMin= 2.55D-06
 ErrMax= 2.55D-06  0.00D+00 EMaxC= 1.00D-01 BMatC= 7.71D-10 BMatP= 3.37D-08
 IDIUse=1 WtCom= 1.00D+00 WtEn= 0.00D+00
 Coeff-Com: -0.769D-01 0.108D+01
 Coeff:     -0.769D-01 0.108D+01
 Gap=     0.460 Goal=   None    Shift=    0.000
 RMSDP=6.95D-07 MaxDP=8.52D-06 DE=-3.13D-08 OVMax= 1.30D-05

 Cycle   9  Pass 1  IDiag  1:
 E= -153.634961425457     Delta-E=       -0.000000000492 Rises=F Damp=F
 DIIS: error= 3.23D-06 at cycle   3 NSaved=   3.
 NSaved= 3 IEnMin= 3 EnMin= -153.634961425457     IErMin= 2 ErrMin= 2.55D-06
 ErrMax= 3.23D-06  0.00D+00 EMaxC= 1.00D-01 BMatC= 7.29D-10 BMatP= 7.71D-10
 IDIUse=1 WtCom= 1.00D+00 WtEn= 0.00D+00
 Coeff-Com: -0.570D-01 0.577D+00 0.480D+00
 Coeff:     -0.570D-01 0.577D+00 0.480D+00
 Gap=     0.460 Goal=   None    Shift=    0.000
 RMSDP=2.26D-07 MaxDP=5.68D-06 DE=-4.92D-10 OVMax= 7.00D-06

 Cycle  10  Pass 1  IDiag  1:
 E= -153.634961425998     Delta-E=       -0.000000000541 Rises=F Damp=F
 DIIS: error= 3.93D-07 at cycle   4 NSaved=   4.
 NSaved= 4 IEnMin= 4 EnMin= -153.634961425998     IErMin= 4 ErrMin= 3.93D-07
 ErrMax= 3.93D-07  0.00D+00 EMaxC= 1.00D-01 BMatC= 1.18D-11 BMatP= 7.29D-10
 IDIUse=1 WtCom= 1.00D+00 WtEn= 0.00D+00
 Coeff-Com: -0.364D-02-0.100D-01 0.833D-01 0.930D+00
 Coeff:     -0.364D-02-0.100D-01 0.833D-01 0.930D+00
 Gap=     0.460 Goal=   None    Shift=    0.000
 RMSDP=8.23D-08 MaxDP=9.82D-07 DE=-5.41D-10 OVMax= 1.53D-06

 Cycle  11  Pass 1  IDiag  1:
 E= -153.634961426007     Delta-E=       -0.000000000010 Rises=F Damp=F
 DIIS: error= 1.26D-07 at cycle   5 NSaved=   5.
 NSaved= 5 IEnMin= 5 EnMin= -153.634961426007     IErMin= 5 ErrMin= 1.26D-07
 ErrMax= 1.26D-07  0.00D+00 EMaxC= 1.00D-01 BMatC= 9.34D-13 BMatP= 1.18D-11
 IDIUse=1 WtCom= 1.00D+00 WtEn= 0.00D+00
 Coeff-Com:  0.253D-02-0.352D-01-0.354D-02 0.222D+00 0.815D+00
 Coeff:      0.253D-02-0.352D-01-0.354D-02 0.222D+00 0.815D+00
 Gap=     0.460 Goal=   None    Shift=    0.000
 RMSDP=2.24D-08 MaxDP=2.96D-07 DE=-9.66D-12 OVMax= 4.04D-07

 Cycle  12  Pass 1  IDiag  1:
 E= -153.634961426006     Delta-E=        0.000000000001 Rises=F Damp=F
 DIIS: error= 3.50D-08 at cycle   6 NSaved=   6.
 NSaved= 6 IEnMin= 5 EnMin= -153.634961426007     IErMin= 6 ErrMin= 3.50D-08
 ErrMax= 3.50D-08  0.00D+00 EMaxC= 1.00D-01 BMatC= 8.59D-14 BMatP= 9.34D-13
 IDIUse=1 WtCom= 1.00D+00 WtEn= 0.00D+00
 Coeff-Com:  0.101D-02-0.930D-02-0.626D-02-0.192D-01 0.220D+00 0.814D+00
 Coeff:      0.101D-02-0.930D-02-0.626D-02-0.192D-01 0.220D+00 0.814D+00
 Gap=     0.460 Goal=   None    Shift=    0.000
 RMSDP=5.35D-09 MaxDP=8.52D-08 DE= 1.14D-12 OVMax= 1.47D-07

 SCF Done:  E(RwB97XD) =  -153.634961426     A.U. after   12 cycles
            NFock= 12  Conv=0.53D-08     -V/T= 2.0097
 KE= 1.521531418349D+02 PE=-5.099316016582D+02 EE= 1.284145997070D+02
 Leave Link  502 at Mon Mar 21 15:53:31 2022, MaxMem=  8589934592 cpu:               9.1 elap:               1.2
 (Enter /home/rr/g16/l801.exe)
 DoSCS=F DFT=T ScalE2(SS,OS)=  1.000000  1.000000
 ExpMin= 6.71D-02 ExpMax= 2.27D+03 ExpMxC= 3.41D+02 IAcc=3 IRadAn=         5 AccDes= 0.00D+00
 HarFok:  IExCor=  205 AccDes= 0.00D+00 IRadAn=         5 IDoV=-2 UseB2=F ITyADJ=14
 ICtDFT= 12500011 ScaDFX=  1.000000  1.000000  1.000000  1.000000
 Largest valence mixing into a core orbital is  7.83D-05
 Largest core mixing into a valence orbital is  2.07D-05
 Range of M.O.s used for correlation:     4    95
 NBasis=    95 NAE=    12 NBE=    12 NFC=     3 NFV=     0
 NROrb=     92 NOA=     9 NOB=     9 NVA=    83 NVB=    83

 **** Warning!!: The largest alpha MO coefficient is  0.28999352D+02

 Leave Link  801 at Mon Mar 21 15:53:31 2022, MaxMem=  8589934592 cpu:               0.5 elap:               0.1
 (Enter /home/rr/g16/l914.exe)
 RHF ground state
 Keep R1, R2, and R3 ints in memory in symmetry-blocked form, NReq=648972236.
 FoFCou: FMM=F IPFlag=           0 FMFlag=           0 FMFlg1=           0
         NFxFlg=           0 DoJE=F BraDBF=F KetDBF=F FulRan=T
         wScrn=  0.000000 ICntrl=       600 IOpCl=  0 I1Cent=           0 NGrid=           0
         NMat0=    1 NMatS0=   4560 NMatT0=    0 NMatD0=    1 NMtDS0=    0 NMtDT0=    0
 Petite list used in FoFCou.
 MDV=  8589934592 DFT=T DoStab=F Mixed=T DoRPA=T DoScal=F NonHer=T
 Making orbital integer symmetry assigments:
 Orbital symmetries:
       Occupied  (A1) (A1) (B2) (A1) (A1) (B2) (B1) (A1) (B2) (A2)
                 (A1) (B1)
       Virtual   (A1) (B2) (A1) (B1) (B2) (A1) (A2) (B2) (A1) (B1)
                 (B2) (B1) (A1) (A2) (A1) (B2) (B1) (A1) (B2) (B1)
                 (A1) (A2) (B2) (A1) (B2) (A2) (A1) (B1) (B2) (A2)
                 (A1) (B1) (B2) (B2) (A1) (B2) (B1) (A2) (A1) (A1)
                 (A2) (A1) (B1) (B2) (A2) (B2) (A1) (B1) (B2) (A1)
                 (B2) (A2) (B1) (A1) (A2) (B1) (A1) (B2) (A1) (B1)
                 (B1) (B2) (A2) (A1) (B2) (A1) (A2) (B1) (B2) (A1)
                 (A1) (B2) (A2) (B2) (B1) (A1) (A1) (A2) (B2) (B1)
                 (A2) (A1) (B2)
   747 initial guesses have been made.
 Convergence on wavefunction:    0.001000000000000
 Davidson Disk Diagonalization:  ConvIn= 1.00D-03 SkipCon=T Conv= 1.00D-03.
 Max sub-space:  4482 roots to seek:  1494 dimension of matrix:         1494
 *** WARNING: Number of orthogonal guesses is          747
 Iteration     1 Dimension   747 NMult     0 NNew    747
 CISAX will form   747 AO SS matrices at one time.
 NMat=   747 NSing=   747 JSym2X=-1.
 New state      2 was old state      3
 New state      3 was old state      7
 New state      4 was old state      2
 New state      6 was old state      4
 New state      7 was old state      8
 New state      8 was old state      6
 New state     11 was old state     12
 New state     12 was old state     11
 New state     13 was old state     15
 New state     14 was old state     18
 New state     15 was old state     14
 New state     16 was old state     13
 New state     17 was old state     20
 New state     18 was old state     17
 New state     19 was old state     30
 New state     20 was old state     19
 New state     21 was old state     16
 New state     22 was old state     24
 New state     23 was old state     21
 New state     24 was old state     22
 New state     25 was old state     23
 New state     27 was old state     28
 New state     28 was old state     29
 New state     29 was old state     27
 New state     30 was old state     25
 New state     32 was old state     34
 New state     33 was old state     32
 New state     34 was old state     35
 New state     35 was old state     33
 New state     36 was old state     38
 New state     37 was old state     36
 New state     38 was old state     37
 New state     39 was old state     51
 New state     40 was old state     44
 New state     41 was old state     42
 New state     42 was old state     43
 New state     43 was old state     40
 New state     44 was old state     48
 New state     45 was old state     39
 New state     46 was old state     41
 New state     47 was old state     54
 New state     48 was old state     46
 New state     49 was old state     50
 New state     50 was old state     45
 New state     51 was old state     47
 New state     52 was old state     49
 New state     53 was old state     59
 New state     54 was old state     52
 New state     57 was old state     73
 New state     58 was old state     61
 New state     59 was old state     58
 New state     60 was old state     57
 New state     61 was old state     60
 New state     62 was old state     53
 New state     63 was old state     64
 New state     64 was old state     62
 New state     65 was old state     63
 New state     66 was old state     69
 New state     67 was old state     68
 New state     68 was old state     67
 New state     69 was old state     66
 New state     70 was old state     65
 New state     71 was old state     70
 New state     72 was old state     71
 New state     73 was old state     72
 New state     74 was old state     76
 New state     75 was old state     78
 New state     76 was old state     74
 New state     77 was old state     80
 New state     78 was old state     77
 New state     79 was old state     75
 New state     80 was old state     83
 New state     81 was old state     89
 New state     82 was old state     81
 New state     83 was old state     84
 New state     84 was old state     82
 New state     85 was old state     79
 New state     86 was old state     85
 New state     87 was old state    101
 New state     88 was old state     90
 New state     89 was old state     87
 New state     90 was old state     94
 New state     91 was old state     93
 New state     93 was old state     86
 New state     94 was old state     97
 New state     95 was old state     99
 New state     96 was old state     95
 New state     97 was old state     98
 New state     98 was old state     91
 New state     99 was old state    113
 New state    100 was old state     96
 New state    101 was old state    105
 New state    103 was old state    104
 New state    104 was old state    106
 New state    105 was old state    109
 New state    106 was old state    100
 New state    107 was old state    103
 New state    109 was old state    107
 New state    110 was old state    116
 New state    111 was old state    119
 New state    112 was old state    111
 New state    113 was old state    114
 New state    114 was old state    121
 New state    116 was old state    117
 New state    117 was old state    112
 New state    118 was old state    110
 New state    119 was old state    123
 New state    121 was old state    124
 New state    122 was old state    133
 New state    123 was old state    127
 New state    124 was old state    125
 New state    125 was old state    126
 New state    126 was old state    122
 New state    127 was old state    135
 New state    128 was old state    138
 New state    129 was old state    128
 New state    130 was old state    118
 New state    131 was old state    129
 New state    132 was old state    141
 New state    133 was old state    130
 New state    134 was old state    136
 New state    135 was old state    142
 New state    136 was old state    134
 New state    138 was old state    131
 New state    139 was old state    132
 New state    140 was old state    176
 New state    141 was old state    149
 New state    142 was old state    163
 New state    143 was old state    148
 New state    144 was old state    143
 New state    145 was old state    157
 New state    146 was old state    139
 New state    147 was old state    154
 New state    148 was old state    150
 New state    149 was old state    151
 New state    150 was old state    146
 New state    151 was old state    166
 New state    152 was old state    144
 New state    153 was old state    147
 New state    154 was old state    165
 New state    155 was old state    153
 New state    156 was old state    161
 New state    157 was old state    152
 New state    158 was old state    162
 New state    159 was old state    145
 New state    160 was old state    156
 New state    161 was old state    158
 New state    162 was old state    159
 New state    163 was old state    167
 New state    164 was old state    155
 New state    165 was old state    164
 New state    166 was old state    174
 New state    167 was old state    168
 New state    168 was old state    169
 New state    169 was old state    170
 New state    170 was old state    172
 New state    171 was old state    160
 New state    172 was old state    173
 New state    173 was old state    140
 New state    174 was old state    171
 New state    176 was old state    179
 New state    177 was old state    183
 New state    178 was old state    177
 New state    179 was old state    180
 New state    180 was old state    189
 New state    181 was old state    186
 New state    183 was old state    178
 New state    184 was old state    185
 New state    185 was old state    181
 New state    186 was old state    199
 New state    187 was old state    190
 New state    188 was old state    187
 New state    189 was old state    191
 New state    190 was old state    184
 New state    191 was old state    196
 New state    192 was old state    188
 New state    193 was old state    192
 New state    194 was old state    207
 New state    195 was old state    194
 New state    196 was old state    197
 New state    197 was old state    193
 New state    198 was old state    195
 New state    199 was old state    205
 New state    200 was old state    201
 New state    201 was old state    198
 New state    202 was old state    204
 New state    203 was old state    202
 New state    204 was old state    203
 New state    205 was old state    216
 New state    206 was old state    208
 New state    207 was old state    200
 New state    208 was old state    222
 New state    210 was old state    213
 New state    213 was old state    210
 New state    214 was old state    206
 New state    216 was old state    218
 New state    218 was old state    214
 New state    221 was old state    235
 New state    222 was old state    225
 New state    223 was old state    230
 New state    224 was old state    227
 New state    225 was old state    221
 New state    226 was old state    231
 New state    227 was old state    228
 New state    228 was old state    223
 New state    229 was old state    233
 New state    230 was old state    229
 New state    231 was old state    232
 New state    232 was old state    226
 New state    233 was old state    240
 New state    234 was old state    236
 New state    235 was old state    237
 New state    236 was old state    238
 New state    237 was old state    246
 New state    238 was old state    241
 New state    239 was old state    276
 New state    240 was old state    251
 New state    241 was old state    234
 New state    242 was old state    239
 New state    244 was old state    247
 New state    245 was old state    244
 New state    246 was old state    245
 New state    247 was old state    242
 New state    248 was old state    250
 New state    249 was old state    257
 New state    250 was old state    253
 New state    251 was old state    248
 New state    252 was old state    262
 New state    253 was old state    252
 New state    254 was old state    259
 New state    255 was old state    249
 New state    256 was old state    254
 New state    257 was old state    256
 New state    258 was old state    268
 New state    259 was old state    258
 New state    260 was old state    261
 New state    261 was old state    255
 New state    262 was old state    270
 New state    263 was old state    266
 New state    264 was old state    260
 New state    266 was old state    264
 New state    268 was old state    263
 New state    270 was old state    273
 New state    272 was old state    278
 New state    273 was old state    272
 New state    275 was old state    277
 New state    276 was old state    285
 New state    277 was old state    306
 New state    278 was old state    275
 New state    282 was old state    293
 New state    283 was old state    310
 New state    284 was old state    288
 New state    285 was old state    284
 New state    286 was old state    283
 New state    287 was old state    282
 New state    288 was old state    287
 New state    289 was old state    294
 New state    291 was old state    292
 New state    292 was old state    289
 New state    293 was old state    286
 New state    294 was old state    303
 New state    295 was old state    291
 New state    296 was old state    298
 New state    297 was old state    312
 New state    298 was old state    300
 New state    299 was old state    295
 New state    300 was old state    297
 New state    301 was old state    299
 New state    302 was old state    296
 New state    303 was old state    301
 New state    304 was old state    309
 New state    305 was old state    302
 New state    306 was old state    305
 New state    307 was old state    324
 New state    308 was old state    304
 New state    309 was old state    307
 New state    310 was old state    308
 New state    311 was old state    317
 New state    312 was old state    314
 New state    313 was old state    311
 New state    314 was old state    313
 New state    317 was old state    318
 New state    318 was old state    320
 New state    320 was old state    322
 New state    321 was old state    327
 New state    322 was old state    321
 New state    323 was old state    352
 New state    324 was old state    333
 New state    325 was old state    326
 New state    326 was old state    328
 New state    327 was old state    331
 New state    328 was old state    329
 New state    329 was old state    338
 New state    330 was old state    334
 New state    331 was old state    323
 New state    332 was old state    325
 New state    333 was old state    335
 New state    334 was old state    343
 New state    335 was old state    330
 New state    336 was old state    339
 New state    337 was old state    332
 New state    338 was old state    336
 New state    339 was old state    337
 New state    340 was old state    342
 New state    341 was old state    351
 New state    342 was old state    346
 New state    343 was old state    340
 New state    344 was old state    341
 New state    345 was old state    344
 New state    346 was old state    349
 New state    347 was old state    345
 New state    348 was old state    347
 New state    349 was old state    355
 New state    350 was old state    348
 New state    351 was old state    350
 New state    352 was old state    353
 New state    353 was old state    357
 No map to state    355
 New state    356 was old state    359
 New state    357 was old state    360
 New state    358 was old state    362
 New state    359 was old state    356
 New state    360 was old state    364
 New state    361 was old state    365
 New state    362 was old state    361
 New state    364 was old state    358
 New state    365 was old state    367
 New state    366 was old state    370
 New state    367 was old state    368
 New state    368 was old state    373
 New state    369 was old state    366
 New state    370 was old state    375
 New state    372 was old state    369
 New state    373 was old state    372
 New state    374 was old state    379
 New state    375 was old state    380
 New state    376 was old state    374
 New state    378 was old state    383
 New state    379 was old state    382
 New state    380 was old state    376
 New state    381 was old state    387
 New state    382 was old state    381
 New state    383 was old state    388
 New state    384 was old state    385
 New state    385 was old state    378
 New state    386 was old state    384
 New state    387 was old state    395
 New state    388 was old state    390
 New state    389 was old state    391
 New state    390 was old state    393
 New state    391 was old state    386
 New state    393 was old state    397
 New state    394 was old state    396
 New state    395 was old state    399
 New state    396 was old state    400
 New state    397 was old state    403
 New state    398 was old state    394
 New state    399 was old state    402
 New state    400 was old state    406
 New state    401 was old state    398
 New state    402 was old state    404
 New state    403 was old state    405
 New state    404 was old state    407
 New state    405 was old state    401
 New state    406 was old state    389
 New state    407 was old state    409
 New state    409 was old state    415
 New state    410 was old state    412
 New state    411 was old state    416
 New state    412 was old state    424
 New state    413 was old state    417
 New state    414 was old state    413
 New state    415 was old state    410
 New state    416 was old state    411
 New state    417 was old state    418
 New state    418 was old state    422
 New state    420 was old state    414
 New state    421 was old state    420
 New state    422 was old state    426
 New state    423 was old state    425
 New state    424 was old state    423
 New state    425 was old state    434
 New state    426 was old state    428
 New state    427 was old state    421
 New state    428 was old state    427
 New state    429 was old state    430
 New state    430 was old state    431
 New state    431 was old state    429
 New state    432 was old state    433
 New state    433 was old state    432
 New state    434 was old state    435
 New state    435 was old state    437
 New state    437 was old state    438
 New state    438 was old state    442
 New state    439 was old state    441
 New state    440 was old state    439
 New state    441 was old state    440
 New state    442 was old state    448
 New state    443 was old state    454
 New state    445 was old state    443
 New state    446 was old state    449
 New state    447 was old state    446
 New state    448 was old state    445
 New state    449 was old state    450
 New state    450 was old state    447
 New state    454 was old state    459
 New state    456 was old state    462
 New state    457 was old state    456
 New state    458 was old state    461
 New state    459 was old state    460
 New state    460 was old state    457
 New state    461 was old state    458
 New state    462 was old state    467
 New state    463 was old state    469
 New state    465 was old state    466
 New state    466 was old state    463
 New state    467 was old state    465
 New state    469 was old state    470
 New state    470 was old state    474
 New state    471 was old state    472
 New state    472 was old state    471
 New state    473 was old state    475
 New state    474 was old state    477
 New state    475 was old state    478
 New state    476 was old state    479
 New state    477 was old state    473
 New state    478 was old state    476
 New state    479 was old state    483
 New state    480 was old state    484
 New state    481 was old state    480
 New state    482 was old state    481
 New state    483 was old state    482
 New state    484 was old state    497
 New state    486 was old state    487
 New state    487 was old state    486
 New state    489 was old state    490
 New state    490 was old state    489
 New state    492 was old state    494
 New state    493 was old state    492
 New state    494 was old state    498
 New state    495 was old state    500
 New state    496 was old state    493
 New state    497 was old state    496
 New state    498 was old state    502
 New state    499 was old state    495
 New state    500 was old state    499
 New state    502 was old state    506
 New state    504 was old state    509
 New state    506 was old state    507
 New state    507 was old state    504
 New state    509 was old state    511
 New state    510 was old state    514
 New state    511 was old state    510
 New state    512 was old state    513
 New state    513 was old state    512
 New state    514 was old state    521
 New state    516 was old state    517
 New state    517 was old state    516
 New state    518 was old state    522
 New state    519 was old state    520
 New state    520 was old state    519
 New state    521 was old state    518
 New state    522 was old state    530
 New state    523 was old state    524
 New state    524 was old state    523
 New state    525 was old state    528
 New state    526 was old state    525
 New state    527 was old state    526
 New state    528 was old state    527
 New state    529 was old state    540
 New state    530 was old state    529
 New state    531 was old state    532
 New state    532 was old state    533
 New state    533 was old state    531
 New state    535 was old state    537
 New state    536 was old state    535
 New state    537 was old state    538
 New state    538 was old state    539
 New state    539 was old state    536
 New state    540 was old state    541
 New state    541 was old state    544
 New state    542 was old state    550
 New state    544 was old state    542
 New state    546 was old state    547
 New state    547 was old state    546
 New state    550 was old state    551
 New state    551 was old state    553
 New state    553 was old state    554
 New state    554 was old state    558
 New state    556 was old state    557
 New state    557 was old state    556
 New state    558 was old state    561
 New state    559 was old state    566
 New state    560 was old state    559
 New state    561 was old state    560
 New state    566 was old state    567
 New state    567 was old state    568
 New state    568 was old state    575
 New state    571 was old state    572
 New state    572 was old state    571
 New state    574 was old state    578
 New state    575 was old state    574
 New state    576 was old state    580
 New state    577 was old state    576
 New state    578 was old state    577
 New state    579 was old state    592
 New state    580 was old state    579
 New state    582 was old state    588
 New state    585 was old state    586
 New state    586 was old state    582
 New state    587 was old state    591
 New state    588 was old state    585
 New state    590 was old state    587
 New state    591 was old state    590
 New state    592 was old state    593
 New state    593 was old state    594
 New state    594 was old state    595
 New state    595 was old state    605
 New state    596 was old state    599
 New state    597 was old state    596
 New state    598 was old state    597
 New state    599 was old state    598
 New state    600 was old state    603
 New state    601 was old state    600
 New state    603 was old state    601
 New state    605 was old state    607
 New state    606 was old state    609
 New state    607 was old state    608
 New state    608 was old state    606
 New state    609 was old state    610
 New state    610 was old state    611
 New state    611 was old state    613
 New state    613 was old state    622
 New state    616 was old state    617
 New state    617 was old state    616
 New state    621 was old state    624
 New state    622 was old state    623
 New state    623 was old state    621
 New state    624 was old state    629
 New state    625 was old state    626
 New state    626 was old state    625
 New state    628 was old state    630
 New state    629 was old state    628
 New state    630 was old state    632
 No map to state    632
 New state    639 was old state    640
 New state    640 was old state    639
 New state    644 was old state    645
 New state    645 was old state    644
 New state    653 was old state    654
 New state    654 was old state    653
 New state    655 was old state    656
 New state    656 was old state    655
 New state    661 was old state    662
 New state    662 was old state    661
 New state    663 was old state    667
 New state    664 was old state    668
 New state    665 was old state    663
 New state    666 was old state    665
 New state    667 was old state    664
 New state    668 was old state    666
 New state    670 was old state    671
 New state    671 was old state    673
 New state    672 was old state    670
 New state    673 was old state    672
 New state    674 was old state    675
 New state    675 was old state    674
 New state    678 was old state    679
 New state    679 was old state    683
 New state    680 was old state    682
 New state    682 was old state    680
 New state    683 was old state    678
 New state    685 was old state    686
 New state    686 was old state    687
 New state    687 was old state    689
 New state    689 was old state    685
 New state    691 was old state    693
 New state    692 was old state    691
 New state    693 was old state    698
 New state    694 was old state    692
 New state    695 was old state    694
 New state    696 was old state    695
 New state    698 was old state    696
 New state    700 was old state    702
 New state    701 was old state    703
 New state    702 was old state    701
 New state    703 was old state    704
 New state    704 was old state    700
 New state    706 was old state    707
 New state    707 was old state    706
 New state    709 was old state    711
 New state    710 was old state    709
 New state    711 was old state    710
 New state    715 was old state    716
 New state    716 was old state    717
 New state    717 was old state    721
 New state    719 was old state    715
 New state    721 was old state    719
 New state    722 was old state    725
 New state    723 was old state    722
 New state    724 was old state    723
 New state    725 was old state    724
 New state    728 was old state    732
 New state    729 was old state    728
 New state    731 was old state    729
 New state    732 was old state    734
 New state    734 was old state    731
 New state    738 was old state    739
 New state    739 was old state    738
 New state    743 was old state    744
 New state    744 was old state    743
 Excitation Energies [eV] at current iteration:
 Root      1 :     8.114560766305859
 Root      2 :     8.393487861652710
 Root      3 :     8.498530581404996
 Root      4 :     8.952212008664153
 Root      5 :     9.085267145440076
 Root      6 :     9.198050066115638
 Root      7 :     9.513801407330833
 Root      8 :     9.815221158645677
 Root      9 :    10.109976143808810
 Root     10 :    10.215841129926630
 Root     11 :    10.602306602139520
 Root     12 :    10.854354679999850
 Root     13 :    11.218973622747190
 Root     14 :    11.252935512832080
 Root     15 :    11.295811528896830
 Root     16 :    11.383546563608600
 Root     17 :    11.534358493406440
 Root     18 :    11.576970281146090
 Root     19 :    11.669413619255320
 Root     20 :    11.831270447309260
 Root     21 :    11.960298080437820
 Root     22 :    11.963080485978700
 Root     23 :    12.209294378816930
 Root     24 :    12.254641125710920
 Root     25 :    12.301599781840360
 Root     26 :    12.442689778661770
 Root     27 :    12.568703997116250
 Root     28 :    12.573300443288510
 Root     29 :    12.579578127077050
 Root     30 :    12.641746244642220
 Root     31 :    12.771405470274330
 Root     32 :    13.083639482395640
 Root     33 :    13.331736310364270
 Root     34 :    13.404710788531030
 Root     35 :    13.488083425213960
 Root     36 :    13.538020468924040
 Root     37 :    13.659494041100490
 Root     38 :    14.029952929990450
 Root     39 :    14.055234191248820
 Root     40 :    14.144922710934410
 Root     41 :    14.234914478191290
 Root     42 :    14.336011687484450
 Root     43 :    14.338470927925230
 Root     44 :    14.420873069359660
 Root     45 :    14.482055421214930
 Root     46 :    14.552643919994310
 Root     47 :    14.689045568733170
 Root     48 :    14.703684434104020
 Root     49 :    14.778780810046670
 Root     50 :    14.787678717824840
 Root     51 :    14.919650515488310
 Root     52 :    14.942900868394200
 Root     53 :    15.007440638430270
 Root     54 :    15.046983683775500
 Root     55 :    15.097485016145940
 Root     56 :    15.193168194423810
 Root     57 :    15.273401935345700
 Root     58 :    15.333963676679780
 Root     59 :    15.378037158003290
 Root     60 :    15.480647659092380
 Root     61 :    15.550856271252210
 Root     62 :    15.700417739877760
 Root     63 :    15.726224783403750
 Root     64 :    15.788708624440220
 Root     65 :    15.923088552222490
 Root     66 :    15.925586869531140
 Root     67 :    15.938623123435390
 Root     68 :    16.038501198717690
 Root     69 :    16.120896847655650
 Root     70 :    16.252369007642540
 Root     71 :    16.264406207290950
 Root     72 :    16.280676410272920
 Root     73 :    16.443544779737630
 Root     74 :    16.603240602645230
 Root     75 :    16.641463952508430
 Root     76 :    16.711922960699440
 Root     77 :    16.876298955670630
 Root     78 :    17.019213735968360
 Root     79 :    17.090727967938090
 Root     80 :    17.204027852866640
 Root     81 :    17.227878798099930
 Root     82 :    17.334678301383370
 Root     83 :    17.397246909935450
 Root     84 :    17.409157035211480
 Root     85 :    17.499325275124370
 Root     86 :    17.544516436355700
 Root     87 :    17.553487841819030
 Root     88 :    17.654141604225170
 Root     89 :    17.726826825651190
 Root     90 :    17.793006439293500
 Root     91 :    17.794351853691260
 Root     92 :    17.884890116544380
 Root     93 :    18.049690923287070
 Root     94 :    18.107910164496990
 Root     95 :    18.138621161743230
 Root     96 :    18.180390481329700
 Root     97 :    18.206734852562220
 Root     98 :    18.304382571664820
 Root     99 :    18.313408221915690
 Root    100 :    18.413622512957200
 Root    101 :    18.462947206573270
 Root    102 :    18.479981326780970
 Root    103 :    18.536444040969870
 Root    104 :    18.547770908658340
 Root    105 :    18.576843760982230
 Root    106 :    18.656699600493940
 Root    107 :    18.673265418146830
 Root    108 :    18.713635483327470
 Root    109 :    18.736647019750090
 Root    110 :    18.766228697456850
 Root    111 :    18.883954347585990
 Root    112 :    18.884641819493840
 Root    113 :    19.038199820378550
 Root    114 :    19.058608531691190
 Root    115 :    19.126303517576780
 Root    116 :    19.146230250776810
 Root    117 :    19.183241655309890
 Root    118 :    19.215821571402730
 Root    119 :    19.365617962525360
 Root    120 :    19.377027710661530
 Root    121 :    19.438522535208600
 Root    122 :    19.452646447636390
 Root    123 :    19.590428262569480
 Root    124 :    19.637793782224370
 Root    125 :    19.722699526171370
 Root    126 :    19.746772318583940
 Root    127 :    19.753376667904440
 Root    128 :    19.789580922888980
 Root    129 :    19.817330949210210
 Root    130 :    19.904417318390110
 Root    131 :    19.939144750099620
 Root    132 :    19.963054282326880
 Root    133 :    20.023181651358200
 Root    134 :    20.105400675860790
 Root    135 :    20.117887119354240
 Root    136 :    20.188142751283650
 Root    137 :    20.272284613252160
 Root    138 :    20.362274244092230
 Root    139 :    20.387208585657880
 Root    140 :    20.476910260063350
 Root    141 :    20.522085866874680
 Root    142 :    20.762364445786330
 Root    143 :    20.771641943053500
 Root    144 :    20.791501489766780
 Root    145 :    20.812242082837910
 Root    146 :    20.889409373858830
 Root    147 :    20.922265052491160
 Root    148 :    21.006269207948330
 Root    149 :    21.014561135712580
 Root    150 :    21.114460550774370
 Root    151 :    21.118216707548540
 Root    152 :    21.164416181849220
 Root    153 :    21.223257209106940
 Root    154 :    21.232311754462980
 Root    155 :    21.306749479256890
 Root    156 :    21.319786740157390
 Root    157 :    21.331794480574310
 Root    158 :    21.344171440335790
 Root    159 :    21.387942412029030
 Root    160 :    21.431032669918350
 Root    161 :    21.446606846802850
 Root    162 :    21.544345628607260
 Root    163 :    21.580247585385630
 Root    164 :    21.647849802916150
 Root    165 :    21.776426026915900
 Root    166 :    21.799111708113590
 Root    167 :    21.855173628084240
 Root    168 :    21.920092330543880
 Root    169 :    21.934581445677720
 Root    170 :    21.936749250812630
 Root    171 :    21.965296667903460
 Root    172 :    22.101522647569870
 Root    173 :    22.173023060127320
 Root    174 :    22.234423311942910
 Root    175 :    22.338087030935620
 Root    176 :    22.426884425076880
 Root    177 :    22.449669409670210
 Root    178 :    22.485852540282460
 Root    179 :    22.500823577604430
 Root    180 :    22.543406294280070
 Root    181 :    22.646904238504180
 Root    182 :    22.665514023016730
 Root    183 :    22.691068323200270
 Root    184 :    22.781650951325580
 Root    185 :    22.862947812878520
 Root    186 :    22.921891083679050
 Root    187 :    22.931881459470260
 Root    188 :    23.090846763208870
 Root    189 :    23.156523904338250
 Root    190 :    23.165065758780160
 Root    191 :    23.192927947736750
 Root    192 :    23.266248081245730
 Root    193 :    23.285997924994540
 Root    194 :    23.391623983716450
 Root    195 :    23.429302707544260
 Root    196 :    23.439931162474100
 Root    197 :    23.449112392747600
 Root    198 :    23.483362349650600
 Root    199 :    23.582302406057270
 Root    200 :    23.607692225828340
 Root    201 :    23.736433498230860
 Root    202 :    23.895973209343410
 Root    203 :    23.969422515688870
 Root    204 :    23.978599486076750
 Root    205 :    24.061794461037860
 Root    206 :    24.129623463712910
 Root    207 :    24.142845652857110
 Root    208 :    24.193443216573570
 Root    209 :    24.195570316940090
 Root    210 :    24.298396246614940
 Root    211 :    24.333336980328160
 Root    212 :    24.401031872608900
 Root    213 :    24.415638814474390
 Root    214 :    24.416187803809080
 Root    215 :    24.461469365056130
 Root    216 :    24.632445029087760
 Root    217 :    24.895775771172220
 Root    218 :    24.932857592619160
 Root    219 :    24.968818405861060
 Root    220 :    25.036468018601220
 Root    221 :    25.142632573637570
 Root    222 :    25.165318769011570
 Root    223 :    25.254777709764130
 Root    224 :    25.416707931033710
 Root    225 :    25.462503695634930
 Root    226 :    25.471721651184160
 Root    227 :    25.491734040591040
 Root    228 :    25.571463619469560
 Root    229 :    25.596189303157320
 Root    230 :    25.616173337251940
 Root    231 :    25.725304524325230
 Root    232 :    25.764797830639740
 Root    233 :    25.817051042988340
 Root    234 :    25.930266404617360
 Root    235 :    26.025395355961920
 Root    236 :    26.112837695634300
 Root    237 :    26.124585167729230
 Root    238 :    26.274546097659060
 Root    239 :    26.294677984984260
 Root    240 :    26.336071222965010
 Root    241 :    26.345623499013980
 Root    242 :    26.368042624271820
 Root    243 :    26.537441624704780
 Root    244 :    26.633086245568070
 Root    245 :    26.666553597415330
 Root    246 :    26.731916027085840
 Root    247 :    26.817670291722380
 Root    248 :    26.870406314919780
 Root    249 :    26.881862772232410
 Root    250 :    26.937426380520390
 Root    251 :    27.168566645823650
 Root    252 :    27.170032397303210
 Root    253 :    27.174242367994610
 Root    254 :    27.283917059949420
 Root    255 :    27.287519893325920
 Root    256 :    27.474277391575280
 Root    257 :    27.519313437616340
 Root    258 :    27.652720611718610
 Root    259 :    27.671082757640330
 Root    260 :    27.725020428553450
 Root    261 :    27.733528014157960
 Root    262 :    27.788201145644510
 Root    263 :    27.926288506099520
 Root    264 :    27.988866288019270
 Root    265 :    28.144109201743620
 Root    266 :    28.181014512811290
 Root    267 :    28.205160065296700
 Root    268 :    28.267187086878230
 Root    269 :    28.513185126066530
 Root    270 :    28.526408181658510
 Root    271 :    28.586457859128220
 Root    272 :    28.639533394366750
 Root    273 :    28.724362325130350
 Root    274 :    28.746689103131220
 Root    275 :    28.820655143396700
 Root    276 :    28.821917548735300
 Root    277 :    29.103935054173210
 Root    278 :    29.178804340557730
 Root    279 :    29.193485058222580
 Root    280 :    29.420113234752960
 Root    281 :    29.562505110040110
 Root    282 :    29.650778963650690
 Root    283 :    29.668875860218740
 Root    284 :    29.696683194395170
 Root    285 :    29.774985191436860
 Root    286 :    29.849971349877830
 Root    287 :    29.892386381794050
 Root    288 :    29.963606473935460
 Root    289 :    30.004519511196080
 Root    290 :    30.197208236639490
 Root    291 :    30.201495613965240
 Root    292 :    30.288063632506820
 Root    293 :    30.292091257667760
 Root    294 :    30.567838105591140
 Root    295 :    30.625885985922790
 Root    296 :    30.669702128698410
 Root    297 :    30.746302562771970
 Root    298 :    30.821831268448380
 Root    299 :    30.823450260459300
 Root    300 :    30.868168414031280
 Root    301 :    30.898849760532960
 Root    302 :    31.025167238780290
 Root    303 :    31.093735530135350
 Root    304 :    31.121503890724090
 Root    305 :    31.218108760916990
 Root    306 :    31.248545389001300
 Root    307 :    31.283091724944400
 Root    308 :    31.328999058958520
 Root    309 :    31.349404734871600
 Root    310 :    31.410602459475030
 Root    311 :    31.543730298107860
 Root    312 :    31.719085714927540
 Root    313 :    31.751052677238510
 Root    314 :    31.832783819254820
 Root    315 :    32.053008738224330
 Root    316 :    32.104397485169940
 Root    317 :    32.149488709792910
 Root    318 :    32.154719795489530
 Root    319 :    32.346377858829190
 Root    320 :    32.391107483926990
 Root    321 :    32.454455116900720
 Root    322 :    32.957161435563280
 Root    323 :    33.021079344344460
 Root    324 :    33.065618091834840
 Root    325 :    33.075963177893290
 Root    326 :    33.259942213888620
 Root    327 :    33.260472467526420
 Root    328 :    33.392447432199150
 Root    329 :    33.434960047672570
 Root    330 :    33.512695868314890
 Root    331 :    33.531944794937350
 Root    332 :    33.814951240000900
 Root    333 :    33.850317595508000
 Root    334 :    33.854889263729630
 Root    335 :    33.907967124981710
 Root    336 :    33.999118673615760
 Root    337 :    34.068768994618190
 Root    338 :    34.439624207156320
 Root    339 :    34.462206277671300
 Root    340 :    34.548550258581840
 Root    341 :    34.583975738119110
 Root    342 :    34.620269561974030
 Root    343 :    34.652003729884040
 Root    344 :    34.685322275083670
 Root    345 :    34.910612772084820
 Root    346 :    34.993743662208220
 Root    347 :    35.061651523211850
 Root    348 :    35.128698919634690
 Root    349 :    35.390277063061720
 Root    350 :    35.447033234050450
 Root    351 :    35.505165811504280
 Root    352 :    35.513341768223680
 Root    353 :    35.538944923169910
 Root    354 :    35.699518187177350
 Root    355 :    35.739230004897580
 Root    356 :    35.778434794157430
 Root    357 :    35.866700890920560
 Root    358 :    35.930405380740230
 Root    359 :    36.171883762087870
 Root    360 :    36.192659305326650
 Root    361 :    36.231071290914750
 Root    362 :    36.486478939794590
 Root    363 :    36.491650311398740
 Root    364 :    36.536679785324130
 Root    365 :    36.760765947846220
 Root    366 :    36.777972975060670
 Root    367 :    36.781409994477640
 Root    368 :    36.815087477484680
 Root    369 :    37.032504341978000
 Root    370 :    37.051196006115200
 Root    371 :    37.153700353854760
 Root    372 :    37.438096029361200
 Root    373 :    37.453895368232520
 Root    374 :    37.566874182088310
 Root    375 :    37.725586812153140
 Root    376 :    37.801276298895250
 Root    377 :    37.878279006263400
 Root    378 :    37.967831138602680
 Root    379 :    38.042806786835750
 Root    380 :    38.228003253549200
 Root    381 :    38.419324961070520
 Root    382 :    38.423903674591140
 Root    383 :    38.566587806306860
 Root    384 :    38.575989917580860
 Root    385 :    38.622703629133850
 Root    386 :    38.786620151430490
 Root    387 :    39.049283251832830
 Root    388 :    39.133714220896570
 Root    389 :    39.462157221659690
 Root    390 :    39.637138994517390
 Root    391 :    39.639380318501320
 Root    392 :    39.662820692766520
 Root    393 :    39.675410537812650
 Root    394 :    39.688488149147070
 Root    395 :    39.754759307732260
 Root    396 :    39.998891299552020
 Root    397 :    40.140264288852820
 Root    398 :    40.208771043879320
 Root    399 :    40.223592245399330
 Root    400 :    40.263157521849710
 Root    401 :    40.301269713420250
 Root    402 :    40.433375928258110
 Root    403 :    40.436175274015680
 Root    404 :    40.666901047853630
 Root    405 :    40.688260895735740
 Root    406 :    40.781812145343120
 Root    407 :    40.807326216469780
 Root    408 :    40.901174480734700
 Root    409 :    40.947630864120110
 Root    410 :    41.575603637821250
 Root    411 :    41.778116342831280
 Root    412 :    41.924342316603540
 Root    413 :    41.945288866756680
 Root    414 :    41.992221837347120
 Root    415 :    42.032355806970770
 Root    416 :    42.184685061502530
 Root    417 :    42.286828877697250
 Root    418 :    42.432059366599890
 Root    419 :    42.461979272163520
 Root    420 :    42.499388336345600
 Root    421 :    42.551436699667820
 Root    422 :    42.719383399262770
 Root    423 :    42.908642699749490
 Root    424 :    43.028513937599290
 Root    425 :    43.064754811688210
 Root    426 :    43.263121104176610
 Root    427 :    43.290663812925200
 Root    428 :    43.392448699528960
 Root    429 :    43.571723739045420
 Root    430 :    43.777153071551550
 Root    431 :    43.991776768614340
 Root    432 :    44.173987196881110
 Root    433 :    44.596899427676640
 Root    434 :    44.858688525930030
 Root    435 :    44.982895636729620
 Root    436 :    45.203724285617990
 Root    437 :    45.312553212689980
 Root    438 :    45.321728473003050
 Root    439 :    45.913592167538840
 Root    440 :    45.914395366946020
 Root    441 :    46.085568544060970
 Root    442 :    46.095724221609670
 Root    443 :    46.319434502577330
 Root    444 :    46.421327682757600
 Root    445 :    46.606263441041700
 Root    446 :    46.974131824069030
 Root    447 :    47.108206293994630
 Root    448 :    47.156535446714530
 Root    449 :    47.333236119965680
 Root    450 :    47.357771944608590
 Root    451 :    47.655413025861230
 Root    452 :    47.906700835228350
 Root    453 :    47.918160295376970
 Root    454 :    47.955949600597880
 Root    455 :    48.622139005154610
 Root    456 :    48.867168440806180
 Root    457 :    48.875848685732660
 Root    458 :    48.973291068997630
 Root    459 :    49.081389043720260
 Root    460 :    49.213328772212080
 Root    461 :    49.472327036804440
 Root    462 :    49.702179787790140
 Root    463 :    49.710219411356130
 Root    464 :    49.816980629828510
 Root    465 :    49.817800965500900
 Root    466 :    50.219591444131380
 Root    467 :    50.363457381501530
 Root    468 :    50.831458144981770
 Root    469 :    50.889832927459540
 Root    470 :    51.008966341368630
 Root    471 :    51.442563675550050
 Root    472 :    51.881230900634760
 Root    473 :    51.957291139095990
 Root    474 :    51.985256081740700
 Root    475 :    52.064297749269950
 Root    476 :    52.168291362880100
 Root    477 :    52.206426969459160
 Root    478 :    52.331119400124730
 Root    479 :    52.497142284900030
 Root    480 :    52.537664918722530
 Root    481 :    52.634862640739510
 Root    482 :    52.737338956198240
 Root    483 :    52.799640609112420
 Root    484 :    52.942933089501730
 Root    485 :    53.605957271017200
 Root    486 :    53.842668139145490
 Root    487 :    54.012648039658830
 Root    488 :    54.320384252521900
 Root    489 :    54.436303110181840
 Root    490 :    54.506503046420190
 Root    491 :    54.531474776384410
 Root    492 :    54.720916293842450
 Root    493 :    55.091051333638050
 Root    494 :    55.335050429010350
 Root    495 :    55.357163146981300
 Root    496 :    55.362892052326640
 Root    497 :    55.511356132963060
 Root    498 :    55.665181243488950
 Root    499 :    55.754734231791520
 Root    500 :    55.920086055287690
 Root    501 :    55.978625578178210
 Root    502 :    56.724506195274700
 Root    503 :    56.817887340359940
 Root    504 :    56.835013169727280
 Root    505 :    56.871778435865520
 Root    506 :    56.973847876510950
 Root    507 :    57.053250224898680
 Root    508 :    57.227105978993780
 Root    509 :    57.384494004327460
 Root    510 :    57.592394913395470
 Root    511 :    57.687857725786800
 Root    512 :    57.737988235375910
 Root    513 :    57.874702459222270
 Root    514 :    58.456022235159030
 Root    515 :    58.497092981209820
 Root    516 :    58.586677063657330
 Root    517 :    58.772208009344240
 Root    518 :    58.781349601693440
 Root    519 :    58.840802072203070
 Root    520 :    58.959136690233910
 Root    521 :    58.981741593975340
 Root    522 :    59.190134222181430
 Root    523 :    59.214760715867760
 Root    524 :    59.307883142202750
 Root    525 :    59.683847304923030
 Root    526 :    59.702850916309410
 Root    527 :    59.820642693288210
 Root    528 :    59.829409083549490
 Root    529 :    59.873692910050470
 Root    530 :    60.121166440734360
 Root    531 :    60.243424677386090
 Root    532 :    60.255830426739880
 Root    533 :    60.261881625059640
 Root    534 :    60.355992187349050
 Root    535 :    60.569479559158810
 Root    536 :    61.023142914920460
 Root    537 :    61.034024519588780
 Root    538 :    61.510354708771000
 Root    539 :    61.674264629680320
 Root    540 :    61.799263704857230
 Root    541 :    61.837124199063680
 Root    542 :    61.928754105468890
 Root    543 :    61.964754785160580
 Root    544 :    62.125978623627330
 Root    545 :    62.528799304487140
 Root    546 :    62.670346761126730
 Root    547 :    62.724907897434490
 Root    548 :    63.128766338362280
 Root    549 :    63.373426985594120
 Root    550 :    63.644402802951710
 Root    551 :    63.716707956595560
 Root    552 :    63.720980646159230
 Root    553 :    63.853777128316220
 Root    554 :    63.917325610014650
 Root    555 :    64.109102331143930
 Root    556 :    64.430474143724010
 Root    557 :    64.635681287762570
 Root    558 :    64.667839153646300
 Root    559 :    64.785081923554910
 Root    560 :    64.824477859075690
 Root    561 :    65.135250129454140
 Root    562 :    65.198934499604500
 Root    563 :    65.408156171766420
 Root    564 :    65.479676045026410
 Root    565 :    65.661724947252130
 Root    566 :    65.759853032444430
 Root    567 :    65.845176445321240
 Root    568 :    66.079040911454000
 Root    569 :    66.107729704185890
 Root    570 :    66.109855830784810
 Root    571 :    66.628749177959780
 Root    572 :    66.720557570462940
 Root    573 :    67.012080569893750
 Root    574 :    67.065793145652110
 Root    575 :    67.151255342894700
 Root    576 :    67.490775446274060
 Root    577 :    67.635528424472310
 Root    578 :    67.691145677515050
 Root    579 :    68.050737495730630
 Root    580 :    68.139478956774990
 Root    581 :    68.451346695626920
 Root    582 :    68.568696156267440
 Root    583 :    68.595100356223400
 Root    584 :    68.604736162251190
 Root    585 :    68.669396068395810
 Root    586 :    68.797544556332710
 Root    587 :    68.880016337263400
 Root    588 :    68.961465594964840
 Root    589 :    69.156027648228670
 Root    590 :    69.228050535749490
 Root    591 :    69.323266497234770
 Root    592 :    69.429031902106260
 Root    593 :    69.591180284568960
 Root    594 :    69.754057221264690
 Root    595 :    69.968620643578720
 Root    596 :    70.667693762714660
 Root    597 :    70.704990448009300
 Root    598 :    70.823695655690740
 Root    599 :    70.903142839015710
 Root    600 :    71.341133996343290
 Root    601 :    71.417550658994220
 Root    602 :    71.590219518865790
 Root    603 :    71.675542164641130
 Root    604 :    71.813334095427760
 Root    605 :    72.028091728360560
 Root    606 :    72.406104395381050
 Root    607 :    72.472727339807280
 Root    608 :    72.532968857028890
 Root    609 :    72.693667542911100
 Root    610 :    72.725661811208110
 Root    611 :    73.300775026513150
 Root    612 :    73.582162600815020
 Root    613 :    73.632131727678880
 Root    614 :    74.166703484255710
 Root    615 :    74.354835717216840
 Root    616 :    74.693167281303890
 Root    617 :    74.815133322750230
 Root    618 :    74.967492213286120
 Root    619 :    75.000988834674220
 Root    620 :    75.551905742143130
 Root    621 :    75.880224879538460
 Root    622 :    75.880691948170240
 Root    623 :    75.940025987377180
 Root    624 :    76.023363775696030
 Root    625 :    76.296171545672440
 Root    626 :    76.481365384311730
 Root    627 :    76.677248809382800
 Root    628 :    76.885603692630260
 Root    629 :    76.909339717564520
 Root    630 :    77.017423908737530
 Root    631 :    77.366551363827070
 Root    632 :    77.451813457908330
 Root    633 :    77.566784597275970
 Root    634 :    78.137714841467750
 Root    635 :    79.013291729577520
 Root    636 :    79.379212969824420
 Root    637 :    79.737563541571520
 Root    638 :    79.982859173541370
 Root    639 :    80.029629885256630
 Root    640 :    80.475064197715040
 Root    641 :    80.716057656066300
 Root    642 :    81.033845548862890
 Root    643 :    81.285288473512950
 Root    644 :    82.090396892956350
 Root    645 :    82.160349010692950
 Root    646 :    82.242822887144160
 Root    647 :    82.890591303710720
 Root    648 :    83.371274860329120
 Root    649 :    83.675853818853640
 Root    650 :    83.857281845466890
 Root    651 :    84.015920813776180
 Root    652 :    84.448146506070050
 Root    653 :    84.575940676192320
 Root    654 :    84.753305164296120
 Root    655 :    84.789724650970260
 Root    656 :    84.822068913736350
 Root    657 :    85.506564657575820
 Root    658 :    85.562331502034680
 Root    659 :    86.177402222277420
 Root    660 :    86.351002073459530
 Root    661 :    86.606189708673940
 Root    662 :    87.011810146172070
 Root    663 :    87.152341090199510
 Root    664 :    87.658818360317080
 Root    665 :    87.665534120497810
 Root    666 :    87.687892948872270
 Root    667 :    87.916870337460030
 Root    668 :    88.043936579831950
 Root    669 :    88.102075982408290
 Root    670 :    88.409517356895830
 Root    671 :    88.644747024582130
 Root    672 :    88.922759274848760
 Root    673 :    88.981307795710490
 Root    674 :    89.853778787729770
 Root    675 :    89.863905881469720
 Root    676 :    90.342996540140560
 Root    677 :    90.482195448475150
 Root    678 :    90.596441931583070
 Root    679 :    91.121930297390480
 Root    680 :    91.263764319544710
 Root    681 :    91.473419447551350
 Root    682 :    91.546620022691770
 Root    683 :    91.740344550235220
 Root    684 :    91.799818618814340
 Root    685 :    92.605513838306180
 Root    686 :    92.610793864401490
 Root    687 :    92.686713821579500
 Root    688 :    92.834727653672540
 Root    689 :    92.978573630482630
 Root    690 :    93.307471541052040
 Root    691 :    93.431599608063350
 Root    692 :    93.736776439748230
 Root    693 :    93.905444978431580
 Root    694 :    93.905609945387640
 Root    695 :    94.112279481652000
 Root    696 :    94.397157441336450
 Root    697 :    94.565688538783850
 Root    698 :    94.832302712121770
 Root    699 :    95.032593374659260
 Root    700 :    95.315748049478220
 Root    701 :    95.676821214502940
 Root    702 :    95.733139665170130
 Root    703 :    96.009487005851330
 Root    704 :    96.009774208417070
 Root    705 :    96.433721420905480
 Root    706 :    96.852058454794190
 Root    707 :    97.170017021054850
 Root    708 :    97.444985295870030
 Root    709 :    97.766716526407110
 Root    710 :    98.055680885092500
 Root    711 :    98.093767534979260
 Root    712 :    98.273954848488600
 Root    713 :    99.167411553922660
 Root    714 :    99.746881787726270
 Root    715 :   100.222730859266600
 Root    716 :   100.638735945528100
 Root    717 :   100.827976619689600
 Root    718 :   101.091836889942200
 Root    719 :   101.135696321373900
 Root    720 :   101.175289047599800
 Root    721 :   101.195984493786100
 Root    722 :   102.320174124318800
 Root    723 :   102.353627455044300
 Root    724 :   103.207765136237000
 Root    725 :   103.529403312645300
 Root    726 :   103.989054183327400
 Root    727 :   104.339548667416100
 Root    728 :   104.884930265368400
 Root    729 :   105.318973101093700
 Root    730 :   105.328976001194000
 Root    731 :   105.356661500322200
 Root    732 :   106.500973536259800
 Root    733 :   106.720510958917200
 Root    734 :   107.003601786114700
 Root    735 :   108.020826038583900
 Root    736 :   108.655016143327400
 Root    737 :   108.663912945050500
 Root    738 :   109.535312543236900
 Root    739 :   109.891260964174600
 Root    740 :   110.954883743423300
 Root    741 :   111.773652880256900
 Root    742 :   112.218991451492800
 Root    743 :   112.757065490801300
 Root    744 :   113.043076715761800
 Root    745 :   116.331055221618500
 Root    746 :   121.522532530040400
 Root    747 :   123.546553721952500
 Convergence achieved for final wavefunctions.
 ***********************************************************************
 Excited states from <AA,BB:AA,BB> singles matrix:
 ***********************************************************************
 
 1PDM for each excited state written to RWF  633
 Ground to excited state transition densities written to RWF  633
 Ground to excited state transition electric dipole moments (Au):
       state          X           Y           Z        Dip. S.      Osc.
         1         0.2940     -0.0000     -0.0000      0.0864      0.0172
         2        -0.3948     -0.0000      0.0000      0.1559      0.0321
         3        -0.0000     -0.0000     -0.0000      0.0000      0.0000
         4        -0.0000     -0.0000     -0.0000      0.0000      0.0000
         5         0.0000     -0.0000     -0.3144      0.0989      0.0220
         6         0.0000     -0.0000      0.3663      0.1342      0.0302
         7        -0.0000      0.0000     -0.5048      0.2548      0.0594
         8        -0.0000      0.6406      0.0000      0.4104      0.0987
         9         0.1473     -0.0000     -0.0000      0.0217      0.0054
        10         0.2787      0.0000     -0.0000      0.0777      0.0194
        11         0.0000     -0.7243      0.0000      0.5246      0.1363
        12         0.0000     -0.0000      0.0000      0.0000      0.0000
        13        -0.0000     -0.0000     -0.0000      0.0000      0.0000
        14         0.4410     -0.0000     -0.0000      0.1944      0.0536
        15         0.0000     -0.0000      0.2123      0.0451      0.0125
        16         0.0000      0.6713      0.0000      0.4507      0.1257
        17         0.0000     -0.0000      0.0000      0.0000      0.0000
        18         0.0000      0.3326      0.0000      0.1106      0.0314
[...]
      5   0.000000D+00  0.000000D+00  0.000000D+00 -0.960271D-01  0.433671D+00
      6   0.000000D+00  0.000000D+00  0.111370D-01  0.000000D+00  0.000000D+00
      7   0.000000D+00  0.841552D-01  0.000000D+00  0.000000D+00  0.000000D+00
      8   0.000000D+00  0.000000D+00  0.732544D+00  0.000000D+00  0.000000D+00
      9   0.000000D+00  0.000000D+00  0.000000D+00 -0.482447D+00  0.140722D+00
     10  -0.155067D+00  0.000000D+00  0.000000D+00  0.000000D+00  0.000000D+00
     11   0.000000D+00  0.881094D-02  0.000000D+00  0.000000D+00  0.000000D+00
     12   0.000000D+00 -0.637063D+00  0.000000D+00  0.000000D+00  0.000000D+00
     13   0.000000D+00  0.871286D-01  0.000000D+00  0.000000D+00  0.000000D+00
     14   0.989672D-01  0.000000D+00  0.000000D+00  0.000000D+00  0.000000D+00
     15   0.000000D+00  0.000000D+00  0.000000D+00 -0.308207D+00 -0.177727D+00
     16   0.000000D+00  0.000000D+00 -0.254136D+00  0.000000D+00  0.000000D+00
               681           682           683           684           685 
      1  -0.150273D+03 -0.150271D+03 -0.150264D+03 -0.150261D+03 -0.150232D+03
      2   0.000000D+00  0.000000D+00  0.000000D+00  0.000000D+00 -0.178136D+00
      3   0.000000D+00  0.000000D+00 -0.334398D+00  0.000000D+00  0.000000D+00
      4  -0.145283D+00  0.922949D-01  0.000000D+00  0.234545D-01  0.000000D+00
      5   0.000000D+00  0.000000D+00  0.000000D+00  0.000000D+00  0.517172D+00
      6   0.000000D+00  0.000000D+00  0.990984D+00  0.000000D+00  0.000000D+00
      7   0.463942D+00 -0.275283D+00  0.000000D+00 -0.830122D-01  0.000000D+00
      8   0.000000D+00  0.000000D+00 -0.133314D+01  0.000000D+00  0.000000D+00
      9   0.000000D+00  0.000000D+00  0.000000D+00  0.000000D+00  0.396214D+00
     10   0.000000D+00  0.000000D+00  0.000000D+00  0.000000D+00  0.000000D+00
     11  -0.123625D+00  0.185354D+00  0.000000D+00  0.230529D+00  0.000000D+00
     12   0.379616D+00  0.588463D-01  0.000000D+00  0.480162D+00  0.000000D+00
     13   0.199472D+01 -0.135901D+01  0.000000D+00 -0.380417D+00  0.000000D+00
     14   0.000000D+00  0.000000D+00  0.000000D+00  0.000000D+00  0.000000D+00
     15   0.000000D+00  0.000000D+00  0.000000D+00  0.000000D+00  0.548366D+00
     16   0.000000D+00  0.000000D+00  0.163310D+01  0.000000D+00  0.000000D+00
               686           687           688           689           690 
      1  -0.150232D+03 -0.150229D+03 -0.150223D+03 -0.150218D+03 -0.150206D+03
      2   0.000000D+00  0.000000D+00  0.000000D+00  0.158508D+00  0.000000D+00
      3   0.000000D+00  0.000000D+00  0.459428D-01  0.000000D+00  0.000000D+00
      4   0.694602D-01  0.000000D+00  0.000000D+00  0.000000D+00 -0.263069D-01
      5   0.000000D+00  0.000000D+00  0.000000D+00 -0.447144D+00  0.000000D+00
      6   0.000000D+00  0.000000D+00 -0.933892D-01  0.000000D+00  0.000000D+00
      7  -0.231609D+00  0.000000D+00  0.000000D+00  0.000000D+00  0.794049D-01
      8   0.000000D+00  0.000000D+00 -0.252666D+00  0.000000D+00  0.000000D+00
      9   0.000000D+00  0.000000D+00  0.000000D+00 -0.883177D+00  0.000000D+00
     10   0.000000D+00  0.109009D+00  0.000000D+00  0.000000D+00  0.000000D+00
     11  -0.282515D+00  0.000000D+00  0.000000D+00  0.000000D+00  0.194380D+00
     12   0.172506D+00  0.000000D+00  0.000000D+00  0.000000D+00 -0.219946D+00
     13  -0.104429D+01  0.000000D+00  0.000000D+00  0.000000D+00  0.640005D+00
     14   0.000000D+00  0.768041D-01  0.000000D+00  0.000000D+00  0.000000D+00
     15   0.000000D+00  0.000000D+00  0.000000D+00 -0.105401D+01  0.000000D+00
     16   0.000000D+00  0.000000D+00 -0.329536D-01  0.000000D+00  0.000000D+00
               691           692           693           694           695 
      1  -0.150201D+03 -0.150190D+03 -0.150184D+03 -0.150184D+03 -0.150176D+03
      2   0.000000D+00  0.000000D+00  0.000000D+00  0.857264D-01 -0.192040D+00
      3   0.000000D+00  0.000000D+00  0.000000D+00  0.000000D+00  0.000000D+00
      4   0.000000D+00  0.476273D-01  0.000000D+00  0.000000D+00  0.000000D+00
      5   0.000000D+00  0.000000D+00  0.000000D+00 -0.264246D+00  0.541777D+00
      6   0.000000D+00  0.000000D+00  0.000000D+00  0.000000D+00  0.000000D+00
      7   0.000000D+00 -0.168350D+00  0.000000D+00  0.000000D+00  0.000000D+00
      8   0.000000D+00  0.000000D+00  0.000000D+00  0.000000D+00  0.000000D+00
      9   0.000000D+00  0.000000D+00  0.000000D+00 -0.533272D+00  0.170433D+00
     10  -0.995990D-01  0.000000D+00 -0.284246D+00  0.000000D+00  0.000000D+00
     11   0.000000D+00  0.365020D+00  0.000000D+00  0.000000D+00  0.000000D+00
     12   0.000000D+00 -0.423246D+00  0.000000D+00  0.000000D+00  0.000000D+00
     13   0.000000D+00 -0.758898D+00  0.000000D+00  0.000000D+00  0.000000D+00
     14  -0.818887D-01  0.000000D+00  0.178963D+00  0.000000D+00  0.000000D+00
     15   0.000000D+00  0.000000D+00  0.000000D+00 -0.632097D+00  0.445589D+00
     16   0.000000D+00  0.000000D+00  0.000000D+00  0.000000D+00  0.000000D+00
               696           697           698           699           700 
      1  -0.150166D+03 -0.150160D+03 -0.150150D+03 -0.150143D+03 -0.150132D+03
      2   0.000000D+00  0.000000D+00  0.000000D+00  0.000000D+00  0.000000D+00
      3  -0.105466D-01  0.635202D-01 -0.130181D+00  0.877377D-01  0.000000D+00
      4   0.000000D+00  0.000000D+00  0.000000D+00  0.000000D+00  0.000000D+00
      5   0.000000D+00  0.000000D+00  0.000000D+00  0.000000D+00  0.000000D+00
      6   0.211642D-01 -0.175643D+00  0.406142D+00 -0.279916D+00  0.000000D+00
      7   0.000000D+00  0.000000D+00  0.000000D+00  0.000000D+00  0.000000D+00
      8  -0.162764D+00 -0.156420D+00 -0.509601D+00  0.519586D+00  0.000000D+00
      9   0.000000D+00  0.000000D+00  0.000000D+00  0.000000D+00  0.000000D+00
     10   0.000000D+00  0.000000D+00  0.000000D+00  0.000000D+00  0.272636D+00
     11   0.000000D+00  0.000000D+00  0.000000D+00  0.000000D+00  0.000000D+00
     12   0.000000D+00  0.000000D+00  0.000000D+00  0.000000D+00  0.000000D+00
     13   0.000000D+00  0.000000D+00  0.000000D+00  0.000000D+00  0.000000D+00
     14   0.000000D+00  0.000000D+00  0.000000D+00  0.000000D+00 -0.264499D+00
     15   0.000000D+00  0.000000D+00  0.000000D+00  0.000000D+00  0.000000D+00
     16   0.466446D+00  0.397581D-01  0.698145D+00 -0.535726D+00  0.000000D+00
               701           702           703           704           705 
      1  -0.150119D+03 -0.150117D+03 -0.150107D+03 -0.150107D+03 -0.150091D+03
      2   0.000000D+00  0.000000D+00  0.000000D+00  0.000000D+00  0.000000D+00
      3   0.186584D-01  0.000000D+00  0.000000D+00 -0.103934D+00  0.000000D+00
      4   0.000000D+00 -0.184160D-01  0.000000D+00  0.000000D+00  0.000000D+00
      5   0.000000D+00  0.000000D+00  0.000000D+00  0.000000D+00  0.000000D+00
      6  -0.807769D-01  0.000000D+00  0.000000D+00  0.312199D+00  0.000000D+00
      7   0.000000D+00  0.614879D-01  0.000000D+00  0.000000D+00  0.000000D+00
      8  -0.423180D-01  0.000000D+00  0.000000D+00 -0.708818D+00  0.000000D+00
      9   0.000000D+00  0.000000D+00  0.000000D+00  0.000000D+00  0.000000D+00
     10   0.000000D+00  0.000000D+00  0.440182D-01  0.000000D+00 -0.312431D+00
     11   0.000000D+00  0.130258D-01  0.000000D+00  0.000000D+00  0.000000D+00
     12   0.000000D+00 -0.841045D-01  0.000000D+00  0.000000D+00  0.000000D+00
     13   0.000000D+00  0.471950D+00  0.000000D+00  0.000000D+00  0.000000D+00
     14   0.000000D+00  0.000000D+00 -0.370908D-01  0.000000D+00  0.508666D+00
     15   0.000000D+00  0.000000D+00  0.000000D+00  0.000000D+00  0.000000D+00
     16  -0.301321D+00  0.000000D+00  0.000000D+00  0.795147D+00  0.000000D+00
               706           707           708           709           710 
      1  -0.150076D+03 -0.150064D+03 -0.150054D+03 -0.150042D+03 -0.150031D+03
      2  -0.275191D-01  0.000000D+00  0.000000D+00 -0.697201D-02  0.000000D+00
      3   0.000000D+00 -0.888296D-01  0.000000D+00  0.000000D+00  0.000000D+00
      4   0.000000D+00  0.000000D+00  0.593970D-01  0.000000D+00  0.319470D-01
      5   0.814705D-01  0.000000D+00  0.000000D+00 -0.105416D-01  0.000000D+00
      6   0.000000D+00  0.280497D+00  0.000000D+00  0.000000D+00  0.000000D+00
      7   0.000000D+00  0.000000D+00 -0.219866D+00  0.000000D+00 -0.963167D-01
      8   0.000000D+00 -0.586581D+00  0.000000D+00  0.000000D+00  0.000000D+00
      9   0.573779D+00  0.000000D+00  0.000000D+00  0.293835D+00  0.000000D+00
     10   0.000000D+00  0.000000D+00  0.000000D+00  0.000000D+00  0.000000D+00
     11   0.000000D+00  0.000000D+00  0.949454D-01  0.000000D+00 -0.391123D+00
     12   0.000000D+00  0.000000D+00  0.543131D+00  0.000000D+00  0.651450D+00
     13   0.000000D+00  0.000000D+00  0.397499D-01  0.000000D+00  0.388895D+00
     14   0.000000D+00  0.000000D+00  0.000000D+00  0.000000D+00  0.000000D+00
     15   0.738665D+00  0.000000D+00  0.000000D+00  0.443378D+00  0.000000D+00
     16   0.000000D+00  0.717698D+00  0.000000D+00  0.000000D+00  0.000000D+00
               711           712           713           714           715 
      1  -0.150030D+03 -0.150023D+03 -0.149991D+03 -0.149969D+03 -0.149952D+03
      2   0.000000D+00  0.507757D-01  0.000000D+00  0.000000D+00  0.000000D+00
      3   0.000000D+00  0.000000D+00  0.000000D+00  0.000000D+00  0.000000D+00
      4  -0.620451D-01  0.000000D+00  0.000000D+00  0.690651D-02  0.000000D+00
      5   0.000000D+00 -0.146894D+00  0.000000D+00  0.000000D+00  0.000000D+00
      6   0.000000D+00  0.000000D+00  0.000000D+00  0.000000D+00  0.000000D+00
      7   0.204881D+00  0.000000D+00  0.000000D+00 -0.122616D-01  0.000000D+00
      8   0.000000D+00  0.000000D+00  0.000000D+00  0.000000D+00  0.000000D+00
      9   0.000000D+00  0.642201D-01  0.000000D+00  0.000000D+00  0.000000D+00
     10   0.000000D+00  0.000000D+00 -0.427135D-01  0.000000D+00 -0.441082D+00
     11   0.781685D-01  0.000000D+00  0.000000D+00  0.483692D-01  0.000000D+00
     12   0.884078D-01  0.000000D+00  0.000000D+00 -0.731014D+00  0.000000D+00
     13   0.313008D+00  0.000000D+00  0.000000D+00  0.481577D-01  0.000000D+00
     14   0.000000D+00  0.000000D+00 -0.295897D+00  0.000000D+00  0.533503D+00
     15   0.000000D+00  0.893990D-01  0.000000D+00  0.000000D+00  0.000000D+00
     16   0.000000D+00  0.000000D+00  0.000000D+00  0.000000D+00  0.000000D+00
               716           717           718           719           720 
      1  -0.149937D+03 -0.149930D+03 -0.149920D+03 -0.149918D+03 -0.149917D+03
      2   0.000000D+00  0.000000D+00  0.000000D+00  0.338682D+00  0.000000D+00
      3  -0.307666D-01  0.000000D+00  0.000000D+00  0.000000D+00 -0.917192D-01
      4   0.000000D+00  0.000000D+00 -0.107941D+00  0.000000D+00  0.000000D+00
      5   0.000000D+00  0.000000D+00  0.000000D+00 -0.108793D+01  0.000000D+00
      6   0.684209D-01  0.000000D+00  0.000000D+00  0.000000D+00  0.311741D+00
      7   0.000000D+00  0.000000D+00  0.387559D+00  0.000000D+00  0.000000D+00
      8   0.282161D-01  0.000000D+00  0.000000D+00  0.000000D+00 -0.458988D-01
      9   0.000000D+00  0.000000D+00  0.000000D+00 -0.156530D+01  0.000000D+00
     10   0.000000D+00 -0.696470D-01  0.000000D+00  0.000000D+00  0.000000D+00
     11   0.000000D+00  0.000000D+00 -0.175530D+00  0.000000D+00  0.000000D+00
     12   0.000000D+00  0.000000D+00 -0.341496D+00  0.000000D+00  0.000000D+00
     13   0.000000D+00  0.000000D+00  0.212751D+01  0.000000D+00  0.000000D+00
     14   0.000000D+00 -0.115821D+00  0.000000D+00  0.000000D+00  0.000000D+00
     15   0.000000D+00  0.000000D+00  0.000000D+00 -0.189812D+01  0.000000D+00
     16  -0.518537D-01  0.000000D+00  0.000000D+00  0.000000D+00 -0.654859D-01
               721           722           723           724           725 
      1  -0.149916D+03 -0.149875D+03 -0.149874D+03 -0.149842D+03 -0.149830D+03
      2   0.000000D+00  0.000000D+00 -0.113582D+00  0.000000D+00  0.000000D+00
      3   0.000000D+00 -0.429115D-01  0.000000D+00  0.000000D+00 -0.232784D+00
      4   0.000000D+00  0.000000D+00  0.000000D+00  0.000000D+00  0.000000D+00
      5   0.000000D+00  0.000000D+00  0.370648D+00  0.000000D+00  0.000000D+00
      6   0.000000D+00  0.160973D+00  0.000000D+00  0.000000D+00  0.784751D+00
      7   0.000000D+00  0.000000D+00  0.000000D+00  0.000000D+00  0.000000D+00
      8   0.000000D+00 -0.113991D+00  0.000000D+00  0.000000D+00 -0.933128D+00
      9   0.000000D+00  0.000000D+00  0.736863D+00  0.000000D+00  0.000000D+00
     10  -0.215066D+00  0.000000D+00  0.000000D+00 -0.159279D+00  0.000000D+00
     11   0.000000D+00  0.000000D+00  0.000000D+00  0.000000D+00  0.000000D+00
     12   0.000000D+00  0.000000D+00  0.000000D+00  0.000000D+00  0.000000D+00
     13   0.000000D+00  0.000000D+00  0.000000D+00  0.000000D+00  0.000000D+00
     14   0.246802D+00  0.000000D+00  0.000000D+00  0.179193D+00  0.000000D+00
     15   0.000000D+00  0.000000D+00  0.113310D+01  0.000000D+00  0.000000D+00
     16   0.000000D+00 -0.149162D+00  0.000000D+00  0.000000D+00  0.111532D+01
               726           727           728           729           730 
      1  -0.149813D+03 -0.149801D+03 -0.149781D+03 -0.149765D+03 -0.149764D+03
      2   0.000000D+00  0.117160D-01  0.000000D+00  0.111263D-01  0.000000D+00
      3   0.654761D-01  0.000000D+00  0.000000D+00  0.000000D+00  0.000000D+00
      4   0.000000D+00  0.000000D+00  0.501017D-01  0.000000D+00  0.000000D+00
      5   0.000000D+00 -0.265899D-01  0.000000D+00 -0.411302D-01  0.000000D+00
      6  -0.224153D+00  0.000000D+00  0.000000D+00  0.000000D+00  0.000000D+00
      7   0.000000D+00  0.000000D+00 -0.180020D+00  0.000000D+00  0.000000D+00
      8   0.127729D+00  0.000000D+00  0.000000D+00  0.000000D+00  0.000000D+00
      9   0.000000D+00  0.264036D+00  0.000000D+00  0.220945D+00  0.000000D+00
     10   0.000000D+00  0.000000D+00  0.000000D+00  0.000000D+00 -0.208222D+00
     11   0.000000D+00  0.000000D+00 -0.114664D+00  0.000000D+00  0.000000D+00
     12   0.000000D+00  0.000000D+00  0.165741D+00  0.000000D+00  0.000000D+00
     13   0.000000D+00  0.000000D+00 -0.418639D+00  0.000000D+00  0.000000D+00
     14   0.000000D+00  0.000000D+00  0.000000D+00  0.000000D+00  0.346240D+00
     15   0.000000D+00  0.347422D+00  0.000000D+00  0.432823D+00  0.000000D+00
     16  -0.164318D+00  0.000000D+00  0.000000D+00  0.000000D+00  0.000000D+00
               731           732           733           734           735 
      1  -0.149763D+03 -0.149721D+03 -0.149713D+03 -0.149703D+03 -0.149665D+03
      2   0.148528D+00  0.000000D+00  0.956799D-01  0.000000D+00  0.000000D+00
      3   0.000000D+00  0.000000D+00  0.000000D+00  0.000000D+00 -0.162672D+00
      4   0.000000D+00 -0.113237D+00  0.000000D+00 -0.292212D+00  0.000000D+00
      5  -0.469444D+00  0.000000D+00 -0.315022D+00  0.000000D+00  0.000000D+00
      6   0.000000D+00  0.000000D+00  0.000000D+00  0.000000D+00  0.581889D+00
      7   0.000000D+00  0.415303D+00  0.000000D+00  0.106469D+01  0.000000D+00
      8   0.000000D+00  0.000000D+00  0.000000D+00  0.000000D+00 -0.114077D+01
      9  -0.205297D+00  0.000000D+00 -0.601258D+00  0.000000D+00  0.000000D+00
     10   0.000000D+00  0.000000D+00  0.000000D+00  0.000000D+00  0.000000D+00
     11   0.000000D+00  0.172017D+00  0.000000D+00 -0.200310D+00  0.000000D+00
     12   0.000000D+00 -0.354304D+00  0.000000D+00  0.183824D-01  0.000000D+00
     13   0.000000D+00  0.124778D+01  0.000000D+00  0.282504D+01  0.000000D+00
     14   0.000000D+00  0.000000D+00  0.000000D+00  0.000000D+00  0.000000D+00
     15  -0.660702D-01  0.000000D+00 -0.798764D+00  0.000000D+00  0.000000D+00
     16   0.000000D+00  0.000000D+00  0.000000D+00  0.000000D+00  0.108782D+01
               736           737           738           739           740 
      1  -0.149642D+03 -0.149642D+03 -0.149610D+03 -0.149597D+03 -0.149557D+03
      2   0.000000D+00  0.000000D+00  0.000000D+00  0.000000D+00  0.000000D+00
      3   0.000000D+00  0.000000D+00  0.000000D+00  0.407296D-01  0.000000D+00
      4   0.000000D+00 -0.768379D-01  0.000000D+00  0.000000D+00  0.177683D-02
      5   0.000000D+00  0.000000D+00  0.000000D+00  0.000000D+00  0.000000D+00
      6   0.000000D+00  0.000000D+00  0.000000D+00 -0.116307D+00  0.000000D+00
      7   0.000000D+00  0.267772D+00  0.000000D+00  0.000000D+00  0.216255D-01
      8   0.000000D+00  0.000000D+00  0.000000D+00  0.315328D+00  0.000000D+00
      9   0.000000D+00  0.000000D+00  0.000000D+00  0.000000D+00  0.000000D+00
     10   0.147470D+00  0.000000D+00  0.938877D-01  0.000000D+00  0.000000D+00
     11   0.000000D+00 -0.263360D+00  0.000000D+00  0.000000D+00 -0.153351D+00
     12   0.000000D+00  0.108909D+00  0.000000D+00  0.000000D+00  0.321573D+00
     13   0.000000D+00  0.673408D+00  0.000000D+00  0.000000D+00  0.112226D+01
     14  -0.138407D+00  0.000000D+00 -0.462239D+00  0.000000D+00  0.000000D+00
     15   0.000000D+00  0.000000D+00  0.000000D+00  0.000000D+00  0.000000D+00
     16   0.000000D+00  0.000000D+00  0.000000D+00  0.376288D+00  0.000000D+00
               741           742           743           744           745 
      1  -0.149527D+03 -0.149511D+03 -0.149491D+03 -0.149481D+03 -0.149360D+03
      2   0.000000D+00  0.000000D+00  0.410233D-01  0.000000D+00  0.000000D+00
      3   0.649941D-01  0.000000D+00  0.000000D+00 -0.129018D-01  0.000000D+00
      4   0.000000D+00 -0.192567D-01  0.000000D+00  0.000000D+00  0.000000D+00
      5   0.000000D+00  0.000000D+00 -0.153990D+00  0.000000D+00  0.000000D+00
      6  -0.219471D+00  0.000000D+00  0.000000D+00  0.325858D-01  0.000000D+00
      7   0.000000D+00  0.164875D+00  0.000000D+00  0.000000D+00  0.000000D+00
      8   0.142625D+00  0.000000D+00  0.000000D+00  0.197316D-03  0.000000D+00
      9   0.000000D+00  0.000000D+00 -0.517679D+00  0.000000D+00  0.000000D+00
     10   0.000000D+00  0.000000D+00  0.000000D+00  0.000000D+00  0.303179D+00
     11   0.000000D+00 -0.372744D-01  0.000000D+00  0.000000D+00  0.000000D+00
     12   0.000000D+00 -0.741863D-01  0.000000D+00  0.000000D+00  0.000000D+00
     13   0.000000D+00  0.147546D+01  0.000000D+00  0.000000D+00  0.000000D+00
     14   0.000000D+00  0.000000D+00  0.000000D+00  0.000000D+00 -0.219522D+00
     15   0.000000D+00  0.000000D+00 -0.348782D+00  0.000000D+00  0.000000D+00
     16  -0.130883D+00  0.000000D+00  0.000000D+00  0.740872D+00  0.000000D+00
               746           747 
      1  -0.149169D+03 -0.149095D+03
      2   0.000000D+00  0.000000D+00
      3   0.000000D+00  0.418276D-01
      4   0.296886D-01  0.000000D+00
      5   0.000000D+00  0.000000D+00
      6   0.000000D+00 -0.210645D+00
      7  -0.205620D+00  0.000000D+00
      8   0.000000D+00  0.325610D+00
      9   0.000000D+00  0.000000D+00
     10   0.000000D+00  0.000000D+00
     11  -0.111901D+00  0.000000D+00
     12  -0.582714D-01  0.000000D+00
     13  -0.703095D+00  0.000000D+00
     14   0.000000D+00  0.000000D+00
     15   0.000000D+00  0.000000D+00
     16   0.000000D+00 -0.215225D+00
 Unable to Open any file for archive entry.
 1\1\GINC-HEL09\SP\RwB97XD TD-FC\Gen\C2H4O1\RR\21-Mar-2022\0\\#P TD(Nst
 ates=10000) wB97XD/Gen SCF(maxcycles=100) Int(Grid=ultrafine)\\xGDB7_0
 0001_tier4.com\\0,1\C,0,0.,0.729549,-0.367364\C,0,0.,-0.729549,-0.3673
 64\O,0,0.,0.,0.845033\H,0,-0.918945,1.264243,-0.587975\H,0,0.918945,1.
 264243,-0.587975\H,0,0.918945,-1.264243,-0.587975\H,0,-0.918945,-1.264
 243,-0.587975\\Version=EM64L-G16RevC.01\State=1-A1\HF=-153.6349614\RMS
 D=5.349e-09\PG=C02V [C2(O1),SGV(C2),X(H4)]\\@
 The archive entry for this job was punched.


 THE MOLECULE ALSO HAS A BODY.  WHEN THIS BODY IS HIT, THE MOLECULE
 FEELS HURT ALL OVER -- A. KITAIGORODSKI
 Job cpu time:       0 days  0 hours  4 minutes 13.6 seconds.
 Elapsed time:       0 days  0 hours  0 minutes 32.0 seconds.
 File lengths (MBytes):  RWF=    719 Int=      0 D2E=      0 Chk=    165 Scr=      1
 Normal termination of Gaussian 16 at Mon Mar 21 15:54:01 2022.
