 Entering Gaussian System, Link 0=g16
 Input=bigQM7w_TDwB97XD_def2SVPD_at_def2TZVP_000032.com
 Output=bigQM7w_TDwB97XD_def2SVPD_at_def2TZVP_000032.log
 Initial command:
 /home/rr/g16/l1.exe "/scratch/rr/PBS_7962956.helios/Gau-2952.inp" -scrdir="/scratch/rr/PBS_7962956.helios/"
 Entering Link 1 = /home/rr/g16/l1.exe PID=      2968.
  
 Copyright (c) 1988-2019, Gaussian, Inc.  All Rights Reserved.
  
 This is part of the Gaussian(R) 16 program.  It is based on
 the Gaussian(R) 09 system (copyright 2009, Gaussian, Inc.),
 the Gaussian(R) 03 system (copyright 2003, Gaussian, Inc.),
 the Gaussian(R) 98 system (copyright 1998, Gaussian, Inc.),
 the Gaussian(R) 94 system (copyright 1995, Gaussian, Inc.),
 the Gaussian 92(TM) system (copyright 1992, Gaussian, Inc.),
 the Gaussian 90(TM) system (copyright 1990, Gaussian, Inc.),
 the Gaussian 88(TM) system (copyright 1988, Gaussian, Inc.),
 the Gaussian 86(TM) system (copyright 1986, Carnegie Mellon
 University), and the Gaussian 82(TM) system (copyright 1983,
 Carnegie Mellon University). Gaussian is a federally registered
 trademark of Gaussian, Inc.
  
 This software contains proprietary and confidential information,
 including trade secrets, belonging to Gaussian, Inc.
  
 This software is provided under written license and may be
 used, copied, transmitted, or stored only in accord with that
 written license.
  
 The following legend is applicable only to US Government
 contracts under FAR:
  
                    RESTRICTED RIGHTS LEGEND
  
 Use, reproduction and disclosure by the US Government is
 subject to restrictions as set forth in subparagraphs (a)
 and (c) of the Commercial Computer Software - Restricted
 Rights clause in FAR 52.227-19.
  
 Gaussian, Inc.
 340 Quinnipiac St., Bldg. 40, Wallingford CT 06492
  
  
 ---------------------------------------------------------------
 Warning -- This program may not be used in any manner that
 competes with the business of Gaussian, Inc. or will provide
 assistance to any competitor of Gaussian, Inc.  The licensee
 of this program is prohibited from giving any competitor of
 Gaussian, Inc. access to this program.  By using this program,
 the user acknowledges that Gaussian, Inc. is engaged in the
 business of creating and licensing software in the field of
 computational chemistry and represents and warrants to the
 licensee that it is not a competitor of Gaussian, Inc. and that
 it will not use this program in any manner prohibited above.
 ---------------------------------------------------------------
  

 Cite this work as:
 Gaussian 16, Revision C.01,
 M. J. Frisch, G. W. Trucks, H. B. Schlegel, G. E. Scuseria, 
 M. A. Robb, J. R. Cheeseman, G. Scalmani, V. Barone, 
 G. A. Petersson, H. Nakatsuji, X. Li, M. Caricato, A. V. Marenich, 
 J. Bloino, B. G. Janesko, R. Gomperts, B. Mennucci, H. P. Hratchian, 
 J. V. Ortiz, A. F. Izmaylov, J. L. Sonnenberg, D. Williams-Young, 
 F. Ding, F. Lipparini, F. Egidi, J. Goings, B. Peng, A. Petrone, 
 T. Henderson, D. Ranasinghe, V. G. Zakrzewski, J. Gao, N. Rega, 
 G. Zheng, W. Liang, M. Hada, M. Ehara, K. Toyota, R. Fukuda, 
 J. Hasegawa, M. Ishida, T. Nakajima, Y. Honda, O. Kitao, H. Nakai, 
 T. Vreven, K. Throssell, J. A. Montgomery, Jr., J. E. Peralta, 
 F. Ogliaro, M. J. Bearpark, J. J. Heyd, E. N. Brothers, K. N. Kudin, 
 V. N. Staroverov, T. A. Keith, R. Kobayashi, J. Normand, 
 K. Raghavachari, A. P. Rendell, J. C. Burant, S. S. Iyengar, 
 J. Tomasi, M. Cossi, J. M. Millam, M. Klene, C. Adamo, R. Cammi, 
 J. W. Ochterski, R. L. Martin, K. Morokuma, O. Farkas, 
 J. B. Foresman, and D. J. Fox, Gaussian, Inc., Wallingford CT, 2019.
 
 ******************************************
 Gaussian 16:  EM64L-G16RevC.01  3-Jul-2019
                21-Mar-2022 
 ******************************************
 %mem=64gb
 %nproc=8
 Will use up to    8 processors via shared memory.
 ----------------------------------------------------------------------
 #P TD(Nstates=10000) wB97XD/Gen SCF(maxcycles=100) Int(Grid=ultrafine)
 ----------------------------------------------------------------------
 1/38=1,172=1/1;
 2/12=2,17=6,18=5,40=1/2;
 3/5=7,11=9,25=1,30=1,74=-58,75=-5/1,2,3,8;
 4//1;
 5/5=2,7=100,38=5/2;
 8/6=1,10=1,108=10000/1;
 9/41=10000,42=1,70=2/14;
 6/7=2,8=2,9=2,10=2/1;
 99/5=1,9=1/99;
 Leave Link    1 at Mon Mar 21 15:51:16 2022, MaxMem=  8589934592 cpu:               0.4 elap:               0.1
 (Enter /home/rr/g16/l101.exe)
 ---------------------
 xGDB7_00001_tier4.com
 ---------------------
 Symbolic Z-matrix:
 Charge =  0 Multiplicity = 1
 6                     0.73852  -0.39489   0.02374 
 6                    -0.73852  -0.39489   0.02374 
 7                     0.        0.84955  -0.17205 
 1                     1.27687  -0.74725  -0.84737 
 1                     1.24492  -0.55689   0.96857 
 1                    -1.24492  -0.55689   0.96857 
 1                    -1.27687  -0.74725  -0.84737 
 1                     0.        1.40008   0.67709 
 
 ITRead=  0  0  0  0  0  0  0  0
 MicOpt= -1 -1 -1 -1 -1 -1 -1 -1
 NAtoms=      8 NQM=        8 NQMF=       0 NMMI=      0 NMMIF=      0
                NMic=       0 NMicF=      0.
                    Isotopes and Nuclear Properties:
 (Nuclear quadrupole moments (NQMom) in fm**2, nuclear magnetic moments (NMagM)
  in nuclear magnetons)

  Atom         1           2           3           4           5           6           7           8
 IAtWgt=          12          12          14           1           1           1           1           1
 AtmWgt=  12.0000000  12.0000000  14.0030740   1.0078250   1.0078250   1.0078250   1.0078250   1.0078250
 NucSpn=           0           0           2           1           1           1           1           1
 AtZEff=  -0.0000000  -0.0000000  -0.0000000  -0.0000000  -0.0000000  -0.0000000  -0.0000000  -0.0000000
 NQMom=    0.0000000   0.0000000   2.0440000   0.0000000   0.0000000   0.0000000   0.0000000   0.0000000
 NMagM=    0.0000000   0.0000000   0.4037610   2.7928460   2.7928460   2.7928460   2.7928460   2.7928460
 AtZNuc=   6.0000000   6.0000000   7.0000000   1.0000000   1.0000000   1.0000000   1.0000000   1.0000000
 Leave Link  101 at Mon Mar 21 15:51:17 2022, MaxMem=  8589934592 cpu:               0.8 elap:               0.1
 (Enter /home/rr/g16/l202.exe)
                          Input orientation:                          
 ---------------------------------------------------------------------
 Center     Atomic      Atomic             Coordinates (Angstroms)
 Number     Number       Type             X           Y           Z
 ---------------------------------------------------------------------
      1          6           0        0.738519   -0.394885    0.023737
      2          6           0       -0.738519   -0.394885    0.023737
      3          7           0        0.000000    0.849548   -0.172046
      4          1           0        1.276872   -0.747254   -0.847373
      5          1           0        1.244917   -0.556892    0.968566
      6          1           0       -1.244917   -0.556892    0.968566
      7          1           0       -1.276872   -0.747254   -0.847373
      8          1           0        0.000000    1.400076    0.677088
 ---------------------------------------------------------------------
                    Distance matrix (angstroms):
                    1          2          3          4          5
     1  C    0.000000
     2  C    1.477038   0.000000
     3  N    1.460258   1.460258   0.000000
     4  H    1.082968   2.223690   2.153194   0.000000
     5  H    1.084153   2.202945   2.197473   1.826169   0.000000
     6  H    2.202945   1.084153   2.197473   3.113405   2.489834
     7  H    2.223690   1.082968   2.153194   2.553744   3.113405
     8  H    2.047966   2.047966   1.011983   2.926672   2.337627
                    6          7          8
     6  H    0.000000
     7  H    1.826169   0.000000
     8  H    2.337627   2.926672   0.000000
 Stoichiometry    C2H5N
 Framework group  CS[SG(HN),X(C2H4)]
 Deg. of freedom    10
 Full point group                 CS      NOp   2
 Largest Abelian subgroup         CS      NOp   2
 Largest concise Abelian subgroup CS      NOp   2
                         Standard orientation:                         
 ---------------------------------------------------------------------
 Center     Atomic      Atomic             Coordinates (Angstroms)
 Number     Number       Type             X           Y           Z
 ---------------------------------------------------------------------
      1          6           0        0.037922   -0.393776    0.738519
      2          6           0        0.037922   -0.393776   -0.738519
      3          7           0        0.037922    0.865964    0.000000
      4          1           0        0.953211   -0.606479    1.276872
      5          1           0       -0.870248   -0.700655    1.244917
      6          1           0       -0.870248   -0.700655   -1.244917
      7          1           0        0.953211   -0.606479   -1.276872
      8          1           0       -0.886454    1.277834    0.000000
 ---------------------------------------------------------------------
 Rotational constants (GHZ):          23.2353256          21.3975311          13.6103322
 Leave Link  202 at Mon Mar 21 15:51:17 2022, MaxMem=  8589934592 cpu:               0.1 elap:               0.0
 (Enter /home/rr/g16/l301.exe)
 General basis read from cards:  (5D, 7F)
 Centers:       4      5      6      7      8
 S 3 1.00
     Exponent=  1.3010701000D+01 Coefficients=  1.9682158000D-02
     Exponent=  1.9622572000D+00 Coefficients=  1.3796524000D-01
     Exponent=  4.4453796000D-01 Coefficients=  4.7831935000D-01
 S 1 1.00
     Exponent=  1.2194962000D-01 Coefficients=  1.0000000000D+00
 P 1 1.00
     Exponent=  8.0000000000D-01 Coefficients=  1.0000000000D+00
 P 1 1.00
     Exponent=  1.1704099050D-01 Coefficients=  1.0000000000D+00
 ****
 Centers:       1      2
 S 5 1.00
     Exponent=  1.2384016938D+03 Coefficients=  5.4568832082D-03
     Exponent=  1.8629004992D+02 Coefficients=  4.0638409211D-02
     Exponent=  4.2251176346D+01 Coefficients=  1.8025593888D-01
     Exponent=  1.1676557932D+01 Coefficients=  4.6315121755D-01
     Exponent=  3.5930506482D+00 Coefficients=  4.4087173314D-01
 S 1 1.00
     Exponent=  4.0245147363D-01 Coefficients=  1.0000000000D+00
 S 1 1.00
     Exponent=  1.3090182668D-01 Coefficients=  1.0000000000D+00
 S 1 1.00
     Exponent=  6.7053540256D-02 Coefficients=  1.0000000000D+00
 P 3 1.00
     Exponent=  9.4680970621D+00 Coefficients=  3.8387871728D-02
     Exponent=  2.0103545142D+00 Coefficients=  2.1117025112D-01
     Exponent=  5.4771004707D-01 Coefficients=  5.1328172114D-01
 P 1 1.00
     Exponent=  1.5268613795D-01 Coefficients=  1.0000000000D+00
 D 1 1.00
     Exponent=  8.0000000000D-01 Coefficients=  1.0000000000D+00
 D 1 1.00
     Exponent=  1.1713185140D-01 Coefficients=  1.0000000000D+00
 ****
 Centers:       3
 S 5 1.00
     Exponent=  1.7128415853D+03 Coefficients= -5.3934125305D-03
     Exponent=  2.5764812677D+02 Coefficients= -4.0221581118D-02
     Exponent=  5.8458245853D+01 Coefficients= -1.7931144990D-01
     Exponent=  1.6198367905D+01 Coefficients= -4.6376317823D-01
     Exponent=  5.0052600809D+00 Coefficients= -4.4171422662D-01
 S 1 1.00
     Exponent=  5.8731856571D-01 Coefficients=  1.0000000000D+00
 S 1 1.00
     Exponent=  1.8764592253D-01 Coefficients=  1.0000000000D+00
 S 1 1.00
     Exponent=  9.6171241529D-02 Coefficients=  1.0000000000D+00
 P 3 1.00
     Exponent=  1.3571470233D+01 Coefficients= -4.0072398852D-02
     Exponent=  2.9257372874D+00 Coefficients= -2.1807045028D-01
     Exponent=  7.9927750754D-01 Coefficients= -5.1294466049D-01
 P 1 1.00
     Exponent=  2.1954348034D-01 Coefficients=  1.0000000000D+00
 D 1 1.00
     Exponent=  1.0000000000D+00 Coefficients=  1.0000000000D+00
 D 1 1.00
     Exponent=  1.6697708112D-01 Coefficients=  1.0000000000D+00
 ****
 Ernie: Thresh=  0.10000D-02 Tol=  0.10000D-05 Strict=F.
 There are    60 symmetry adapted cartesian basis functions of A'  symmetry.
 There are    46 symmetry adapted cartesian basis functions of A"  symmetry.
 There are    56 symmetry adapted basis functions of A'  symmetry.
 There are    44 symmetry adapted basis functions of A"  symmetry.
   100 basis functions,   146 primitive gaussians,   106 cartesian basis functions
    12 alpha electrons       12 beta electrons
       nuclear repulsion energy        76.5239446347 Hartrees.
 IExCor= 4639 DFT=T Ex+Corr=wB97XD ExCW=0 ScaHFX=  1.000000
 ScaDFX=  1.000000  1.000000  1.000000  1.000000 ScalE2=  1.000000  1.000000
 IRadAn=      5 IRanWt=     -1 IRanGd=            0 ICorTp=0 IEmpDi=121
 HFx  wShort=  0.000000 wLong=  0.200000 cFull=  0.222036 cShort=  0.000000 cLong=  0.777964
 DFx  wShort=  0.000000 wLong=  0.200000 cFull=  0.000000 cShort=  0.000000 cLong=  1.000000
 NAtoms=    8 NActive=    8 NUniq=    5 SFac= 2.56D+00 NAtFMM=   60 NAOKFM=F Big=F
 Integral buffers will be    131072 words long.
 Raffenetti 1 integral format.
 Two-electron integral symmetry is turned on.
 R6Disp:  Grimme-D2 Dispersion energy=       -0.0017640921 Hartrees.
 Nuclear repulsion after empirical dispersion term =       76.5221805426 Hartrees.
 Leave Link  301 at Mon Mar 21 15:51:17 2022, MaxMem=  8589934592 cpu:               0.6 elap:               0.1
 (Enter /home/rr/g16/l302.exe)
 NPDir=0 NMtPBC=     1 NCelOv=     1 NCel=       1 NClECP=     1 NCelD=      1
         NCelK=      1 NCelE2=     1 NClLst=     1 CellRange=     0.0.
 One-electron integrals computed using PRISM.
 One-electron integral symmetry used in STVInt
 NBasis=   100 RedAO= T EigKep=  1.39D-04  NBF=    56    44
 NBsUse=   100 1.00D-06 EigRej= -1.00D+00 NBFU=    56    44
 Precomputing XC quadrature grid using
 IXCGrd= 4 IRadAn=           5 IRanWt=          -1 IRanGd=           0 AccXCQ= 0.00D+00.
 Generated NRdTot=       0 NPtTot=           0 NUsed=           0 NTot=          32
 NSgBfM=   106   106   106   106   106 MxSgAt=     8 MxSgA2=     8.
 Leave Link  302 at Mon Mar 21 15:51:17 2022, MaxMem=  8589934592 cpu:               1.1 elap:               0.2
 (Enter /home/rr/g16/l303.exe)
 DipDrv:  MaxL=1.
 Leave Link  303 at Mon Mar 21 15:51:17 2022, MaxMem=  8589934592 cpu:               0.2 elap:               0.1
 (Enter /home/rr/g16/l308.exe)
 Leave Link  308 at Mon Mar 21 15:51:17 2022, MaxMem=  8589934592 cpu:               0.2 elap:               0.1
 (Enter /home/rr/g16/l401.exe)
 ExpMin= 6.71D-02 ExpMax= 1.71D+03 ExpMxC= 2.58D+02 IAcc=3 IRadAn=         5 AccDes= 0.00D+00
 Harris functional with IExCor= 4639 and IRadAn=       5 diagonalized for initial guess.
 HarFok:  IExCor= 4639 AccDes= 0.00D+00 IRadAn=         5 IDoV= 1 UseB2=F ITyADJ=14
 ICtDFT=  3500011 ScaDFX=  1.000000  1.000000  1.000000  1.000000
 FoFCou: FMM=F IPFlag=           0 FMFlag=      100000 FMFlg1=           0
         NFxFlg=           0 DoJE=T BraDBF=F KetDBF=T FulRan=T
         wScrn=  0.000000 ICntrl=       500 IOpCl=  0 I1Cent=   200000004 NGrid=           0
         NMat0=    1 NMatS0=      1 NMatT0=    0 NMatD0=    1 NMtDS0=    0 NMtDT0=    0
 Petite list used in FoFCou.
 Harris En= -127.667196348079    
 JPrj=0 DoOrth=F DoCkMO=F.
 Initial guess orbital symmetries:
       Occupied  (A') (A") (A') (A') (A') (A") (A') (A') (A") (A")
                 (A') (A')
       Virtual   (A') (A") (A') (A') (A") (A') (A") (A') (A") (A")
                 (A') (A') (A') (A") (A') (A') (A") (A') (A") (A')
                 (A') (A") (A") (A") (A') (A') (A") (A') (A") (A")
                 (A') (A') (A') (A") (A") (A') (A') (A") (A') (A")
                 (A') (A") (A") (A') (A") (A') (A") (A') (A') (A")
                 (A') (A') (A") (A') (A") (A') (A") (A') (A") (A')
                 (A') (A') (A') (A") (A') (A") (A") (A') (A") (A')
                 (A") (A') (A") (A') (A') (A') (A") (A") (A') (A")
                 (A") (A') (A') (A") (A') (A") (A") (A')
 The electronic state of the initial guess is 1-A'.
 Leave Link  401 at Mon Mar 21 15:51:17 2022, MaxMem=  8589934592 cpu:               2.3 elap:               0.3
 (Enter /home/rr/g16/l502.exe)
 Keep R1 ints in memory in symmetry-blocked form, NReq=38283481.
 FoFCou: FMM=F IPFlag=           0 FMFlag=           0 FMFlg1=           0
         NFxFlg=           0 DoJE=F BraDBF=F KetDBF=F FulRan=T
         wScrn=  0.000000 ICntrl=       600 IOpCl=  0 I1Cent=           0 NGrid=           0
         NMat0=    1 NMatS0=   5050 NMatT0=    0 NMatD0=    1 NMtDS0=    0 NMtDT0=    0
 Petite list used in FoFCou.
 Closed shell SCF:
 Using DIIS extrapolation, IDIIS=  1040.
 NGot=  8589934592 LenX=  8583516801 LenY=  8583505124
 Requested convergence on RMS density matrix=1.00D-08 within 100 cycles.
 Requested convergence on MAX density matrix=1.00D-06.
 Requested convergence on             energy=1.00D-06.
 No special actions if energy rises.
 Integral accuracy reduced to 1.0D-05 until final iterations.

 Cycle   1  Pass 0  IDiag  1:
 E= -133.768934096877    
 DIIS: error= 3.75D-02 at cycle   1 NSaved=   1.
 NSaved= 1 IEnMin= 1 EnMin= -133.768934096877     IErMin= 1 ErrMin= 3.75D-02
 ErrMax= 3.75D-02  0.00D+00 EMaxC= 1.00D-01 BMatC= 6.37D-02 BMatP= 6.37D-02
 IDIUse=3 WtCom= 6.25D-01 WtEn= 3.75D-01
 Coeff-Com:  0.100D+01
 Coeff-En:   0.100D+01
 Coeff:      0.100D+01
 Gap=     0.464 Goal=   None    Shift=    0.000
 GapD=    0.464 DampG=2.000 DampE=0.500 DampFc=1.0000 IDamp=-1.
 RMSDP=5.54D-03 MaxDP=1.30D-01              OVMax= 6.06D-02

 Cycle   2  Pass 0  IDiag  1:
 E= -133.780417503463     Delta-E=       -0.011483406586 Rises=F Damp=F
 DIIS: error= 9.47D-03 at cycle   2 NSaved=   2.
 NSaved= 2 IEnMin= 2 EnMin= -133.780417503463     IErMin= 2 ErrMin= 9.47D-03
 ErrMax= 9.47D-03  0.00D+00 EMaxC= 1.00D-01 BMatC= 1.33D-02 BMatP= 6.37D-02
 IDIUse=3 WtCom= 9.05D-01 WtEn= 9.47D-02
 Coeff-Com:  0.250D+00 0.750D+00
 Coeff-En:   0.208D+00 0.792D+00
 Coeff:      0.246D+00 0.754D+00
 Gap=     0.423 Goal=   None    Shift=    0.000
 RMSDP=2.49D-03 MaxDP=8.73D-02 DE=-1.15D-02 OVMax= 5.05D-02

 Cycle   3  Pass 0  IDiag  1:
 E= -133.787059398156     Delta-E=       -0.006641894693 Rises=F Damp=F
 DIIS: error= 5.54D-03 at cycle   3 NSaved=   3.
 NSaved= 3 IEnMin= 3 EnMin= -133.787059398156     IErMin= 3 ErrMin= 5.54D-03
 ErrMax= 5.54D-03  0.00D+00 EMaxC= 1.00D-01 BMatC= 4.94D-03 BMatP= 1.33D-02
 IDIUse=3 WtCom= 9.45D-01 WtEn= 5.54D-02
 Coeff-Com: -0.178D-02 0.377D+00 0.625D+00
 Coeff-En:   0.000D+00 0.277D+00 0.723D+00
 Coeff:     -0.168D-02 0.371D+00 0.630D+00
 Gap=     0.435 Goal=   None    Shift=    0.000
 RMSDP=1.27D-03 MaxDP=5.60D-02 DE=-6.64D-03 OVMax= 2.08D-02

 Cycle   4  Pass 0  IDiag  1:
 E= -133.791212191866     Delta-E=       -0.004152793710 Rises=F Damp=F
 DIIS: error= 3.79D-04 at cycle   4 NSaved=   4.
 NSaved= 4 IEnMin= 4 EnMin= -133.791212191866     IErMin= 4 ErrMin= 3.79D-04
 ErrMax= 3.79D-04  0.00D+00 EMaxC= 1.00D-01 BMatC= 1.88D-05 BMatP= 4.94D-03
 IDIUse=3 WtCom= 9.96D-01 WtEn= 3.79D-03
 Coeff-Com: -0.212D-02 0.548D-01 0.130D+00 0.818D+00
 Coeff-En:   0.000D+00 0.000D+00 0.000D+00 0.100D+01
 Coeff:     -0.212D-02 0.546D-01 0.129D+00 0.818D+00
 Gap=     0.432 Goal=   None    Shift=    0.000
 RMSDP=7.05D-05 MaxDP=1.60D-03 DE=-4.15D-03 OVMax= 1.11D-03

 Cycle   5  Pass 0  IDiag  1:
 E= -133.791230184144     Delta-E=       -0.000017992278 Rises=F Damp=F
 DIIS: error= 7.70D-05 at cycle   5 NSaved=   5.
 NSaved= 5 IEnMin= 5 EnMin= -133.791230184144     IErMin= 5 ErrMin= 7.70D-05
 ErrMax= 7.70D-05  0.00D+00 EMaxC= 1.00D-01 BMatC= 5.73D-07 BMatP= 1.88D-05
 IDIUse=1 WtCom= 1.00D+00 WtEn= 0.00D+00
 Coeff-Com:  0.918D-04-0.274D-01-0.397D-01 0.993D-02 0.106D+01
 Coeff:      0.918D-04-0.274D-01-0.397D-01 0.993D-02 0.106D+01
 Gap=     0.432 Goal=   None    Shift=    0.000
 RMSDP=5.07D-05 MaxDP=2.60D-03 DE=-1.80D-05 OVMax= 5.11D-04

 Cycle   6  Pass 0  IDiag  1:
 E= -133.791231357563     Delta-E=       -0.000001173419 Rises=F Damp=F
 DIIS: error= 9.26D-06 at cycle   6 NSaved=   6.
 NSaved= 6 IEnMin= 6 EnMin= -133.791231357563     IErMin= 6 ErrMin= 9.26D-06
 ErrMax= 9.26D-06  0.00D+00 EMaxC= 1.00D-01 BMatC= 1.28D-08 BMatP= 5.73D-07
 IDIUse=1 WtCom= 1.00D+00 WtEn= 0.00D+00
 Coeff-Com:  0.581D-04-0.237D-02-0.477D-02-0.210D-01 0.302D-01 0.998D+00
 Coeff:      0.581D-04-0.237D-02-0.477D-02-0.210D-01 0.302D-01 0.998D+00
 Gap=     0.432 Goal=   None    Shift=    0.000
 RMSDP=1.14D-05 MaxDP=5.98D-04 DE=-1.17D-06 OVMax= 1.27D-04

 Cycle   7  Pass 0  IDiag  1:
 E= -133.791231396081     Delta-E=       -0.000000038518 Rises=F Damp=F
 DIIS: error= 3.38D-06 at cycle   7 NSaved=   7.
 NSaved= 7 IEnMin= 7 EnMin= -133.791231396081     IErMin= 7 ErrMin= 3.38D-06
 ErrMax= 3.38D-06  0.00D+00 EMaxC= 1.00D-01 BMatC= 1.73D-09 BMatP= 1.28D-08
 IDIUse=1 WtCom= 1.00D+00 WtEn= 0.00D+00
 Coeff-Com: -0.811D-05 0.158D-02 0.210D-02-0.406D-02-0.682D-01 0.155D+00
 Coeff-Com:  0.913D+00
 Coeff:     -0.811D-05 0.158D-02 0.210D-02-0.406D-02-0.682D-01 0.155D+00
 Coeff:      0.913D+00
 Gap=     0.432 Goal=   None    Shift=    0.000
 RMSDP=3.48D-06 MaxDP=1.76D-04 DE=-3.85D-08 OVMax= 4.41D-05

 Initial convergence to 1.0D-05 achieved.  Increase integral accuracy.
 Cycle   8  Pass 1  IDiag  1:
 E= -133.791228305827     Delta-E=        0.000003090254 Rises=F Damp=F
 DIIS: error= 1.43D-05 at cycle   1 NSaved=   1.
 NSaved= 1 IEnMin= 1 EnMin= -133.791228305827     IErMin= 1 ErrMin= 1.43D-05
 ErrMax= 1.43D-05  0.00D+00 EMaxC= 1.00D-01 BMatC= 3.08D-08 BMatP= 3.08D-08
 IDIUse=1 WtCom= 1.00D+00 WtEn= 0.00D+00
 Coeff-Com:  0.100D+01
 Coeff:      0.100D+01
 Gap=     0.432 Goal=   None    Shift=    0.000
 RMSDP=3.48D-06 MaxDP=1.76D-04 DE= 3.09D-06 OVMax= 3.77D-05

 Cycle   9  Pass 1  IDiag  1:
 E= -133.791228334064     Delta-E=       -0.000000028237 Rises=F Damp=F
 DIIS: error= 1.88D-06 at cycle   2 NSaved=   2.
 NSaved= 2 IEnMin= 2 EnMin= -133.791228334064     IErMin= 2 ErrMin= 1.88D-06
 ErrMax= 1.88D-06  0.00D+00 EMaxC= 1.00D-01 BMatC= 5.61D-10 BMatP= 3.08D-08
 IDIUse=1 WtCom= 1.00D+00 WtEn= 0.00D+00
 Coeff-Com: -0.889D-01 0.109D+01
 Coeff:     -0.889D-01 0.109D+01
 Gap=     0.432 Goal=   None    Shift=    0.000
 RMSDP=6.81D-07 MaxDP=1.29D-05 DE=-2.82D-08 OVMax= 8.98D-06

 Cycle  10  Pass 1  IDiag  1:
 E= -133.791228334710     Delta-E=       -0.000000000646 Rises=F Damp=F
 DIIS: error= 9.85D-07 at cycle   3 NSaved=   3.
 NSaved= 3 IEnMin= 3 EnMin= -133.791228334710     IErMin= 3 ErrMin= 9.85D-07
 ErrMax= 9.85D-07  0.00D+00 EMaxC= 1.00D-01 BMatC= 1.76D-10 BMatP= 5.61D-10
 IDIUse=1 WtCom= 1.00D+00 WtEn= 0.00D+00
 Coeff-Com: -0.443D-01 0.426D+00 0.618D+00
 Coeff:     -0.443D-01 0.426D+00 0.618D+00
 Gap=     0.432 Goal=   None    Shift=    0.000
 RMSDP=2.56D-07 MaxDP=7.49D-06 DE=-6.46D-10 OVMax= 4.57D-06

 Cycle  11  Pass 1  IDiag  1:
 E= -133.791228334856     Delta-E=       -0.000000000146 Rises=F Damp=F
 DIIS: error= 3.94D-07 at cycle   4 NSaved=   4.
 NSaved= 4 IEnMin= 4 EnMin= -133.791228334856     IErMin= 4 ErrMin= 3.94D-07
 ErrMax= 3.94D-07  0.00D+00 EMaxC= 1.00D-01 BMatC= 1.60D-11 BMatP= 1.76D-10
 IDIUse=1 WtCom= 1.00D+00 WtEn= 0.00D+00
 Coeff-Com: -0.479D-02 0.811D-02 0.215D+00 0.782D+00
 Coeff:     -0.479D-02 0.811D-02 0.215D+00 0.782D+00
 Gap=     0.432 Goal=   None    Shift=    0.000
 RMSDP=8.94D-08 MaxDP=3.08D-06 DE=-1.46D-10 OVMax= 1.49D-06

 Cycle  12  Pass 1  IDiag  1:
 E= -133.791228334871     Delta-E=       -0.000000000015 Rises=F Damp=F
 DIIS: error= 7.46D-08 at cycle   5 NSaved=   5.
 NSaved= 5 IEnMin= 5 EnMin= -133.791228334871     IErMin= 5 ErrMin= 7.46D-08
 ErrMax= 7.46D-08  0.00D+00 EMaxC= 1.00D-01 BMatC= 8.86D-13 BMatP= 1.60D-11
 IDIUse=1 WtCom= 1.00D+00 WtEn= 0.00D+00
 Coeff-Com:  0.262D-02-0.345D-01-0.903D-02 0.166D+00 0.875D+00
 Coeff:      0.262D-02-0.345D-01-0.903D-02 0.166D+00 0.875D+00
 Gap=     0.432 Goal=   None    Shift=    0.000
 RMSDP=2.39D-08 MaxDP=2.96D-07 DE=-1.54D-11 OVMax= 5.32D-07

 Cycle  13  Pass 1  IDiag  1:
 E= -133.791228334873     Delta-E=       -0.000000000001 Rises=F Damp=F
 DIIS: error= 3.42D-08 at cycle   6 NSaved=   6.
 NSaved= 6 IEnMin= 6 EnMin= -133.791228334873     IErMin= 6 ErrMin= 3.42D-08
 ErrMax= 3.42D-08  0.00D+00 EMaxC= 1.00D-01 BMatC= 1.15D-13 BMatP= 8.86D-13
 IDIUse=1 WtCom= 1.00D+00 WtEn= 0.00D+00
 Coeff-Com:  0.139D-02-0.127D-01-0.217D-01-0.629D-02 0.307D+00 0.732D+00
 Coeff:      0.139D-02-0.127D-01-0.217D-01-0.629D-02 0.307D+00 0.732D+00
 Gap=     0.432 Goal=   None    Shift=    0.000
 RMSDP=7.09D-09 MaxDP=1.88D-07 DE=-1.42D-12 OVMax= 1.70D-07

 SCF Done:  E(RwB97XD) =  -133.791228335     A.U. after   13 cycles
            NFock= 13  Conv=0.71D-08     -V/T= 2.0113
 KE= 1.322951402334D+02 PE=-4.630069479686D+02 EE= 1.203983988577D+02
 Leave Link  502 at Mon Mar 21 15:51:19 2022, MaxMem=  8589934592 cpu:              15.7 elap:               2.0
 (Enter /home/rr/g16/l801.exe)
 DoSCS=F DFT=T ScalE2(SS,OS)=  1.000000  1.000000
 ExpMin= 6.71D-02 ExpMax= 1.71D+03 ExpMxC= 2.58D+02 IAcc=3 IRadAn=         5 AccDes= 0.00D+00
 HarFok:  IExCor=  205 AccDes= 0.00D+00 IRadAn=         5 IDoV=-2 UseB2=F ITyADJ=14
 ICtDFT= 12500011 ScaDFX=  1.000000  1.000000  1.000000  1.000000
 Largest valence mixing into a core orbital is  7.73D-05
 Largest core mixing into a valence orbital is  1.96D-05
 Range of M.O.s used for correlation:     4   100
 NBasis=   100 NAE=    12 NBE=    12 NFC=     3 NFV=     0
 NROrb=     97 NOA=     9 NOB=     9 NVA=    88 NVB=    88

 **** Warning!!: The largest alpha MO coefficient is  0.31360493D+02

 Leave Link  801 at Mon Mar 21 15:51:19 2022, MaxMem=  8589934592 cpu:               0.6 elap:               0.1
 (Enter /home/rr/g16/l914.exe)
 RHF ground state
 Keep R1, R2, and R3 ints in memory in symmetry-blocked form, NReq=750729840.
 FoFCou: FMM=F IPFlag=           0 FMFlag=           0 FMFlg1=           0
         NFxFlg=           0 DoJE=F BraDBF=F KetDBF=F FulRan=T
         wScrn=  0.000000 ICntrl=       600 IOpCl=  0 I1Cent=           0 NGrid=           0
         NMat0=    1 NMatS0=   5050 NMatT0=    0 NMatD0=    1 NMtDS0=    0 NMtDT0=    0
 Petite list used in FoFCou.
 MDV=  8589934592 DFT=T DoStab=F Mixed=T DoRPA=T DoScal=F NonHer=T
 Making orbital integer symmetry assigments:
 Orbital symmetries:
       Occupied  (A') (A') (A") (A') (A') (A") (A') (A') (A") (A")
                 (A') (A')
       Virtual   (A') (A") (A') (A') (A") (A') (A") (A') (A") (A")
                 (A') (A') (A') (A") (A') (A') (A") (A') (A") (A')
                 (A') (A") (A") (A") (A') (A') (A') (A") (A") (A")
                 (A') (A') (A') (A") (A") (A') (A') (A") (A') (A")
                 (A') (A") (A") (A') (A") (A') (A") (A') (A') (A")
                 (A') (A') (A") (A') (A") (A') (A") (A') (A") (A')
                 (A') (A') (A') (A") (A') (A") (A") (A') (A") (A')
                 (A") (A') (A") (A') (A') (A') (A") (A") (A') (A")
                 (A") (A') (A') (A") (A') (A") (A") (A')
   792 initial guesses have been made.
 Convergence on wavefunction:    0.001000000000000
 Davidson Disk Diagonalization:  ConvIn= 1.00D-03 SkipCon=T Conv= 1.00D-03.
 Max sub-space:  4752 roots to seek:  1584 dimension of matrix:         1584
 *** WARNING: Number of orthogonal guesses is          792
 Iteration     1 Dimension   792 NMult     0 NNew    792
 CISAX will form   792 AO SS matrices at one time.
 NMat=   792 NSing=   792 JSym2X=-1.
 New state      2 was old state      3
 New state      3 was old state      2
 New state      5 was old state      6
 New state      6 was old state      5
 New state     10 was old state     11
 New state     11 was old state     13
 New state     12 was old state     14
 New state     13 was old state     10
 New state     14 was old state     12
 New state     16 was old state     17
 New state     17 was old state     19
 New state     18 was old state     20
 New state     19 was old state     16
 New state     20 was old state     18
 New state     21 was old state     23
 New state     22 was old state     27
 New state     23 was old state     21
 New state     24 was old state     22
 New state     25 was old state     32
 New state     26 was old state     25
 New state     27 was old state     24
 New state     29 was old state     30
 New state     30 was old state     26
 New state     31 was old state     29
 New state     32 was old state     34
 New state     33 was old state     31
 New state     34 was old state     36
 New state     35 was old state     33
 New state     36 was old state     37
 New state     37 was old state     35
 New state     39 was old state     41
 New state     40 was old state     44
 New state     41 was old state     39
 New state     42 was old state     45
 New state     44 was old state     42
 New state     45 was old state     46
 New state     46 was old state     48
 New state     47 was old state     49
 New state     48 was old state     40
 New state     49 was old state     47
 New state     52 was old state     54
 New state     53 was old state     56
 New state     54 was old state     66
 New state     55 was old state     53
 New state     56 was old state     57
 New state     57 was old state     60
 New state     58 was old state     52
 New state     59 was old state     55
 New state     60 was old state     58
 New state     62 was old state     63
 New state     63 was old state     65
 New state     64 was old state     62
 New state     65 was old state     64
 New state     66 was old state     67
 New state     67 was old state     69
 New state     68 was old state     59
 New state     69 was old state     73
 New state     72 was old state     68
 New state     73 was old state     86
 New state     74 was old state     77
 New state     75 was old state     72
 New state     76 was old state     74
 New state     77 was old state     80
 New state     78 was old state     79
 New state     79 was old state     78
 New state     80 was old state     82
 New state     81 was old state     75
 New state     82 was old state     81
 New state     83 was old state     76
 New state     84 was old state     87
 New state     86 was old state     83
 New state     87 was old state     92
 New state     88 was old state     91
 New state     89 was old state     88
 New state     90 was old state     84
 New state     91 was old state     89
 New state     92 was old state     90
 New state     93 was old state     94
 New state     94 was old state     93
 New state     95 was old state     96
 New state     96 was old state     97
 New state     97 was old state    104
 New state     98 was old state    100
 New state     99 was old state     98
 New state    100 was old state    109
 New state    101 was old state    103
 New state    102 was old state    108
 New state    103 was old state    102
 New state    104 was old state    105
 New state    105 was old state    101
 New state    106 was old state    110
 New state    107 was old state     95
 New state    108 was old state     99
 New state    109 was old state    111
 New state    110 was old state    112
 New state    111 was old state    107
 New state    112 was old state    121
 New state    113 was old state    116
 New state    114 was old state    117
 New state    115 was old state    106
 New state    116 was old state    115
 New state    117 was old state    113
 New state    118 was old state    122
 New state    119 was old state    125
 New state    120 was old state    124
 New state    121 was old state    126
 New state    122 was old state    132
 New state    123 was old state    118
 New state    124 was old state    123
 New state    125 was old state    114
 New state    126 was old state    119
 New state    127 was old state    131
 New state    128 was old state    120
 New state    129 was old state    127
 New state    130 was old state    145
 New state    131 was old state    128
 New state    132 was old state    134
 New state    133 was old state    130
 New state    134 was old state    136
 New state    135 was old state    133
 New state    136 was old state    138
 New state    137 was old state    139
 New state    138 was old state    149
 New state    139 was old state    144
 New state    141 was old state    137
 New state    142 was old state    135
 New state    143 was old state    147
 New state    144 was old state    141
 New state    145 was old state    142
 New state    146 was old state    152
 New state    147 was old state    146
 New state    148 was old state    150
 New state    149 was old state    151
 New state    150 was old state    157
 New state    151 was old state    154
 New state    152 was old state    158
 New state    154 was old state    162
 New state    155 was old state    148
 New state    157 was old state    155
 New state    158 was old state    163
 New state    160 was old state    161
 New state    161 was old state    172
 New state    162 was old state    160
 New state    163 was old state    164
 New state    164 was old state    166
 New state    165 was old state    169
 New state    166 was old state    165
 New state    168 was old state    173
 New state    169 was old state    174
 New state    170 was old state    168
 New state    171 was old state    184
 New state    172 was old state    177
 New state    173 was old state    179
 New state    174 was old state    175
 New state    175 was old state    171
 New state    176 was old state    178
 New state    177 was old state    195
 New state    178 was old state    182
 New state    179 was old state    180
 New state    180 was old state    181
 New state    181 was old state    176
 New state    182 was old state    183
 New state    183 was old state    170
 New state    184 was old state    185
 New state    185 was old state    190
 New state    186 was old state    194
 New state    187 was old state    193
 New state    188 was old state    187
 New state    190 was old state    197
 New state    192 was old state    198
 New state    193 was old state    196
 New state    194 was old state    188
 New state    195 was old state    192
 New state    196 was old state    214
 New state    197 was old state    208
 New state    198 was old state    199
 New state    199 was old state    204
 New state    200 was old state    201
 New state    201 was old state    200
 New state    203 was old state    205
 New state    204 was old state    186
 New state    205 was old state    203
 New state    206 was old state    207
 New state    207 was old state    212
 New state    208 was old state    216
 New state    209 was old state    210
 New state    210 was old state    206
 New state    212 was old state    221
 New state    213 was old state    209
 New state    214 was old state    215
 New state    215 was old state    220
 New state    216 was old state    213
 New state    217 was old state    224
 New state    219 was old state    217
 New state    220 was old state    229
 New state    221 was old state    223
 New state    223 was old state    225
 New state    224 was old state    219
 New state    225 was old state    234
 New state    226 was old state    231
 New state    227 was old state    226
 New state    228 was old state    230
 New state    229 was old state    233
 New state    230 was old state    228
 New state    231 was old state    239
 New state    232 was old state    227
 New state    233 was old state    237
 New state    234 was old state    241
 New state    235 was old state    232
 New state    236 was old state    238
 New state    237 was old state    240
 New state    238 was old state    236
 New state    239 was old state    245
 New state    240 was old state    242
 New state    241 was old state    243
 New state    242 was old state    235
 New state    243 was old state    247
 New state    244 was old state    253
 New state    245 was old state    244
 New state    247 was old state    248
 New state    248 was old state    249
 New state    249 was old state    250
 New state    250 was old state    255
 New state    251 was old state    260
 New state    252 was old state    261
 New state    253 was old state    252
 New state    254 was old state    251
 New state    255 was old state    254
 New state    257 was old state    263
 New state    258 was old state    257
 New state    259 was old state    258
 New state    260 was old state    264
 New state    261 was old state    265
 New state    262 was old state    259
 New state    263 was old state    266
 New state    264 was old state    262
 New state    265 was old state    268
 New state    266 was old state    276
 New state    268 was old state    272
 New state    269 was old state    274
 New state    270 was old state    282
 New state    271 was old state    270
 New state    272 was old state    279
 New state    273 was old state    280
 New state    274 was old state    278
 New state    275 was old state    271
 New state    276 was old state    269
 New state    277 was old state    273
 New state    278 was old state    285
 New state    279 was old state    275
 New state    280 was old state    305
 New state    282 was old state    284
 New state    283 was old state    277
 New state    284 was old state    283
 New state    285 was old state    294
 New state    286 was old state    291
 New state    287 was old state    288
 New state    288 was old state    287
 New state    289 was old state    286
 New state    290 was old state    289
 New state    291 was old state    290
 New state    292 was old state    298
 New state    293 was old state    292
 New state    294 was old state    297
 New state    295 was old state    293
 New state    296 was old state    302
 New state    297 was old state    295
 New state    298 was old state    301
 New state    300 was old state    309
 New state    301 was old state    296
 New state    302 was old state    300
 New state    304 was old state    310
 New state    305 was old state    306
 New state    306 was old state    307
 New state    307 was old state    316
 New state    309 was old state    311
 New state    310 was old state    312
 New state    311 was old state    304
 New state    312 was old state    315
 New state    314 was old state    317
 New state    315 was old state    319
 New state    316 was old state    320
 New state    317 was old state    314
 New state    318 was old state    325
 New state    319 was old state    318
 New state    320 was old state    328
 New state    322 was old state    329
 New state    323 was old state    322
 New state    325 was old state    323
 New state    326 was old state    337
 New state    327 was old state    326
 New state    328 was old state    327
 New state    329 was old state    334
 New state    330 was old state    341
 New state    331 was old state    330
 New state    332 was old state    331
 New state    334 was old state    332
 New state    335 was old state    339
 New state    337 was old state    335
 New state    338 was old state    342
 New state    339 was old state    349
 New state    340 was old state    338
 New state    341 was old state    344
 New state    342 was old state    347
 New state    343 was old state    351
 New state    344 was old state    340
 New state    345 was old state    343
 New state    346 was old state    345
 New state    347 was old state    352
 New state    348 was old state    356
 New state    349 was old state    357
 New state    350 was old state    354
 New state    351 was old state    348
 New state    352 was old state    346
 New state    353 was old state    358
 New state    354 was old state    353
 New state    356 was old state    350
 New state    357 was old state    363
 New state    358 was old state    370
 New state    359 was old state    361
 New state    360 was old state    364
 New state    361 was old state    366
 New state    362 was old state    359
 New state    363 was old state    360
 New state    364 was old state    362
 New state    365 was old state    371
 New state    366 was old state    365
 New state    367 was old state    374
 New state    368 was old state    369
 New state    369 was old state    377
 New state    370 was old state    367
 New state    371 was old state    368
 New state    372 was old state    382
 New state    373 was old state    380
 New state    374 was old state    381
 New state    375 was old state    376
 New state    376 was old state    372
 New state    377 was old state    373
 New state    378 was old state    385
 New state    379 was old state    378
 New state    380 was old state    379
 New state    381 was old state    384
 New state    382 was old state    375
 New state    383 was old state    389
 New state    384 was old state    387
 New state    385 was old state    383
 New state    386 was old state    393
 New state    387 was old state    395
 New state    388 was old state    396
 New state    389 was old state    394
 New state    390 was old state    386
 New state    391 was old state    390
 New state    392 was old state    398
 New state    393 was old state    388
 New state    394 was old state    404
 New state    395 was old state    392
 New state    396 was old state    399
 New state    397 was old state    411
 New state    398 was old state    391
 New state    399 was old state    397
 New state    401 was old state    405
 New state    402 was old state    412
 New state    403 was old state    410
 New state    404 was old state    425
 New state    405 was old state    408
 New state    406 was old state    407
 New state    407 was old state    402
 New state    408 was old state    403
 New state    409 was old state    401
 New state    410 was old state    414
 New state    411 was old state    409
 New state    412 was old state    406
 New state    413 was old state    424
 New state    414 was old state    416
 New state    415 was old state    413
 New state    416 was old state    419
 New state    417 was old state    422
 New state    418 was old state    420
 New state    419 was old state    417
 New state    420 was old state    421
 New state    421 was old state    423
 New state    422 was old state    415
 New state    423 was old state    418
 New state    424 was old state    434
 New state    425 was old state    429
 New state    426 was old state    428
 New state    428 was old state    426
 New state    429 was old state    431
 New state    430 was old state    432
 New state    431 was old state    435
 New state    432 was old state    430
 New state    434 was old state    442
 New state    435 was old state    436
 New state    436 was old state    437
 New state    437 was old state    441
 New state    439 was old state    448
 New state    440 was old state    439
 No map to state    441
 New state    442 was old state    444
 New state    443 was old state    440
 New state    444 was old state    445
 New state    445 was old state    447
 New state    446 was old state    443
 New state    447 was old state    446
 New state    448 was old state    454
 New state    451 was old state    456
 New state    452 was old state    455
 New state    453 was old state    462
 New state    454 was old state    451
 New state    455 was old state    453
 New state    456 was old state    459
 New state    458 was old state    452
 New state    459 was old state    458
 New state    461 was old state    463
 New state    462 was old state    461
 New state    463 was old state    469
 New state    464 was old state    468
 New state    467 was old state    464
 New state    468 was old state    470
 New state    469 was old state    467
 New state    470 was old state    484
 New state    471 was old state    475
 New state    473 was old state    471
 New state    475 was old state    473
 New state    476 was old state    478
 New state    478 was old state    476
 New state    479 was old state    482
 New state    480 was old state    479
 New state    481 was old state    480
 New state    482 was old state    483
 New state    483 was old state    481
 New state    484 was old state    485
 New state    485 was old state    486
 New state    486 was old state    490
 New state    487 was old state    492
 New state    488 was old state    487
 New state    489 was old state    488
 New state    490 was old state    491
 New state    491 was old state    493
 New state    492 was old state    489
 New state    493 was old state    498
 New state    494 was old state    495
 New state    495 was old state    496
 New state    496 was old state    494
 New state    498 was old state    500
 New state    500 was old state    506
 New state    503 was old state    504
 New state    504 was old state    503
 New state    506 was old state    507
 New state    507 was old state    510
 New state    509 was old state    513
 New state    510 was old state    511
 New state    511 was old state    509
 New state    512 was old state    515
 New state    513 was old state    512
 New state    514 was old state    516
 New state    515 was old state    514
 New state    516 was old state    517
 New state    517 was old state    518
 New state    518 was old state    519
 New state    519 was old state    520
 New state    520 was old state    521
 New state    521 was old state    535
 New state    523 was old state    524
 New state    524 was old state    526
 New state    525 was old state    528
 New state    526 was old state    523
 New state    527 was old state    525
 New state    528 was old state    527
 New state    531 was old state    532
 New state    532 was old state    531
 New state    534 was old state    539
 New state    535 was old state    534
 New state    537 was old state    544
 New state    538 was old state    540
 New state    539 was old state    537
 New state    540 was old state    542
 New state    541 was old state    538
 New state    542 was old state    541
 New state    544 was old state    545
 New state    545 was old state    548
 New state    548 was old state    549
 New state    549 was old state    550
 New state    550 was old state    554
 New state    554 was old state    557
 New state    555 was old state    556
 New state    556 was old state    561
 New state    557 was old state    555
 New state    561 was old state    564
 New state    562 was old state    568
 New state    563 was old state    562
 New state    564 was old state    565
 New state    565 was old state    563
 New state    566 was old state    567
 New state    567 was old state    566
 New state    568 was old state    572
 New state    570 was old state    571
 New state    571 was old state    570
 New state    572 was old state    574
 New state    574 was old state    576
 New state    576 was old state    577
 New state    577 was old state    579
 New state    579 was old state    580
 New state    580 was old state    581
 New state    581 was old state    584
 New state    584 was old state    586
 New state    586 was old state    588
 New state    587 was old state    593
 New state    588 was old state    587
 New state    590 was old state    591
 New state    591 was old state    590
 New state    593 was old state    597
 New state    594 was old state    606
 New state    595 was old state    594
 New state    596 was old state    595
 New state    597 was old state    596
 New state    599 was old state    602
 New state    600 was old state    599
 New state    601 was old state    603
 New state    602 was old state    601
 New state    603 was old state    600
 New state    604 was old state    605
 New state    605 was old state    604
 New state    606 was old state    607
 New state    607 was old state    612
 New state    609 was old state    611
 New state    610 was old state    609
 New state    611 was old state    610
 New state    612 was old state    613
 New state    613 was old state    616
 No map to state    615
 New state    616 was old state    617
 New state    617 was old state    615
 New state    619 was old state    622
 New state    621 was old state    619
 New state    622 was old state    621
 New state    623 was old state    625
 New state    624 was old state    623
 New state    625 was old state    624
 New state    626 was old state    627
 New state    627 was old state    626
 New state    633 was old state    634
 New state    634 was old state    633
 New state    637 was old state    638
 New state    638 was old state    640
 New state    639 was old state    637
 New state    640 was old state    639
 New state    644 was old state    645
 New state    645 was old state    646
 New state    646 was old state    644
 New state    654 was old state    655
 New state    655 was old state    654
 New state    659 was old state    661
 New state    660 was old state    659
 New state    661 was old state    660
 New state    666 was old state    668
 New state    668 was old state    669
 New state    669 was old state    666
 New state    671 was old state    672
 New state    672 was old state    671
 New state    682 was old state    683
 New state    683 was old state    684
 New state    684 was old state    682
 New state    690 was old state    691
 New state    691 was old state    690
 New state    695 was old state    697
 New state    697 was old state    695
 New state    704 was old state    705
 New state    705 was old state    704
 New state    710 was old state    712
 New state    711 was old state    710
 New state    712 was old state    711
 New state    726 was old state    727
 New state    727 was old state    726
 New state    729 was old state    730
 New state    730 was old state    729
 New state    732 was old state    733
 New state    733 was old state    732
 New state    734 was old state    736
 New state    735 was old state    734
 New state    736 was old state    735
 New state    738 was old state    742
 New state    739 was old state    740
 New state    740 was old state    741
 New state    741 was old state    739
 New state    742 was old state    738
 New state    745 was old state    748
 New state    746 was old state    745
 New state    747 was old state    746
 New state    748 was old state    747
 New state    749 was old state    750
 New state    750 was old state    749
 New state    751 was old state    752
 New state    752 was old state    753
 New state    753 was old state    751
 New state    755 was old state    758
 New state    757 was old state    755
 New state    758 was old state    757
 New state    760 was old state    761
 New state    761 was old state    760
 New state    765 was old state    766
 New state    766 was old state    765
 New state    768 was old state    769
 New state    769 was old state    768
 New state    770 was old state    771
 New state    771 was old state    770
 New state    773 was old state    775
 New state    775 was old state    773
 New state    776 was old state    778
 New state    777 was old state    776
 New state    778 was old state    777
 New state    779 was old state    780
 New state    780 was old state    781
 New state    781 was old state    779
 New state    785 was old state    786
 New state    786 was old state    785
 New state    788 was old state    789
 New state    789 was old state    788
 Excitation Energies [eV] at current iteration:
 Root      1 :     7.113711515795374
 Root      2 :     8.012606458754107
 Root      3 :     8.074333375204837
 Root      4 :     8.666669081150779
 Root      5 :     9.050626800932195
 Root      6 :     9.410397129433083
 Root      7 :     9.752557467412622
 Root      8 :     9.815271181929646
 Root      9 :    10.216144620659270
 Root     10 :    10.236757717964150
 Root     11 :    10.541554038217580
 Root     12 :    10.577285135708910
 Root     13 :    10.670989073050580
 Root     14 :    10.694645517635530
 Root     15 :    10.746132479030200
 Root     16 :    10.928132349502410
 Root     17 :    11.125937902054420
 Root     18 :    11.286271242877500
 Root     19 :    11.305790383858120
 Root     20 :    11.447703646252420
 Root     21 :    11.648126548037980
 Root     22 :    11.712792844254640
 Root     23 :    11.886158383664960
 Root     24 :    11.947924674312490
 Root     25 :    12.129546669545770
 Root     26 :    12.145573572083600
 Root     27 :    12.185134595394830
 Root     28 :    12.405769547518720
 Root     29 :    12.478393092413290
 Root     30 :    12.513225350512270
 Root     31 :    12.835051512642860
 Root     32 :    13.115666673780730
 Root     33 :    13.188846989270150
 Root     34 :    13.222247369380440
 Root     35 :    13.239713951104770
 Root     36 :    13.251574084066650
 Root     37 :    13.395691261444280
 Root     38 :    13.517666659826620
 Root     39 :    13.645591702048730
 Root     40 :    13.796344953161260
 Root     41 :    13.911680609473010
 Root     42 :    14.009065192025680
 Root     43 :    14.034438654075990
 Root     44 :    14.051958469053660
 Root     45 :    14.092669024350020
 Root     46 :    14.202889546691900
 Root     47 :    14.300869369405130
 Root     48 :    14.308285131176860
 Root     49 :    14.437729598843700
 Root     50 :    14.446786941959000
 Root     51 :    14.511814282183950
 Root     52 :    14.681762139438350
 Root     53 :    14.779099961511530
 Root     54 :    14.877677341320050
 Root     55 :    14.881830800183290
 Root     56 :    14.959700113103940
 Root     57 :    14.990854922529560
 Root     58 :    15.006468823479130
 Root     59 :    15.112271214551180
 Root     60 :    15.224756322869620
 Root     61 :    15.310080402903860
 Root     62 :    15.517377515087260
 Root     63 :    15.533435409255480
 Root     64 :    15.543319219341470
 Root     65 :    15.607063384703200
 Root     66 :    15.620398799358730
 Root     67 :    15.679716202397880
 Root     68 :    15.712137250081170
 Root     69 :    15.802218940338960
 Root     70 :    15.917743768344130
 Root     71 :    15.982706555384190
 Root     72 :    16.033983826076180
 Root     73 :    16.152308130903470
 Root     74 :    16.230548323846980
 Root     75 :    16.338185243231550
 Root     76 :    16.467284886650430
 Root     77 :    16.480511385916630
 Root     78 :    16.560727463907930
 Root     79 :    16.617259826744740
 Root     80 :    16.718918441313830
 Root     81 :    16.766346621466890
 Root     82 :    16.834149844860710
 Root     83 :    16.843214144650990
 Root     84 :    17.028916705389480
 Root     85 :    17.104057452052730
 Root     86 :    17.142133227899930
 Root     87 :    17.282303024620610
 Root     88 :    17.357792913621670
 Root     89 :    17.425489111968570
 Root     90 :    17.477928818381470
 Root     91 :    17.522700851408760
 Root     92 :    17.558647750298000
 Root     93 :    17.571840921735380
 Root     94 :    17.638095318971480
 Root     95 :    17.775027011864830
 Root     96 :    17.794269562579380
 Root     97 :    17.852864557210930
 Root     98 :    17.895886594126600
 Root     99 :    17.956378510762830
 Root    100 :    17.983133728742070
 Root    101 :    17.990088320271790
 Root    102 :    18.074163362032830
 Root    103 :    18.101933556609930
 Root    104 :    18.192919182019080
 Root    105 :    18.223206911525050
 Root    106 :    18.232644960179500
 Root    107 :    18.265875735114650
 Root    108 :    18.358101445004270
 Root    109 :    18.429280247116000
 Root    110 :    18.522441133181720
 Root    111 :    18.577802898966070
 Root    112 :    18.735228938554540
 Root    113 :    18.787579124376300
 Root    114 :    18.804729762265000
 Root    115 :    18.820197592597650
 Root    116 :    18.913234774294960
 Root    117 :    18.978611868281910
 Root    118 :    18.993763331371520
 Root    119 :    19.091015381198490
 Root    120 :    19.126329620253710
 Root    121 :    19.198840057953270
 Root    122 :    19.218293793980550
 Root    123 :    19.249681008598920
 Root    124 :    19.271827924559600
 Root    125 :    19.288253749146090
 Root    126 :    19.371203497174140
 Root    127 :    19.412513700000290
 Root    128 :    19.427257554955870
 Root    129 :    19.460390375203630
 Root    130 :    19.473311151666890
 Root    131 :    19.546369204331810
 Root    132 :    19.655236927200730
 Root    133 :    19.670090054796590
 Root    134 :    19.751350595731790
 Root    135 :    19.753859594008440
 Root    136 :    19.795958808084500
 Root    137 :    19.886101454533440
 Root    138 :    19.967056967569650
 Root    139 :    20.001282529852480
 Root    140 :    20.053228379109280
 Root    141 :    20.077200645975890
 Root    142 :    20.081707738329730
 Root    143 :    20.151097952294640
 Root    144 :    20.179609108036690
 Root    145 :    20.210099128563040
 Root    146 :    20.246472123063790
 Root    147 :    20.264584713279640
 Root    148 :    20.372108525714130
 Root    149 :    20.388723269763840
 Root    150 :    20.401778697653750
 Root    151 :    20.470090577620970
 Root    152 :    20.622077592526810
 Root    153 :    20.703304861435700
 Root    154 :    20.722157013481410
 Root    155 :    20.813463236475640
 Root    156 :    20.824691681466440
 Root    157 :    20.851867830566030
 Root    158 :    20.973896105309620
 Root    159 :    20.985705363804670
 Root    160 :    20.994775020024780
 Root    161 :    21.053551807958480
 Root    162 :    21.103426610930260
 Root    163 :    21.147416368514380
 Root    164 :    21.187701485975530
 Root    165 :    21.289190073932800
 Root    166 :    21.328207067715830
 Root    167 :    21.401904930383440
 Root    168 :    21.462438788666260
 Root    169 :    21.498159404540420
 Root    170 :    21.518165740853180
 Root    171 :    21.560568202891340
 Root    172 :    21.597391274808050
 Root    173 :    21.667102224901980
 Root    174 :    21.674965369546420
 Root    175 :    21.706617136949260
 Root    176 :    21.723529418200250
 Root    177 :    21.788356411217340
 Root    178 :    21.859249553896770
 Root    179 :    21.883446142493070
 Root    180 :    21.920312496928940
 Root    181 :    21.922997892120290
 Root    182 :    22.025243640890620
 Root    183 :    22.067707911898180
 Root    184 :    22.083601495373220
 Root    185 :    22.172966374417850
 Root    186 :    22.235690751628780
 Root    187 :    22.321752808959480
 Root    188 :    22.356052023719250
 Root    189 :    22.403300844634450
 Root    190 :    22.427258739833060
 Root    191 :    22.444475182490230
 Root    192 :    22.499109406456820
 Root    193 :    22.527720610767660
 Root    194 :    22.647381244320170
 Root    195 :    22.660503401994480
 Root    196 :    22.823818922870460
 Root    197 :    22.860586172459510
 Root    198 :    22.930281759846300
 Root    199 :    22.996753535854210
 Root    200 :    23.030571422846150
 Root    201 :    23.068041019161270
 Root    202 :    23.142298197776280
 Root    203 :    23.187154262063150
 Root    204 :    23.204814441079810
 Root    205 :    23.217547906522440
 Root    206 :    23.304983943768150
 Root    207 :    23.413464265972550
 Root    208 :    23.527751565672940
 Root    209 :    23.543366193463190
 Root    210 :    23.567833002269920
 Root    211 :    23.623973812753550
 Root    212 :    23.673858348328220
 Root    213 :    23.699628329479810
 Root    214 :    23.714403822946710
 Root    215 :    23.762508230540610
 Root    216 :    23.829650863283180
 Root    217 :    24.000030022105720
 Root    218 :    24.101603666929640
 Root    219 :    24.115035741328170
 Root    220 :    24.169597983629230
 Root    221 :    24.268840081880350
 Root    222 :    24.276605585608270
 Root    223 :    24.357151618154960
 Root    224 :    24.374532213515430
 Root    225 :    24.413144519174820
 Root    226 :    24.555645525167920
 Root    227 :    24.601672941073570
 Root    228 :    24.622354265211070
 Root    229 :    24.685630643139780
 Root    230 :    24.734653954868300
 Root    231 :    24.769649900054280
 Root    232 :    24.839098966520390
 Root    233 :    25.041383995161730
 Root    234 :    25.090579189975270
 Root    235 :    25.180299295456000
 Root    236 :    25.195061372466210
 Root    237 :    25.248371930714840
 Root    238 :    25.275348807008730
 Root    239 :    25.278692539242580
 Root    240 :    25.331959197982180
 Root    241 :    25.420285238219250
 Root    242 :    25.447333867245180
 Root    243 :    25.549754658346420
 Root    244 :    25.555319978772890
 Root    245 :    25.685204979458130
 Root    246 :    25.771931883930690
 Root    247 :    25.781754649055390
 Root    248 :    25.834121582713910
 Root    249 :    25.859748915327180
 Root    250 :    25.865699729671110
 Root    251 :    25.950344087528520
 Root    252 :    26.031350205570960
 Root    253 :    26.048792936510910
 Root    254 :    26.373229405130510
 Root    255 :    26.506565670147650
 Root    256 :    26.547174799026280
 Root    257 :    26.570950858008500
 Root    258 :    26.650777214301140
 Root    259 :    26.653650099609820
 Root    260 :    26.711292002055010
 Root    261 :    26.726246820291310
 Root    262 :    26.784301784421790
 Root    263 :    26.878719833597310
 Root    264 :    26.947106720106120
 Root    265 :    26.981546946075490
 Root    266 :    27.025243993799840
 Root    267 :    27.044776391727510
 Root    268 :    27.084384966083940
 Root    269 :    27.262113698487920
 Root    270 :    27.274398450651240
 Root    271 :    27.371865820265090
 Root    272 :    27.451983720392200
 Root    273 :    27.456254630185320
 Root    274 :    27.604721282169110
 Root    275 :    27.609010651487700
 Root    276 :    27.659254712673050
 Root    277 :    27.670073306867740
 Root    278 :    27.749532488799640
 Root    279 :    27.822963058398320
 Root    280 :    27.869048990472870
 Root    281 :    27.898819685768840
 Root    282 :    27.993450891012230
 Root    283 :    28.071598390507000
 Root    284 :    28.146732052004850
 Root    285 :    28.202535374837990
 Root    286 :    28.260180493283880
 Root    287 :    28.317958781227610
 Root    288 :    28.464757677023040
 Root    289 :    28.496190091285630
 Root    290 :    28.705697241467550
 Root    291 :    28.811907880615490
 Root    292 :    28.898633915599770
 Root    293 :    28.994099068462900
 Root    294 :    29.146827044093030
 Root    295 :    29.191936574034570
 Root    296 :    29.212808477617190
 Root    297 :    29.241673519534840
 Root    298 :    29.263134427654960
 Root    299 :    29.308356146459200
 Root    300 :    29.386937831416730
 Root    301 :    29.425342783171320
 Root    302 :    29.444511182724270
 Root    303 :    29.549436824733210
 Root    304 :    29.566724735950230
 Root    305 :    29.644307007006950
 Root    306 :    29.783669557022130
 Root    307 :    29.834199656760990
 Root    308 :    29.855461559883490
 Root    309 :    29.953559209860990
 Root    310 :    30.036416859329570
 Root    311 :    30.162755426154910
 Root    312 :    30.169581225558210
 Root    313 :    30.303026742661320
 Root    314 :    30.378856373587590
 Root    315 :    30.426726408780050
 Root    316 :    30.432825720432790
 Root    317 :    30.544451687479720
 Root    318 :    30.559977414443130
 Root    319 :    30.599069493517680
 Root    320 :    30.682591080645730
 Root    321 :    30.911711241078080
 Root    322 :    31.015935995439450
 Root    323 :    31.055013502980570
 Root    324 :    31.090748732676180
 Root    325 :    31.182104568799960
 Root    326 :    31.301184828617120
 Root    327 :    31.303072949689590
 Root    328 :    31.382373794736750
 Root    329 :    31.462146044950210
 Root    330 :    31.505829143106470
 Root    331 :    31.614784740328580
 Root    332 :    31.644810249418410
 Root    333 :    31.718775582920810
 Root    334 :    31.868765555573710
 Root    335 :    31.922875900176390
 Root    336 :    31.990558597632890
 Root    337 :    32.068946580591780
 Root    338 :    32.195118570486830
 Root    339 :    32.216773686326690
 Root    340 :    32.494054609336450
 Root    341 :    32.599480337603820
 Root    342 :    32.634914690632670
 Root    343 :    32.664587173041020
 Root    344 :    32.801321769802340
 Root    345 :    32.863297897518870
 Root    346 :    32.882432316595990
 Root    347 :    33.047212106310720
 Root    348 :    33.090417184314210
 Root    349 :    33.317668314427540
 Root    350 :    33.364995323529640
 Root    351 :    33.404476460368090
 Root    352 :    33.497699499683540
 Root    353 :    33.587290711027620
 Root    354 :    33.614812073730260
 Root    355 :    33.656589951669150
 Root    356 :    33.689206481082010
 Root    357 :    33.802545894271380
 Root    358 :    33.811242025555230
 Root    359 :    33.881696203837350
 Root    360 :    34.056416460944990
 Root    361 :    34.305257818714300
 Root    362 :    34.389363218272980
 Root    363 :    34.414907075528090
 Root    364 :    34.477852830425650
 Root    365 :    34.748325067886430
 Root    366 :    34.789487159667660
 Root    367 :    34.816435741905740
 Root    368 :    35.065361158292180
 Root    369 :    35.140277466958660
 Root    370 :    35.161379403479750
 Root    371 :    35.173303801243110
 Root    372 :    35.319780978500820
 Root    373 :    35.446021554224960
 Root    374 :    35.552306109523950
 Root    375 :    35.573692503857610
 Root    376 :    35.668039367495790
 Root    377 :    35.693106236669690
 Root    378 :    35.697419237159680
 Root    379 :    35.828937741348780
 Root    380 :    35.873608301766630
 Root    381 :    35.879093159274070
 Root    382 :    36.258165243519600
 Root    383 :    36.348780887281170
 Root    384 :    36.403209600437680
 Root    385 :    36.525592168172860
 Root    386 :    36.630509199608430
 Root    387 :    36.740246532648860
 Root    388 :    36.833769699122450
 Root    389 :    36.955249234544940
 Root    390 :    37.064286147145270
 Root    391 :    37.132579592428310
 Root    392 :    37.228572859670810
 Root    393 :    37.261956564498150
 Root    394 :    37.399491125456240
 Root    395 :    37.468017064689550
 Root    396 :    37.562182531648740
 Root    397 :    37.682893891894370
 Root    398 :    37.708611468706080
 Root    399 :    37.746001310310700
 Root    400 :    37.801938756489680
 Root    401 :    38.102323480145100
 Root    402 :    38.176754400516090
 Root    403 :    38.177490995347180
 Root    404 :    38.307889350101670
 Root    405 :    38.363000545607900
 Root    406 :    38.477828417485580
 Root    407 :    38.542002278561580
 Root    408 :    38.631658259799870
 Root    409 :    38.716397539498190
 Root    410 :    38.797814007138850
 Root    411 :    38.811963517553520
 Root    412 :    38.860949137740610
 Root    413 :    39.098915949710540
 Root    414 :    39.161359833497550
 Root    415 :    39.301966084240630
 Root    416 :    39.546189449270230
 Root    417 :    39.554936293424630
 Root    418 :    39.568450847641360
 Root    419 :    39.633150062174220
 Root    420 :    39.696106193883910
 Root    421 :    39.909668726804530
 Root    422 :    39.933001534701910
 Root    423 :    39.941600385505640
 Root    424 :    40.336443946680450
 Root    425 :    40.357699663168340
 Root    426 :    40.639140925261750
 Root    427 :    40.754245295144530
 Root    428 :    40.761609213925500
 Root    429 :    40.793975888479080
 Root    430 :    40.992241857408620
 Root    431 :    41.086244850237680
 Root    432 :    41.144421861831030
 Root    433 :    41.244762506642740
 Root    434 :    41.304632573288160
 Root    435 :    41.600213809559810
 Root    436 :    41.626613049287390
 Root    437 :    41.684733901920410
 Root    438 :    41.703600876353710
 Root    439 :    42.051142470834700
 Root    440 :    42.076226689135810
 Root    441 :    42.173274148152690
 Root    442 :    42.235268080500240
 Root    443 :    42.278873659139390
 Root    444 :    42.472381116712380
 Root    445 :    42.722200839755120
 Root    446 :    42.770452083173860
 Root    447 :    42.788374052918840
 Root    448 :    43.040804027479450
 Root    449 :    43.086969765753250
 Root    450 :    43.475094193766840
 Root    451 :    43.535789807517060
 Root    452 :    43.668195432818610
 Root    453 :    43.784601152148060
 Root    454 :    43.845178263210770
 Root    455 :    43.878417868349170
 Root    456 :    44.318681829574490
 Root    457 :    44.495609078949420
 Root    458 :    44.530486924663810
 Root    459 :    44.604856550442180
 Root    460 :    44.821406820674110
 Root    461 :    44.966865300644660
 Root    462 :    45.136676390320080
 Root    463 :    45.199023439479060
 Root    464 :    45.437602930750860
 Root    465 :    45.811111248218590
 Root    466 :    45.918378128053580
 Root    467 :    46.182607732012610
 Root    468 :    46.292907327178200
 Root    469 :    46.295212134793450
 Root    470 :    46.445824444743300
 Root    471 :    46.673790503383840
 Root    472 :    46.885712575668150
 Root    473 :    46.998111228157720
 Root    474 :    47.289109999348260
 Root    475 :    47.346031760896200
 Root    476 :    47.423567941468000
 Root    477 :    47.584571039150300
 Root    478 :    47.714557574465580
 Root    479 :    48.058417358039120
 Root    480 :    48.236110033723380
 Root    481 :    48.381875016918020
 Root    482 :    48.682298030988220
 Root    483 :    48.753784640434140
 Root    484 :    48.845044776844990
 Root    485 :    49.089865176615320
 Root    486 :    49.149933732119850
 Root    487 :    49.208655718968010
 Root    488 :    49.399967371858040
 Root    489 :    49.622401749303310
 Root    490 :    49.680920167919150
 Root    491 :    49.768798682397590
 Root    492 :    49.847955547139410
 Root    493 :    49.925719874362550
 Root    494 :    50.207635765631970
 Root    495 :    50.381617854959130
 Root    496 :    50.538426297229730
 Root    497 :    50.743682025496880
 Root    498 :    50.960262113278190
 Root    499 :    51.251935373734380
 Root    500 :    51.316167182365640
 Root    501 :    51.477709096288510
 Root    502 :    51.921899604397820
 Root    503 :    51.956176907703430
 Root    504 :    51.999161586907100
 Root    505 :    52.174773895457070
 Root    506 :    52.303840487402140
 Root    507 :    52.418840050910870
 Root    508 :    52.603715758282950
 Root    509 :    52.643654767310170
 Root    510 :    52.763579323057800
 Root    511 :    52.878841864877420
 Root    512 :    53.005014744438940
 Root    513 :    53.211588200761780
 Root    514 :    53.321400835354150
 Root    515 :    53.362887983232730
 Root    516 :    53.496158646700810
 Root    517 :    53.540630021642690
 Root    518 :    53.779524572470710
 Root    519 :    54.003566496446520
 Root    520 :    54.264503742582550
 Root    521 :    54.430774476905010
 Root    522 :    54.532021226901560
 Root    523 :    54.852979302074280
 Root    524 :    54.911740053363910
 Root    525 :    55.145463402039910
 Root    526 :    55.152986257562130
 Root    527 :    55.360624886581930
 Root    528 :    55.589935131933430
 Root    529 :    55.801991621124160
 Root    530 :    55.901284653865000
 Root    531 :    56.123959692367860
 Root    532 :    56.180156467387730
 Root    533 :    56.365254146346030
 Root    534 :    56.442020818857910
 Root    535 :    56.565918647359920
 Root    536 :    56.726336261695590
 Root    537 :    56.751267875349210
 Root    538 :    56.863324125481430
 Root    539 :    56.877768113691150
 Root    540 :    56.913962657463840
 Root    541 :    57.130536496953570
 Root    542 :    57.250229259599670
 Root    543 :    57.519378900143450
 Root    544 :    57.596725056260030
 Root    545 :    57.673676857862030
 Root    546 :    57.899008839080660
 Root    547 :    58.070638750296460
 Root    548 :    58.112169992426920
 Root    549 :    58.374071222128500
 Root    550 :    58.453971871159310
 Root    551 :    58.499247338619480
 Root    552 :    58.589453488175360
 Root    553 :    58.994937239365810
 Root    554 :    59.015414302067190
 Root    555 :    59.332699779498900
 Root    556 :    59.391490167423920
 Root    557 :    59.417200486723120
 Root    558 :    59.655269138567680
 Root    559 :    59.838211136147400
 Root    560 :    60.033400365293860
 Root    561 :    60.043400486275670
 Root    562 :    60.101651921387940
 Root    563 :    60.331776879788710
 Root    564 :    60.516823620154900
 Root    565 :    60.779706967438750
 Root    566 :    60.856372367469160
 Root    567 :    61.013375176656240
 Root    568 :    61.121427513411600
 Root    569 :    61.404033809424250
 Root    570 :    61.555503949109880
 Root    571 :    61.579354579123760
 Root    572 :    61.901176791553400
 Root    573 :    62.010781399119850
 Root    574 :    62.055584187162700
 Root    575 :    62.102659132589020
 Root    576 :    62.274798666785730
 Root    577 :    62.376997307832650
 Root    578 :    62.485618871029470
 Root    579 :    62.673369883681680
 Root    580 :    62.784371788526870
 Root    581 :    62.895601190195650
 Root    582 :    63.089901279242270
 Root    583 :    63.203482689935620
 Root    584 :    63.378196720634900
 Root    585 :    63.623746321508970
 Root    586 :    63.654308369135900
 Root    587 :    63.722127033143480
 Root    588 :    63.762990895400240
 Root    589 :    64.107066366976310
 Root    590 :    64.403889540677680
 Root    591 :    64.692472277913850
 Root    592 :    64.800772581467020
 Root    593 :    64.983675720987690
 Root    594 :    65.054804879334990
 Root    595 :    65.219919802373450
 Root    596 :    65.423214478071880
 Root    597 :    65.452366219216940
 Root    598 :    65.590420498787450
 Root    599 :    65.618994106939990
 Root    600 :    65.810999413875550
 Root    601 :    65.827449559810080
 Root    602 :    65.948795830492980
 Root    603 :    66.111569572802380
 Root    604 :    66.124749006907730
 Root    605 :    66.174950335586870
 Root    606 :    66.485463891029010
 Root    607 :    66.510445001371240
 Root    608 :    66.692144570804290
 Root    609 :    66.835063068291250
 Root    610 :    66.944155519970240
 Root    611 :    67.157358233374590
 Root    612 :    67.271188557935160
 Root    613 :    67.323208567446630
 Root    614 :    67.379122445967430
 Root    615 :    67.579148659611760
 Root    616 :    67.583293977445040
 Root    617 :    67.723278759089870
 Root    618 :    67.981466740597230
 Root    619 :    68.305265185373810
 Root    620 :    68.312156904928200
 Root    621 :    68.427734400612290
 Root    622 :    68.463833189802730
 Root    623 :    68.554954977804870
 Root    624 :    68.658971216056440
 Root    625 :    68.685799974155740
 Root    626 :    69.164097423579240
 Root    627 :    69.352770488961770
 Root    628 :    69.489547997308850
 Root    629 :    69.637502330815650
 Root    630 :    69.730582242454520
 Root    631 :    69.795718416092730
 Root    632 :    70.099336622821110
 Root    633 :    70.248723708922360
 Root    634 :    70.307831438145800
 Root    635 :    70.678791579673070
 Root    636 :    70.789912526050980
 Root    637 :    71.002621627865780
 Root    638 :    71.121834169390520
 Root    639 :    71.218086771114230
 Root    640 :    71.334632927327460
 Root    641 :    71.434831062019030
 Root    642 :    71.509525136040990
 Root    643 :    71.615023612256480
 Root    644 :    71.794785588095390
 Root    645 :    72.108691619637950
 Root    646 :    72.139607034605380
 Root    647 :    72.725706510842200
 Root    648 :    72.753509201411330
 Root    649 :    73.389305300800810
 Root    650 :    73.592254277921730
 Root    651 :    73.597371840345260
 Root    652 :    73.693591981796160
 Root    653 :    73.758599651976990
 Root    654 :    73.840290633271740
 Root    655 :    73.939339213776210
 Root    656 :    74.098406864751480
 Root    657 :    74.124998555465130
 Root    658 :    74.513493264017630
 Root    659 :    74.707700360608970
 Root    660 :    74.713578697378690
 Root    661 :    74.815549873660540
 Root    662 :    75.127770834962180
 Root    663 :    75.352226082784910
 Root    664 :    75.444080086353570
 Root    665 :    75.555172352766480
 Root    666 :    75.791009772445250
 Root    667 :    75.994876693686340
 Root    668 :    76.101853495973060
 Root    669 :    76.220064570646410
 Root    670 :    76.282906216310680
 Root    671 :    76.503967306556590
 Root    672 :    76.510386603595150
 Root    673 :    76.584808268541830
 Root    674 :    76.605822989137470
 Root    675 :    77.179446597756300
 Root    676 :    77.320572025571180
 Root    677 :    77.628762751730380
 Root    678 :    78.428148182945410
 Root    679 :    78.730443930404410
 Root    680 :    78.902464628194290
 Root    681 :    79.204230123758260
 Root    682 :    79.241379080523660
 Root    683 :    79.597087898819610
 Root    684 :    79.606061095973640
 Root    685 :    79.780748972272410
 Root    686 :    79.849024203676620
 Root    687 :    80.167794782865220
 Root    688 :    80.707130378064600
 Root    689 :    81.219758330571140
 Root    690 :    81.395610910817370
 Root    691 :    81.452237260194720
 Root    692 :    81.728918814070890
 Root    693 :    81.996157693976830
 Root    694 :    82.353591638590810
 Root    695 :    82.463243194306240
 Root    696 :    82.603640352352910
 Root    697 :    82.871113740207950
 Root    698 :    83.043867970879670
 Root    699 :    83.063923980613440
 Root    700 :    83.376429147776390
 Root    701 :    83.632030019835580
 Root    702 :    83.788502986437710
 Root    703 :    84.105547583527970
 Root    704 :    84.340803572667430
 Root    705 :    84.541222253500830
 Root    706 :    84.616060107264640
 Root    707 :    84.628503641707650
 Root    708 :    84.755234482256800
 Root    709 :    85.014841572103390
 Root    710 :    85.286365177081080
 Root    711 :    85.370151698093250
 Root    712 :    85.623117861602910
 Root    713 :    86.132537920646430
 Root    714 :    86.225533990536290
 Root    715 :    86.558449229332330
 Root    716 :    86.960153000623750
 Root    717 :    87.261753497213150
 Root    718 :    87.608262454646440
 Root    719 :    87.702940803754330
 Root    720 :    88.068797221713350
 Root    721 :    88.172119275586790
 Root    722 :    88.227580739902950
 Root    723 :    88.433815823529360
 Root    724 :    88.809908660744090
 Root    725 :    89.215791626252450
 Root    726 :    89.431414423213810
 Root    727 :    89.726416948879770
 Root    728 :    89.944986874345520
 Root    729 :    90.238399146355500
 Root    730 :    90.348986795101330
 Root    731 :    90.690573218183720
 Root    732 :    90.745395025954220
 Root    733 :    90.830643700118150
 Root    734 :    91.230119174535010
 Root    735 :    91.291846516064810
 Root    736 :    91.476375234492390
 Root    737 :    91.696564530667190
 Root    738 :    92.140437244210820
 Root    739 :    92.148956726179070
 Root    740 :    92.201196433970760
 Root    741 :    92.288512283479760
 Root    742 :    92.526871157120480
 Root    743 :    92.691527389286490
 Root    744 :    93.056740276324060
 Root    745 :    93.261019473375340
 Root    746 :    93.342850409855200
 Root    747 :    93.510145307397070
 Root    748 :    93.553034034467530
 Root    749 :    93.966807033747140
 Root    750 :    94.042648591972880
 Root    751 :    94.567693611178310
 Root    752 :    94.942399503591370
 Root    753 :    94.948317167700640
 Root    754 :    95.842777199633960
 Root    755 :    95.854865466475300
 Root    756 :    96.103019524142240
 Root    757 :    96.160387768991480
 Root    758 :    96.430094283928750
 Root    759 :    96.517068177912550
 Root    760 :    97.187526384755030
 Root    761 :    97.281813081093390
 Root    762 :    97.432873114845420
 Root    763 :    97.755634902310430
 Root    764 :    98.450922637691900
 Root    765 :    98.757963706356560
 Root    766 :    98.830366259534300
 Root    767 :    99.269580108936400
 Root    768 :    99.702579941246330
 Root    769 :   100.014910835501800
 Root    770 :   100.049283946985900
 Root    771 :   100.354258953371100
 Root    772 :   101.143750655101800
[...]
      8   0.000000D+00 -0.130609D+00  0.000000D+00  0.000000D+00  0.000000D+00
      9  -0.496149D-01  0.000000D+00  0.179117D+00 -0.419345D-01  0.292488D-01
     10  -0.269914D+00  0.000000D+00  0.509985D+00  0.144234D-01 -0.789614D-01
     11   0.000000D+00 -0.466000D+00  0.000000D+00  0.000000D+00  0.000000D+00
     12   0.000000D+00  0.846515D+00  0.000000D+00  0.000000D+00  0.000000D+00
     13   0.000000D+00 -0.377493D-01  0.000000D+00  0.000000D+00  0.000000D+00
     14   0.371932D+00  0.000000D+00 -0.382381D+00  0.362304D+00 -0.774454D-02
     15  -0.101418D+00  0.000000D+00 -0.428026D-01  0.152082D+00  0.348824D-01
     16   0.000000D+00 -0.380618D+00  0.000000D+00  0.000000D+00  0.000000D+00
               726           727           728           729           730 
      1  -0.130505D+03 -0.130494D+03 -0.130486D+03 -0.130475D+03 -0.130471D+03
      2  -0.237561D-01 -0.103432D+00  0.000000D+00  0.000000D+00  0.000000D+00
      3   0.000000D+00  0.000000D+00 -0.362552D-01 -0.298013D-01  0.246544D-01
      4   0.000000D+00  0.000000D+00 -0.785620D-01 -0.830486D-01  0.173127D-01
      5   0.793957D-01  0.306160D+00  0.000000D+00  0.000000D+00  0.000000D+00
      6   0.000000D+00  0.000000D+00  0.891242D-01  0.934949D-01 -0.675176D-01
      7   0.000000D+00  0.000000D+00  0.253333D+00  0.240778D+00 -0.551351D-01
      8   0.000000D+00  0.000000D+00  0.472430D+00  0.286733D+00 -0.176427D+00
      9  -0.175667D+00  0.123411D+00  0.000000D+00  0.000000D+00  0.000000D+00
     10   0.145740D-01 -0.690609D-01  0.000000D+00  0.000000D+00  0.000000D+00
     11   0.000000D+00  0.000000D+00 -0.244655D+00 -0.499708D-01  0.105060D+00
     12   0.000000D+00  0.000000D+00  0.158817D+00  0.247732D+00 -0.233699D+00
     13   0.000000D+00  0.000000D+00 -0.336180D+00 -0.487160D+00  0.332592D+00
     14   0.888114D-01  0.843383D-01  0.000000D+00  0.000000D+00  0.000000D+00
     15  -0.675998D-01 -0.328497D+00  0.000000D+00  0.000000D+00  0.000000D+00
     16   0.000000D+00  0.000000D+00  0.615512D+00  0.488063D+00 -0.130908D+00
               731           732           733           734           735 
      1  -0.130458D+03 -0.130456D+03 -0.130453D+03 -0.130439D+03 -0.130436D+03
      2   0.000000D+00  0.236692D-05  0.000000D+00 -0.126696D+00  0.000000D+00
      3   0.419608D-01  0.000000D+00 -0.116908D-01  0.000000D+00  0.287798D-01
      4  -0.776059D-01  0.000000D+00 -0.107487D-01  0.000000D+00 -0.482882D-01
      5   0.000000D+00 -0.176131D-01  0.000000D+00  0.389005D+00  0.000000D+00
      6  -0.134815D+00  0.000000D+00  0.599788D-02  0.000000D+00 -0.101833D+00
      7   0.220255D+00  0.000000D+00  0.359555D-01  0.000000D+00  0.140007D+00
      8   0.529458D-01  0.000000D+00  0.807056D-02  0.000000D+00 -0.612849D-01
      9   0.000000D+00 -0.764711D-01  0.000000D+00 -0.275543D-01  0.000000D+00
     10   0.000000D+00 -0.568348D+00  0.000000D+00 -0.253438D+00  0.000000D+00
     11   0.183116D+00  0.000000D+00 -0.441912D+00  0.000000D+00  0.396277D+00
     12   0.144566D-01  0.000000D+00 -0.194838D+00  0.000000D+00 -0.321098D+00
     13   0.477640D-01  0.000000D+00  0.198506D-01  0.000000D+00 -0.126045D+00
     14   0.000000D+00  0.164812D+00  0.000000D+00  0.423399D+00  0.000000D+00
     15   0.000000D+00  0.101651D+00  0.000000D+00 -0.129549D+00  0.000000D+00
     16   0.113943D+00  0.000000D+00  0.145540D+00  0.000000D+00 -0.560265D-01
               736           737           738           739           740 
      1  -0.130430D+03 -0.130421D+03 -0.130405D+03 -0.130405D+03 -0.130403D+03
      2   0.121028D+00  0.000000D+00 -0.406968D-01  0.000000D+00  0.000000D+00
      3   0.000000D+00  0.617727D-01  0.000000D+00 -0.227536D-01 -0.388863D-02
      4   0.000000D+00  0.107528D+00  0.000000D+00 -0.515194D-01 -0.280469D-01
      5  -0.363355D+00  0.000000D+00  0.103651D+00  0.000000D+00  0.000000D+00
      6   0.000000D+00 -0.183723D+00  0.000000D+00  0.722010D-01 -0.192762D-02
      7   0.000000D+00 -0.297132D+00  0.000000D+00  0.145839D+00  0.929008D-01
      8   0.000000D+00  0.255901D+00  0.000000D+00  0.195552D-02  0.667907D-01
      9   0.355872D-01  0.000000D+00  0.207537D+00  0.000000D+00  0.000000D+00
     10   0.272481D+00  0.000000D+00 -0.175585D+00  0.000000D+00  0.000000D+00
     11   0.000000D+00  0.209521D+00  0.000000D+00  0.800093D-01 -0.354031D-01
     12   0.000000D+00 -0.800880D-01  0.000000D+00  0.516203D+00 -0.572110D+00
     13   0.000000D+00 -0.155065D-01  0.000000D+00  0.785367D-01 -0.175088D+00
     14  -0.482513D+00  0.000000D+00  0.348303D+00  0.000000D+00  0.000000D+00
     15   0.105764D+00  0.000000D+00 -0.266766D+00  0.000000D+00  0.000000D+00
     16   0.000000D+00  0.277360D+00  0.000000D+00 -0.112285D+00  0.104393D+00
               741           742           743           744           745 
      1  -0.130400D+03 -0.130391D+03 -0.130385D+03 -0.130371D+03 -0.130364D+03
      2   0.000000D+00  0.000000D+00  0.335518D-01  0.279338D-01  0.696612D-01
      3  -0.842938D-02 -0.443247D-01  0.000000D+00  0.000000D+00  0.000000D+00
      4  -0.603306D-01 -0.298073D-01  0.000000D+00  0.000000D+00  0.000000D+00
      5   0.000000D+00  0.000000D+00 -0.123577D+00 -0.981671D-01 -0.241228D+00
      6   0.244051D-01  0.133249D+00  0.000000D+00  0.000000D+00  0.000000D+00
      7   0.178212D+00  0.719087D-01  0.000000D+00  0.000000D+00  0.000000D+00
      8   0.112373D+00 -0.531121D-01  0.000000D+00  0.000000D+00  0.000000D+00
      9   0.000000D+00  0.000000D+00 -0.171026D-02  0.982916D-01  0.136561D+00
     10   0.000000D+00  0.000000D+00  0.141585D+00  0.200521D+00  0.285688D+00
     11   0.480103D+00  0.203461D+00  0.000000D+00  0.000000D+00  0.000000D+00
     12  -0.167390D+00  0.383992D+00  0.000000D+00  0.000000D+00  0.000000D+00
     13  -0.382861D-01  0.799540D-01  0.000000D+00  0.000000D+00  0.000000D+00
     14   0.000000D+00  0.000000D+00 -0.469824D+00 -0.250798D+00 -0.827764D-01
     15   0.000000D+00  0.000000D+00  0.764505D-01 -0.293331D-01 -0.429680D-02
     16   0.264025D+00 -0.196614D+00  0.000000D+00  0.000000D+00  0.000000D+00
               746           747           748           749           750 
      1  -0.130361D+03 -0.130355D+03 -0.130353D+03 -0.130338D+03 -0.130335D+03
      2   0.458781D-01 -0.469294D-01  0.000000D+00  0.000000D+00 -0.468838D-01
      3   0.000000D+00  0.000000D+00 -0.600380D-01  0.167108D+00  0.000000D+00
      4   0.000000D+00  0.000000D+00 -0.504962D-02 -0.368179D-01  0.000000D+00
      5  -0.114925D+00  0.149182D+00  0.000000D+00  0.000000D+00  0.135982D+00
      6   0.000000D+00  0.000000D+00  0.192158D+00 -0.546114D+00  0.000000D+00
      7   0.000000D+00  0.000000D+00  0.603794D-02  0.991705D-01  0.000000D+00
      8   0.000000D+00  0.000000D+00 -0.324322D-01  0.198385D+00  0.000000D+00
      9   0.138608D+00  0.119731D+00  0.000000D+00  0.000000D+00  0.404788D-01
     10  -0.180663D+00 -0.423874D-01  0.000000D+00  0.000000D+00 -0.147759D+00
     11   0.000000D+00  0.000000D+00 -0.197580D+00  0.118198D+00  0.000000D+00
     12   0.000000D+00  0.000000D+00 -0.756509D-01 -0.104302D+01  0.000000D+00
     13   0.000000D+00  0.000000D+00  0.160977D-01 -0.790049D-01  0.000000D+00
     14   0.401778D-01 -0.327165D+00  0.000000D+00  0.000000D+00  0.716962D-01
     15  -0.174407D+00 -0.100449D+00  0.000000D+00  0.000000D+00 -0.113340D+00
     16   0.000000D+00  0.000000D+00 -0.706720D-01  0.487141D+00  0.000000D+00
               751           752           753           754           755 
      1  -0.130316D+03 -0.130302D+03 -0.130302D+03 -0.130269D+03 -0.130269D+03
      2  -0.800962D-01  0.000000D+00  0.559305D-01  0.000000D+00  0.790327D-02
      3   0.000000D+00 -0.181611D-01  0.000000D+00 -0.418790D-01  0.000000D+00
      4   0.000000D+00 -0.427174D-01  0.000000D+00  0.868748D-02  0.000000D+00
      5   0.241659D+00  0.000000D+00 -0.153117D+00  0.000000D+00 -0.282973D-01
      6   0.000000D+00  0.540925D-01  0.000000D+00  0.136457D+00  0.000000D+00
      7   0.000000D+00  0.137944D+00  0.000000D+00 -0.311282D-01  0.000000D+00
      8   0.000000D+00 -0.115741D+00  0.000000D+00  0.114370D-01  0.000000D+00
      9  -0.183815D+00  0.000000D+00  0.271951D-01  0.000000D+00 -0.135596D-01
     10   0.452773D-01  0.000000D+00  0.396355D+00  0.000000D+00  0.355162D+00
     11   0.000000D+00  0.177136D+00  0.000000D+00  0.194417D+00  0.000000D+00
     12   0.000000D+00  0.159779D+00  0.000000D+00  0.987459D+00  0.000000D+00
     13   0.000000D+00  0.673214D-01  0.000000D+00 -0.156228D-01  0.000000D+00
     14  -0.738934D-01  0.000000D+00  0.425389D-01  0.000000D+00 -0.810350D-01
     15   0.185522D+00  0.000000D+00  0.261129D+00  0.000000D+00  0.182703D+00
     16   0.000000D+00 -0.323108D+00  0.000000D+00 -0.639453D-01  0.000000D+00
               756           757           758           759           760 
      1  -0.130260D+03 -0.130257D+03 -0.130247D+03 -0.130244D+03 -0.130220D+03
      2   0.000000D+00  0.454751D-02 -0.224113D-01  0.000000D+00  0.000000D+00
      3   0.131753D-01  0.000000D+00  0.000000D+00  0.470169D-01 -0.825368D-01
      4  -0.459839D-01  0.000000D+00  0.000000D+00 -0.513675D-01  0.219928D-01
      5   0.000000D+00 -0.138873D-01  0.710198D-01  0.000000D+00  0.000000D+00
      6  -0.402067D-01  0.000000D+00  0.000000D+00 -0.160140D+00  0.293263D+00
      7   0.126293D+00  0.000000D+00  0.000000D+00  0.166549D+00 -0.714029D-01
      8  -0.348527D+00  0.000000D+00  0.000000D+00 -0.254861D+00  0.153702D+00
      9   0.000000D+00 -0.342175D+00 -0.157396D+00  0.000000D+00  0.000000D+00
     10   0.000000D+00 -0.128766D+00 -0.123096D+00  0.000000D+00  0.000000D+00
     11  -0.263839D+00  0.000000D+00  0.000000D+00  0.738298D-01 -0.524251D+00
     12  -0.347511D+00  0.000000D+00  0.000000D+00 -0.229182D+00 -0.185394D-01
     13   0.485336D-01  0.000000D+00  0.000000D+00  0.975833D-01 -0.860898D-01
     14   0.000000D+00 -0.981093D-01  0.155083D+00  0.000000D+00  0.000000D+00
     15   0.000000D+00  0.461647D+00  0.192540D+00  0.000000D+00  0.000000D+00
     16  -0.316630D+00  0.000000D+00  0.000000D+00 -0.350275D+00 -0.243520D-01
               761           762           763           764           765 
      1  -0.130216D+03 -0.130211D+03 -0.130199D+03 -0.130173D+03 -0.130162D+03
      2   0.000000D+00  0.836537D-01  0.000000D+00  0.000000D+00 -0.347550D-01
      3   0.564971D-01  0.000000D+00 -0.419565D-01 -0.165453D-01  0.000000D+00
      4  -0.534810D-03  0.000000D+00  0.225608D-01  0.103050D+00  0.000000D+00
      5   0.000000D+00 -0.271311D+00  0.000000D+00  0.000000D+00  0.121148D+00
      6  -0.182437D+00  0.000000D+00  0.147883D+00  0.697075D-01  0.000000D+00
      7  -0.104420D-02  0.000000D+00 -0.756516D-01 -0.312852D+00  0.000000D+00
      8   0.120676D+00  0.000000D+00  0.144307D-01 -0.790493D-01  0.000000D+00
      9   0.000000D+00  0.104442D+00  0.000000D+00  0.000000D+00  0.116748D+00
     10   0.000000D+00  0.571540D+00  0.000000D+00  0.000000D+00 -0.492774D+00
     11   0.468342D+00  0.000000D+00  0.125776D+00  0.755090D-01  0.000000D+00
     12   0.279422D-02  0.000000D+00  0.243922D+00  0.214153D+00  0.000000D+00
     13  -0.202381D+00  0.000000D+00  0.834177D-01  0.896863D-02  0.000000D+00
     14   0.000000D+00 -0.334982D+00  0.000000D+00  0.000000D+00  0.168950D+00
     15   0.000000D+00  0.146356D+00  0.000000D+00  0.000000D+00 -0.272581D+00
     16   0.175639D+00  0.000000D+00 -0.923747D-01 -0.127423D+00  0.000000D+00
               766           767           768           769           770 
      1  -0.130159D+03 -0.130143D+03 -0.130127D+03 -0.130116D+03 -0.130114D+03
      2   0.000000D+00  0.246386D-01  0.160448D-01 -0.349888D-01  0.000000D+00
      3   0.575295D-02  0.000000D+00  0.000000D+00  0.000000D+00 -0.161855D+00
      4   0.590694D-02  0.000000D+00  0.000000D+00  0.000000D+00 -0.656327D-01
      5   0.000000D+00 -0.856545D-01 -0.330590D-01  0.873764D-01  0.000000D+00
      6   0.418618D-02  0.000000D+00  0.000000D+00  0.000000D+00  0.547460D+00
      7  -0.241256D-01  0.000000D+00  0.000000D+00  0.000000D+00  0.197195D+00
      8   0.964635D-02  0.000000D+00  0.000000D+00  0.000000D+00  0.367298D+00
      9   0.000000D+00  0.298655D-01  0.229736D+00 -0.327209D-01  0.000000D+00
     10   0.000000D+00  0.457404D-01  0.255637D+00  0.582695D-01  0.000000D+00
     11  -0.796585D+00  0.000000D+00  0.000000D+00  0.000000D+00  0.476180D-01
     12   0.155953D+00  0.000000D+00  0.000000D+00  0.000000D+00  0.154728D+01
     13   0.511402D-01  0.000000D+00  0.000000D+00  0.000000D+00 -0.149436D+00
     14   0.000000D+00 -0.236416D-01 -0.113545D+00  0.678682D-01  0.000000D+00
     15   0.000000D+00 -0.815738D-01 -0.256156D+00  0.211501D-01  0.000000D+00
     16  -0.184307D-02  0.000000D+00  0.000000D+00  0.000000D+00 -0.500770D-01
               771           772           773           774           775 
      1  -0.130103D+03 -0.130074D+03 -0.130071D+03 -0.130063D+03 -0.130060D+03
      2  -0.539366D-01  0.000000D+00 -0.701664D-02 -0.668320D-01  0.000000D+00
      3   0.000000D+00 -0.581659D-01  0.000000D+00  0.000000D+00  0.181608D-01
      4   0.000000D+00  0.454934D-01  0.000000D+00  0.000000D+00 -0.484970D-02
      5   0.166417D+00  0.000000D+00  0.169305D-01  0.229306D+00  0.000000D+00
      6   0.000000D+00  0.188753D+00  0.000000D+00  0.000000D+00  0.104936D-01
      7   0.000000D+00 -0.142608D+00  0.000000D+00  0.000000D+00  0.329476D-02
      8   0.000000D+00  0.144844D+00  0.000000D+00  0.000000D+00 -0.254051D-01
      9   0.337212D+00  0.000000D+00 -0.962823D-01 -0.205513D+00  0.000000D+00
     10  -0.624283D-01  0.000000D+00 -0.977963D-01 -0.669696D-01  0.000000D+00
     11   0.000000D+00  0.891289D-01  0.000000D+00  0.000000D+00 -0.502726D-01
     12   0.000000D+00  0.690588D+00  0.000000D+00  0.000000D+00  0.110833D+01
     13   0.000000D+00  0.261849D-01  0.000000D+00  0.000000D+00  0.156819D-01
     14  -0.308418D+00  0.000000D+00  0.127823D+00  0.494076D-01  0.000000D+00
     15  -0.310811D+00  0.000000D+00  0.883407D-01  0.145028D+00  0.000000D+00
     16   0.000000D+00 -0.733849D-01  0.000000D+00  0.000000D+00 -0.221109D+00
               776           777           778           779           780 
      1  -0.130032D+03 -0.130025D+03 -0.130012D+03 -0.129977D+03 -0.129968D+03
      2   0.805587D-01 -0.300160D-01  0.000000D+00  0.000000D+00  0.000000D+00
      3   0.000000D+00  0.000000D+00 -0.337747D-01  0.233658D-01  0.300172D-03
      4   0.000000D+00  0.000000D+00 -0.113566D+00  0.845534D-01  0.426281D-01
      5  -0.304097D+00  0.929415D-01  0.000000D+00  0.000000D+00  0.000000D+00
      6   0.000000D+00  0.000000D+00  0.113482D+00 -0.792979D-01 -0.397677D-01
      7   0.000000D+00  0.000000D+00  0.392113D+00 -0.258145D+00 -0.136664D+00
      8   0.000000D+00  0.000000D+00  0.526834D+00  0.341565D-01 -0.121509D+00
      9   0.931437D-01  0.847992D-01  0.000000D+00  0.000000D+00  0.000000D+00
     10   0.481679D+00 -0.147093D+00  0.000000D+00  0.000000D+00  0.000000D+00
     11   0.000000D+00  0.000000D+00  0.238270D+00 -0.832888D-01 -0.119369D+00
     12   0.000000D+00  0.000000D+00  0.476770D+00  0.106654D-01 -0.379073D+00
     13   0.000000D+00  0.000000D+00 -0.404850D+00  0.791087D-01  0.110821D+00
     14  -0.903642D-01  0.730634D+00  0.000000D+00  0.000000D+00  0.000000D+00
     15   0.145353D+00 -0.323619D+00  0.000000D+00  0.000000D+00  0.000000D+00
     16   0.000000D+00  0.000000D+00  0.427648D+00  0.987844D-01 -0.375171D-01
               781           782           783           784           785 
      1  -0.129954D+03 -0.129926D+03 -0.129919D+03 -0.129874D+03 -0.129824D+03
      2  -0.474561D-03 -0.188403D-01  0.000000D+00  0.000000D+00  0.553438D-01
      3   0.000000D+00  0.000000D+00 -0.353636D-01  0.477751D-01  0.000000D+00
      4   0.000000D+00  0.000000D+00 -0.256979D-01 -0.566841D-01  0.000000D+00
      5  -0.767408D-02  0.641765D-01  0.000000D+00  0.000000D+00 -0.183344D+00
      6   0.000000D+00  0.000000D+00  0.147783D+00 -0.168207D+00  0.000000D+00
      7   0.000000D+00  0.000000D+00  0.744309D-01  0.197280D+00  0.000000D+00
      8   0.000000D+00  0.000000D+00  0.522604D-01  0.232718D+00  0.000000D+00
      9   0.857238D-01 -0.210852D+00  0.000000D+00  0.000000D+00  0.379631D-01
     10  -0.510732D-01 -0.532278D-01  0.000000D+00  0.000000D+00  0.847376D-01
     11   0.000000D+00  0.000000D+00 -0.548497D-01 -0.280505D-01  0.000000D+00
     12   0.000000D+00  0.000000D+00  0.474800D+00 -0.364864D+00  0.000000D+00
     13   0.000000D+00  0.000000D+00 -0.529425D-02 -0.177154D+00  0.000000D+00
     14  -0.222873D-02  0.248059D+00  0.000000D+00  0.000000D+00 -0.570701D-01
     15  -0.103250D+00  0.157727D+00  0.000000D+00  0.000000D+00  0.116030D-01
     16   0.000000D+00  0.000000D+00 -0.703750D-01  0.317803D+00  0.000000D+00
               786           787           788           789           790 
      1  -0.129818D+03 -0.129785D+03 -0.129742D+03 -0.129715D+03 -0.129696D+03
      2   0.000000D+00  0.000000D+00  0.631642D-02  0.204314D-03  0.000000D+00
      3   0.188628D-01 -0.432962D-02  0.000000D+00  0.000000D+00  0.801922D-02
      4   0.759464D-01 -0.163038D-01  0.000000D+00  0.000000D+00  0.304930D-03
      5   0.000000D+00  0.000000D+00 -0.523374D-01  0.110039D-01  0.000000D+00
      6  -0.454011D-01 -0.109191D-01  0.000000D+00  0.000000D+00 -0.399366D-01
      7  -0.253067D+00  0.395349D-01  0.000000D+00  0.000000D+00 -0.776874D-02
      8  -0.467241D+00 -0.405881D+00  0.000000D+00  0.000000D+00 -0.739781D-01
      9   0.000000D+00  0.000000D+00 -0.746305D-01  0.729100D-02  0.000000D+00
     10   0.000000D+00  0.000000D+00  0.142120D+00  0.349495D-02  0.000000D+00
     11  -0.998103D-02 -0.705005D-01  0.000000D+00  0.000000D+00  0.185427D+00
     12  -0.308254D+00 -0.270305D+00  0.000000D+00  0.000000D+00  0.314330D+00
     13   0.302710D+00  0.133365D+00  0.000000D+00  0.000000D+00  0.879355D-02
     14   0.000000D+00  0.000000D+00 -0.162179D+00  0.237235D+00  0.000000D+00
     15   0.000000D+00  0.000000D+00  0.110143D+00 -0.774648D-01  0.000000D+00
     16  -0.464271D+00 -0.388464D+00  0.000000D+00  0.000000D+00 -0.162459D+00
               791           792 
      1  -0.129634D+03 -0.129410D+03
      2  -0.733500D-02  0.000000D+00
      3   0.000000D+00 -0.233606D-01
      4   0.000000D+00 -0.356456D-01
      5   0.169549D-01  0.000000D+00
      6   0.000000D+00  0.415364D-01
      7   0.000000D+00  0.130880D+00
      8   0.000000D+00  0.268512D+00
      9   0.351362D+00  0.000000D+00
     10  -0.311780D-01  0.000000D+00
     11   0.000000D+00 -0.160624D-01
     12   0.000000D+00 -0.368793D-02
     13   0.000000D+00 -0.172906D+00
     14  -0.462284D-01  0.000000D+00
     15  -0.341779D+00  0.000000D+00
     16   0.000000D+00  0.208511D+00
 Unable to Open any file for archive entry.
 1\1\GINC-HEL08\SP\RwB97XD TD-FC\Gen\C2H5N1\RR\21-Mar-2022\0\\#P TD(Nst
 ates=10000) wB97XD/Gen SCF(maxcycles=100) Int(Grid=ultrafine)\\xGDB7_0
 0001_tier4.com\\0,1\C,0,0.738519,-0.394885,0.023737\C,0,-0.738519,-0.3
 94885,0.023737\N,0,0.,0.849548,-0.172046\H,0,1.276872,-0.747254,-0.847
 373\H,0,1.244917,-0.556892,0.968566\H,0,-1.244917,-0.556892,0.968566\H
 ,0,-1.276872,-0.747254,-0.847373\H,0,0.,1.400076,0.677088\\Version=EM6
 4L-G16RevC.01\State=1-A'\HF=-133.7912283\RMSD=7.087e-09\PG=CS [SG(H1N1
 ),X(C2H4)]\\@
 The archive entry for this job was punched.


 IT IS THE GODS' CUSTOM TO BRING LOW ALL THINGS OF SURPASSING GREATNESS.
     -- HERODOTUS
 IT IS THE LOFTY PINE THAT BY THE STORM IS OFTENER TOSSED;
 TOWERS FALL WITH HEAVIER CRASH WHICH HIGHER SOAR.
     -- HORACE
 THE BIGGER THEY COME, THE HARDER THEY FALL.
     -- BOB FITZSIMONS HEAVYWEIGHT CHAMPION, 1897-1899
 Job cpu time:       0 days  0 hours  9 minutes 30.9 seconds.
 Elapsed time:       0 days  0 hours  1 minutes 11.7 seconds.
 File lengths (MBytes):  RWF=    810 Int=      0 D2E=      0 Chk=    192 Scr=      1
 Normal termination of Gaussian 16 at Mon Mar 21 15:52:28 2022.
