 Entering Gaussian System, Link 0=g16
 Input=bigQM7w_TDwB97XD_def2SVPD_at_def2TZVP_000003.com
 Output=bigQM7w_TDwB97XD_def2SVPD_at_def2TZVP_000003.log
 Initial command:
 /home/rr/g16/l1.exe "/scratch/rr/PBS_7962927.helios/Gau-54619.inp" -scrdir="/scratch/rr/PBS_7962927.helios/"
 Entering Link 1 = /home/rr/g16/l1.exe PID=     54621.
  
 Copyright (c) 1988-2019, Gaussian, Inc.  All Rights Reserved.
  
 This is part of the Gaussian(R) 16 program.  It is based on
 the Gaussian(R) 09 system (copyright 2009, Gaussian, Inc.),
 the Gaussian(R) 03 system (copyright 2003, Gaussian, Inc.),
 the Gaussian(R) 98 system (copyright 1998, Gaussian, Inc.),
 the Gaussian(R) 94 system (copyright 1995, Gaussian, Inc.),
 the Gaussian 92(TM) system (copyright 1992, Gaussian, Inc.),
 the Gaussian 90(TM) system (copyright 1990, Gaussian, Inc.),
 the Gaussian 88(TM) system (copyright 1988, Gaussian, Inc.),
 the Gaussian 86(TM) system (copyright 1986, Carnegie Mellon
 University), and the Gaussian 82(TM) system (copyright 1983,
 Carnegie Mellon University). Gaussian is a federally registered
 trademark of Gaussian, Inc.
  
 This software contains proprietary and confidential information,
 including trade secrets, belonging to Gaussian, Inc.
  
 This software is provided under written license and may be
 used, copied, transmitted, or stored only in accord with that
 written license.
  
 The following legend is applicable only to US Government
 contracts under FAR:
  
                    RESTRICTED RIGHTS LEGEND
  
 Use, reproduction and disclosure by the US Government is
 subject to restrictions as set forth in subparagraphs (a)
 and (c) of the Commercial Computer Software - Restricted
 Rights clause in FAR 52.227-19.
  
 Gaussian, Inc.
 340 Quinnipiac St., Bldg. 40, Wallingford CT 06492
  
  
 ---------------------------------------------------------------
 Warning -- This program may not be used in any manner that
 competes with the business of Gaussian, Inc. or will provide
 assistance to any competitor of Gaussian, Inc.  The licensee
 of this program is prohibited from giving any competitor of
 Gaussian, Inc. access to this program.  By using this program,
 the user acknowledges that Gaussian, Inc. is engaged in the
 business of creating and licensing software in the field of
 computational chemistry and represents and warrants to the
 licensee that it is not a competitor of Gaussian, Inc. and that
 it will not use this program in any manner prohibited above.
 ---------------------------------------------------------------
  

 Cite this work as:
 Gaussian 16, Revision C.01,
 M. J. Frisch, G. W. Trucks, H. B. Schlegel, G. E. Scuseria, 
 M. A. Robb, J. R. Cheeseman, G. Scalmani, V. Barone, 
 G. A. Petersson, H. Nakatsuji, X. Li, M. Caricato, A. V. Marenich, 
 J. Bloino, B. G. Janesko, R. Gomperts, B. Mennucci, H. P. Hratchian, 
 J. V. Ortiz, A. F. Izmaylov, J. L. Sonnenberg, D. Williams-Young, 
 F. Ding, F. Lipparini, F. Egidi, J. Goings, B. Peng, A. Petrone, 
 T. Henderson, D. Ranasinghe, V. G. Zakrzewski, J. Gao, N. Rega, 
 G. Zheng, W. Liang, M. Hada, M. Ehara, K. Toyota, R. Fukuda, 
 J. Hasegawa, M. Ishida, T. Nakajima, Y. Honda, O. Kitao, H. Nakai, 
 T. Vreven, K. Throssell, J. A. Montgomery, Jr., J. E. Peralta, 
 F. Ogliaro, M. J. Bearpark, J. J. Heyd, E. N. Brothers, K. N. Kudin, 
 V. N. Staroverov, T. A. Keith, R. Kobayashi, J. Normand, 
 K. Raghavachari, A. P. Rendell, J. C. Burant, S. S. Iyengar, 
 J. Tomasi, M. Cossi, J. M. Millam, M. Klene, C. Adamo, R. Cammi, 
 J. W. Ochterski, R. L. Martin, K. Morokuma, O. Farkas, 
 J. B. Foresman, and D. J. Fox, Gaussian, Inc., Wallingford CT, 2019.
 
 ******************************************
 Gaussian 16:  EM64L-G16RevC.01  3-Jul-2019
                21-Mar-2022 
 ******************************************
 %mem=64gb
 %nproc=8
 Will use up to    8 processors via shared memory.
 ----------------------------------------------------------------------
 #P TD(Nstates=10000) wB97XD/Gen SCF(maxcycles=100) Int(Grid=ultrafine)
 ----------------------------------------------------------------------
 1/38=1,172=1/1;
 2/12=2,17=6,18=5,40=1/2;
 3/5=7,11=9,25=1,30=1,74=-58,75=-5/1,2,3,8;
 4//1;
 5/5=2,7=100,38=5/2;
 8/6=1,10=1,108=10000/1;
 9/41=10000,42=1,70=2/14;
 6/7=2,8=2,9=2,10=2/1;
 99/5=1,9=1/99;
 Leave Link    1 at Mon Mar 21 16:01:26 2022, MaxMem=  8589934592 cpu:               0.4 elap:               0.1
 (Enter /home/rr/g16/l101.exe)
 ---------------------
 xGDB7_00001_tier4.com
 ---------------------
 Symbolic Z-matrix:
 Charge =  0 Multiplicity = 1
 8                     0.        0.        0.11602 
 1                     0.        0.7619   -0.46406 
 1                     0.       -0.7619   -0.46406 
 
 ITRead=  0  0  0
 MicOpt= -1 -1 -1
 NAtoms=      3 NQM=        3 NQMF=       0 NMMI=      0 NMMIF=      0
                NMic=       0 NMicF=      0.
                    Isotopes and Nuclear Properties:
 (Nuclear quadrupole moments (NQMom) in fm**2, nuclear magnetic moments (NMagM)
  in nuclear magnetons)

  Atom         1           2           3
 IAtWgt=          16           1           1
 AtmWgt=  15.9949146   1.0078250   1.0078250
 NucSpn=           0           1           1
 AtZEff=  -0.0000000  -0.0000000  -0.0000000
 NQMom=    0.0000000   0.0000000   0.0000000
 NMagM=    0.0000000   2.7928460   2.7928460
 AtZNuc=   8.0000000   1.0000000   1.0000000
 Leave Link  101 at Mon Mar 21 16:01:26 2022, MaxMem=  8589934592 cpu:               0.8 elap:               0.1
 (Enter /home/rr/g16/l202.exe)
                          Input orientation:                          
 ---------------------------------------------------------------------
 Center     Atomic      Atomic             Coordinates (Angstroms)
 Number     Number       Type             X           Y           Z
 ---------------------------------------------------------------------
      1          8           0        0.000000    0.000000    0.116015
      2          1           0        0.000000    0.761895   -0.464058
      3          1           0        0.000000   -0.761895   -0.464058
 ---------------------------------------------------------------------
                    Distance matrix (angstroms):
                    1          2          3
     1  O    0.000000
     2  H    0.957585   0.000000
     3  H    0.957585   1.523790   0.000000
 Stoichiometry    H2O
 Framework group  C2V[C2(O),SGV(H2)]
 Deg. of freedom     2
 Full point group                 C2V     NOp   4
 Largest Abelian subgroup         C2V     NOp   4
 Largest concise Abelian subgroup C2      NOp   2
                         Standard orientation:                         
 ---------------------------------------------------------------------
 Center     Atomic      Atomic             Coordinates (Angstroms)
 Number     Number       Type             X           Y           Z
 ---------------------------------------------------------------------
      1          8           0        0.000000   -0.000000    0.116015
      2          1           0        0.000000    0.761895   -0.464058
      3          1           0       -0.000000   -0.761895   -0.464058
 ---------------------------------------------------------------------
 Rotational constants (GHZ):         839.0390262         431.9284530         285.1409139
 Leave Link  202 at Mon Mar 21 16:01:26 2022, MaxMem=  8589934592 cpu:               0.1 elap:               0.0
 (Enter /home/rr/g16/l301.exe)
 General basis read from cards:  (5D, 7F)
 Centers:       2      3
 S 3 1.00
     Exponent=  1.3010701000D+01 Coefficients=  1.9682158000D-02
     Exponent=  1.9622572000D+00 Coefficients=  1.3796524000D-01
     Exponent=  4.4453796000D-01 Coefficients=  4.7831935000D-01
 S 1 1.00
     Exponent=  1.2194962000D-01 Coefficients=  1.0000000000D+00
 P 1 1.00
     Exponent=  8.0000000000D-01 Coefficients=  1.0000000000D+00
 P 1 1.00
     Exponent=  1.1704099050D-01 Coefficients=  1.0000000000D+00
 ****
 Centers:       1
 S 5 1.00
     Exponent=  2.2661767785D+03 Coefficients= -5.3431809926D-03
     Exponent=  3.4087010191D+02 Coefficients= -3.9890039230D-02
     Exponent=  7.7363135167D+01 Coefficients= -1.7853911985D-01
     Exponent=  2.1479644940D+01 Coefficients= -4.6427684959D-01
     Exponent=  6.6589433124D+00 Coefficients= -4.4309745172D-01
 S 1 1.00
     Exponent=  8.0975975668D-01 Coefficients=  1.0000000000D+00
 S 1 1.00
     Exponent=  2.5530772234D-01 Coefficients=  1.0000000000D+00
 S 1 1.00
     Exponent=  7.6572453250D-02 Coefficients=  1.0000000000D+00
 P 3 1.00
     Exponent=  1.7721504317D+01 Coefficients=  4.3394573193D-02
     Exponent=  3.8635505440D+00 Coefficients=  2.3094120765D-01
     Exponent=  1.0480920883D+00 Coefficients=  5.1375311064D-01
 P 1 1.00
     Exponent=  2.7641544411D-01 Coefficients=  1.0000000000D+00
 P 1 1.00
     Exponent=  6.9002276350D-02 Coefficients=  1.0000000000D+00
 D 1 1.00
     Exponent=  1.2000000000D+00 Coefficients=  1.0000000000D+00
 D 1 1.00
     Exponent=  1.7992024323D-01 Coefficients=  1.0000000000D+00
 ****
 Ernie: Thresh=  0.10000D-02 Tol=  0.10000D-05 Strict=F.
 There are    19 symmetry adapted cartesian basis functions of A1  symmetry.
 There are     4 symmetry adapted cartesian basis functions of A2  symmetry.
 There are     7 symmetry adapted cartesian basis functions of B1  symmetry.
 There are    11 symmetry adapted cartesian basis functions of B2  symmetry.
 There are    17 symmetry adapted basis functions of A1  symmetry.
 There are     4 symmetry adapted basis functions of A2  symmetry.
 There are     7 symmetry adapted basis functions of B1  symmetry.
 There are    11 symmetry adapted basis functions of B2  symmetry.
    39 basis functions,    55 primitive gaussians,    41 cartesian basis functions
     5 alpha electrons        5 beta electrons
       nuclear repulsion energy         9.1891417035 Hartrees.
 IExCor= 4639 DFT=T Ex+Corr=wB97XD ExCW=0 ScaHFX=  1.000000
 ScaDFX=  1.000000  1.000000  1.000000  1.000000 ScalE2=  1.000000  1.000000
 IRadAn=      5 IRanWt=     -1 IRanGd=            0 ICorTp=0 IEmpDi=121
 HFx  wShort=  0.000000 wLong=  0.200000 cFull=  0.222036 cShort=  0.000000 cLong=  0.777964
 DFx  wShort=  0.000000 wLong=  0.200000 cFull=  0.000000 cShort=  0.000000 cLong=  1.000000
 NAtoms=    3 NActive=    3 NUniq=    2 SFac= 2.25D+00 NAtFMM=   60 NAOKFM=F Big=F
 Integral buffers will be    131072 words long.
 Raffenetti 1 integral format.
 Two-electron integral symmetry is turned on.
 R6Disp:  Grimme-D2 Dispersion energy=       -0.0000277894 Hartrees.
 Nuclear repulsion after empirical dispersion term =        9.1891139141 Hartrees.
 Leave Link  301 at Mon Mar 21 16:01:26 2022, MaxMem=  8589934592 cpu:               0.6 elap:               0.1
 (Enter /home/rr/g16/l302.exe)
 NPDir=0 NMtPBC=     1 NCelOv=     1 NCel=       1 NClECP=     1 NCelD=      1
         NCelK=      1 NCelE2=     1 NClLst=     1 CellRange=     0.0.
 One-electron integrals computed using PRISM.
 One-electron integral symmetry used in STVInt
 NBasis=    39 RedAO= T EigKep=  5.25D-03  NBF=    17     4     7    11
 NBsUse=    39 1.00D-06 EigRej= -1.00D+00 NBFU=    17     4     7    11
 Precomputing XC quadrature grid using
 IXCGrd= 4 IRadAn=           5 IRanWt=          -1 IRanGd=           0 AccXCQ= 0.00D+00.
 Generated NRdTot=       0 NPtTot=           0 NUsed=           0 NTot=          32
 NSgBfM=    41    41    41    41    41 MxSgAt=     3 MxSgA2=     3.
 Leave Link  302 at Mon Mar 21 16:01:26 2022, MaxMem=  8589934592 cpu:               1.0 elap:               0.1
 (Enter /home/rr/g16/l303.exe)
 DipDrv:  MaxL=1.
 Leave Link  303 at Mon Mar 21 16:01:27 2022, MaxMem=  8589934592 cpu:               0.4 elap:               0.1
 (Enter /home/rr/g16/l308.exe)
 Leave Link  308 at Mon Mar 21 16:01:27 2022, MaxMem=  8589934592 cpu:               0.2 elap:               0.1
 (Enter /home/rr/g16/l401.exe)
 ExpMin= 6.90D-02 ExpMax= 2.27D+03 ExpMxC= 3.41D+02 IAcc=3 IRadAn=         5 AccDes= 0.00D+00
 Harris functional with IExCor= 4639 and IRadAn=       5 diagonalized for initial guess.
 HarFok:  IExCor= 4639 AccDes= 0.00D+00 IRadAn=         5 IDoV= 1 UseB2=F ITyADJ=14
 ICtDFT=  3500011 ScaDFX=  1.000000  1.000000  1.000000  1.000000
 FoFCou: FMM=F IPFlag=           0 FMFlag=      100000 FMFlg1=           0
         NFxFlg=           0 DoJE=T BraDBF=F KetDBF=T FulRan=T
         wScrn=  0.000000 ICntrl=       500 IOpCl=  0 I1Cent=   200000004 NGrid=           0
         NMat0=    1 NMatS0=      1 NMatT0=    0 NMatD0=    1 NMtDS0=    0 NMtDT0=    0
 Petite list used in FoFCou.
 Harris En= -73.5491277974727    
 JPrj=0 DoOrth=F DoCkMO=F.
 Initial guess orbital symmetries:
       Occupied  (A1) (A1) (B2) (A1) (B1)
       Virtual   (A1) (B2) (A1) (B1) (B2) (A1) (A2) (A1) (B1) (A1)
                 (B2) (B2) (B2) (A1) (B1) (A1) (A2) (A1) (B2) (B1)
                 (A1) (B2) (A1) (A2) (B1) (A1) (B2) (B2) (A1) (B1)
                 (A2) (A1) (A1) (B2)
 The electronic state of the initial guess is 1-A1.
 Leave Link  401 at Mon Mar 21 16:01:27 2022, MaxMem=  8589934592 cpu:               1.2 elap:               0.2
 (Enter /home/rr/g16/l502.exe)
 Keep R1 ints in memory in symmetry-blocked form, NReq=7559224.
 FoFCou: FMM=F IPFlag=           0 FMFlag=           0 FMFlg1=           0
         NFxFlg=           0 DoJE=F BraDBF=F KetDBF=F FulRan=T
         wScrn=  0.000000 ICntrl=       600 IOpCl=  0 I1Cent=           0 NGrid=           0
         NMat0=    1 NMatS0=    780 NMatT0=    0 NMatD0=    1 NMtDS0=    0 NMtDT0=    0
 Petite list used in FoFCou.
 Closed shell SCF:
 Using DIIS extrapolation, IDIIS=  1040.
 NGot=  8589934592 LenX=  8589846988 LenY=  8589844866
 Requested convergence on RMS density matrix=1.00D-08 within 100 cycles.
 Requested convergence on MAX density matrix=1.00D-06.
 Requested convergence on             energy=1.00D-06.
 No special actions if energy rises.
 Integral accuracy reduced to 1.0D-05 until final iterations.

 Cycle   1  Pass 0  IDiag  1:
 E= -76.3461383018698    
 DIIS: error= 2.41D-02 at cycle   1 NSaved=   1.
 NSaved= 1 IEnMin= 1 EnMin= -76.3461383018698     IErMin= 1 ErrMin= 2.41D-02
 ErrMax= 2.41D-02  0.00D+00 EMaxC= 1.00D-01 BMatC= 2.63D-02 BMatP= 2.63D-02
 IDIUse=3 WtCom= 7.59D-01 WtEn= 2.41D-01
 Coeff-Com:  0.100D+01
 Coeff-En:   0.100D+01
 Coeff:      0.100D+01
 Gap=     0.512 Goal=   None    Shift=    0.000
 GapD=    0.512 DampG=2.000 DampE=0.500 DampFc=1.0000 IDamp=-1.
 RMSDP=3.31D-03 MaxDP=5.14D-02              OVMax= 4.21D-02

 Cycle   2  Pass 0  IDiag  1:
 E= -76.3524505921597     Delta-E=       -0.006312290290 Rises=F Damp=F
 DIIS: error= 9.24D-03 at cycle   2 NSaved=   2.
 NSaved= 2 IEnMin= 2 EnMin= -76.3524505921597     IErMin= 2 ErrMin= 9.24D-03
 ErrMax= 9.24D-03  0.00D+00 EMaxC= 1.00D-01 BMatC= 4.48D-03 BMatP= 2.63D-02
 IDIUse=3 WtCom= 9.08D-01 WtEn= 9.24D-02
 Coeff-Com:  0.233D+00 0.767D+00
 Coeff-En:   0.000D+00 0.100D+01
 Coeff:      0.212D+00 0.788D+00
 Gap=     0.469 Goal=   None    Shift=    0.000
 RMSDP=1.48D-03 MaxDP=2.31D-02 DE=-6.31D-03 OVMax= 2.29D-02

 Cycle   3  Pass 0  IDiag  1:
 E= -76.3541827155658     Delta-E=       -0.001732123406 Rises=F Damp=F
 DIIS: error= 7.52D-03 at cycle   3 NSaved=   3.
 NSaved= 3 IEnMin= 3 EnMin= -76.3541827155658     IErMin= 3 ErrMin= 7.52D-03
 ErrMax= 7.52D-03  0.00D+00 EMaxC= 1.00D-01 BMatC= 1.92D-03 BMatP= 4.48D-03
 IDIUse=3 WtCom= 9.25D-01 WtEn= 7.52D-02
 Coeff-Com:  0.647D-02 0.396D+00 0.598D+00
 Coeff-En:   0.000D+00 0.300D+00 0.700D+00
 Coeff:      0.598D-02 0.389D+00 0.605D+00
 Gap=     0.488 Goal=   None    Shift=    0.000
 RMSDP=6.32D-04 MaxDP=1.01D-02 DE=-1.73D-03 OVMax= 1.12D-02

 Cycle   4  Pass 0  IDiag  1:
 E= -76.3555296998708     Delta-E=       -0.001346984305 Rises=F Damp=F
 DIIS: error= 4.70D-04 at cycle   4 NSaved=   4.
 NSaved= 4 IEnMin= 4 EnMin= -76.3555296998708     IErMin= 4 ErrMin= 4.70D-04
 ErrMax= 4.70D-04  0.00D+00 EMaxC= 1.00D-01 BMatC= 8.73D-06 BMatP= 1.92D-03
 IDIUse=3 WtCom= 9.95D-01 WtEn= 4.70D-03
 Coeff-Com: -0.224D-02 0.449D-01 0.115D+00 0.842D+00
 Coeff-En:   0.000D+00 0.000D+00 0.000D+00 0.100D+01
 Coeff:     -0.223D-02 0.447D-01 0.114D+00 0.843D+00
 Gap=     0.487 Goal=   None    Shift=    0.000
 RMSDP=5.91D-05 MaxDP=6.27D-04 DE=-1.35D-03 OVMax= 9.44D-04

 Cycle   5  Pass 0  IDiag  1:
 E= -76.3555373106880     Delta-E=       -0.000007610817 Rises=F Damp=F
 DIIS: error= 6.97D-05 at cycle   5 NSaved=   5.
 NSaved= 5 IEnMin= 5 EnMin= -76.3555373106880     IErMin= 5 ErrMin= 6.97D-05
 ErrMax= 6.97D-05  0.00D+00 EMaxC= 1.00D-01 BMatC= 1.54D-07 BMatP= 8.73D-06
 IDIUse=1 WtCom= 1.00D+00 WtEn= 0.00D+00
 Coeff-Com:  0.786D-04-0.227D-01-0.379D-01-0.149D+00 0.121D+01
 Coeff:      0.786D-04-0.227D-01-0.379D-01-0.149D+00 0.121D+01
 Gap=     0.487 Goal=   None    Shift=    0.000
 RMSDP=2.76D-05 MaxDP=3.23D-04 DE=-7.61D-06 OVMax= 4.47D-04

 Cycle   6  Pass 0  IDiag  1:
 E= -76.3555377999177     Delta-E=       -0.000000489230 Rises=F Damp=F
 DIIS: error= 1.38D-05 at cycle   6 NSaved=   6.
 NSaved= 6 IEnMin= 6 EnMin= -76.3555377999177     IErMin= 6 ErrMin= 1.38D-05
 ErrMax= 1.38D-05  0.00D+00 EMaxC= 1.00D-01 BMatC= 2.38D-09 BMatP= 1.54D-07
 IDIUse=1 WtCom= 1.00D+00 WtEn= 0.00D+00
 Coeff-Com:  0.198D-04 0.556D-02 0.840D-02 0.270D-01-0.331D+00 0.129D+01
 Coeff:      0.198D-04 0.556D-02 0.840D-02 0.270D-01-0.331D+00 0.129D+01
 Gap=     0.487 Goal=   None    Shift=    0.000
 RMSDP=3.40D-06 MaxDP=3.31D-05 DE=-4.89D-07 OVMax= 7.90D-05

 Initial convergence to 1.0D-05 achieved.  Increase integral accuracy.
 Cycle   7  Pass 1  IDiag  1:
 E= -76.3555365481648     Delta-E=        0.000001251753 Rises=F Damp=F
 DIIS: error= 2.08D-05 at cycle   1 NSaved=   1.
 NSaved= 1 IEnMin= 1 EnMin= -76.3555365481648     IErMin= 1 ErrMin= 2.08D-05
 ErrMax= 2.08D-05  0.00D+00 EMaxC= 1.00D-01 BMatC= 1.17D-08 BMatP= 1.17D-08
 IDIUse=1 WtCom= 1.00D+00 WtEn= 0.00D+00
 Coeff-Com:  0.100D+01
 Coeff:      0.100D+01
 Gap=     0.487 Goal=   None    Shift=    0.000
 RMSDP=3.40D-06 MaxDP=3.31D-05 DE= 1.25D-06 OVMax= 3.29D-05

 Cycle   8  Pass 1  IDiag  1:
 E= -76.3555365577580     Delta-E=       -0.000000009593 Rises=F Damp=F
 DIIS: error= 3.84D-06 at cycle   2 NSaved=   2.
 NSaved= 2 IEnMin= 2 EnMin= -76.3555365577580     IErMin= 2 ErrMin= 3.84D-06
 ErrMax= 3.84D-06  0.00D+00 EMaxC= 1.00D-01 BMatC= 4.75D-10 BMatP= 1.17D-08
 IDIUse=1 WtCom= 1.00D+00 WtEn= 0.00D+00
 Coeff-Com: -0.256D-01 0.103D+01
 Coeff:     -0.256D-01 0.103D+01
 Gap=     0.487 Goal=   None    Shift=    0.000
 RMSDP=6.40D-07 MaxDP=9.56D-06 DE=-9.59D-09 OVMax= 1.14D-05

 Cycle   9  Pass 1  IDiag  1:
 E= -76.3555365578173     Delta-E=       -0.000000000059 Rises=F Damp=F
 DIIS: error= 3.16D-06 at cycle   3 NSaved=   3.
 NSaved= 3 IEnMin= 3 EnMin= -76.3555365578173     IErMin= 3 ErrMin= 3.16D-06
 ErrMax= 3.16D-06  0.00D+00 EMaxC= 1.00D-01 BMatC= 4.80D-10 BMatP= 4.75D-10
 IDIUse=1 WtCom= 1.00D+00 WtEn= 0.00D+00
 Coeff-Com: -0.504D-01 0.537D+00 0.513D+00
 Coeff:     -0.504D-01 0.537D+00 0.513D+00
 Gap=     0.487 Goal=   None    Shift=    0.000
 RMSDP=3.09D-07 MaxDP=4.70D-06 DE=-5.93D-11 OVMax= 5.12D-06

 Cycle  10  Pass 1  IDiag  1:
 E= -76.3555365581502     Delta-E=       -0.000000000333 Rises=F Damp=F
 DIIS: error= 2.64D-07 at cycle   4 NSaved=   4.
 NSaved= 4 IEnMin= 4 EnMin= -76.3555365581502     IErMin= 4 ErrMin= 2.64D-07
 ErrMax= 2.64D-07  0.00D+00 EMaxC= 1.00D-01 BMatC= 1.45D-12 BMatP= 4.75D-10
 IDIUse=1 WtCom= 1.00D+00 WtEn= 0.00D+00
 Coeff-Com: -0.511D-02 0.270D-01 0.484D-01 0.930D+00
 Coeff:     -0.511D-02 0.270D-01 0.484D-01 0.930D+00
 Gap=     0.487 Goal=   None    Shift=    0.000
 RMSDP=2.91D-08 MaxDP=3.54D-07 DE=-3.33D-10 OVMax= 6.25D-07

 Cycle  11  Pass 1  IDiag  1:
 E= -76.3555365581522     Delta-E=       -0.000000000002 Rises=F Damp=F
 DIIS: error= 4.81D-08 at cycle   5 NSaved=   5.
 NSaved= 5 IEnMin= 5 EnMin= -76.3555365581522     IErMin= 5 ErrMin= 4.81D-08
 ErrMax= 4.81D-08  0.00D+00 EMaxC= 1.00D-01 BMatC= 6.24D-14 BMatP= 1.45D-12
 IDIUse=1 WtCom= 1.00D+00 WtEn= 0.00D+00
 Coeff-Com:  0.168D-02-0.210D-01-0.216D-01 0.253D-01 0.102D+01
 Coeff:      0.168D-02-0.210D-01-0.216D-01 0.253D-01 0.102D+01
 Gap=     0.487 Goal=   None    Shift=    0.000
 RMSDP=9.36D-09 MaxDP=1.07D-07 DE=-1.96D-12 OVMax= 2.21D-07

 SCF Done:  E(RwB97XD) =  -76.3555365582     A.U. after   11 cycles
            NFock= 11  Conv=0.94D-08     -V/T= 2.0079
 KE= 7.575394373930D+01 PE=-1.986477899392D+02 EE= 3.734919572766D+01
 Leave Link  502 at Mon Mar 21 16:01:27 2022, MaxMem=  8589934592 cpu:               2.8 elap:               0.4
 (Enter /home/rr/g16/l801.exe)
 DoSCS=F DFT=T ScalE2(SS,OS)=  1.000000  1.000000
 ExpMin= 6.90D-02 ExpMax= 2.27D+03 ExpMxC= 3.41D+02 IAcc=3 IRadAn=         5 AccDes= 0.00D+00
 HarFok:  IExCor=  205 AccDes= 0.00D+00 IRadAn=         5 IDoV=-2 UseB2=F ITyADJ=14
 ICtDFT= 12500011 ScaDFX=  1.000000  1.000000  1.000000  1.000000
 Largest valence mixing into a core orbital is  4.00D-05
 Largest core mixing into a valence orbital is  7.51D-06
 Range of M.O.s used for correlation:     2    39
 NBasis=    39 NAE=     5 NBE=     5 NFC=     1 NFV=     0
 NROrb=     38 NOA=     4 NOB=     4 NVA=    34 NVB=    34
 Leave Link  801 at Mon Mar 21 16:01:27 2022, MaxMem=  8589934592 cpu:               0.4 elap:               0.1
 (Enter /home/rr/g16/l914.exe)
 RHF ground state
 Keep R1, R2, and R3 ints in memory in symmetry-blocked form, NReq=35785796.
 FoFCou: FMM=F IPFlag=           0 FMFlag=           0 FMFlg1=           0
         NFxFlg=           0 DoJE=F BraDBF=F KetDBF=F FulRan=T
         wScrn=  0.000000 ICntrl=       600 IOpCl=  0 I1Cent=           0 NGrid=           0
         NMat0=    1 NMatS0=    780 NMatT0=    0 NMatD0=    1 NMtDS0=    0 NMtDT0=    0
 Petite list used in FoFCou.
 MDV=  8589934592 DFT=T DoStab=F Mixed=T DoRPA=T DoScal=F NonHer=T
 Making orbital integer symmetry assigments:
 Orbital symmetries:
       Occupied  (A1) (A1) (B2) (A1) (B1)
       Virtual   (A1) (B2) (B1) (A1) (B2) (A1) (A2) (A1) (B1) (A1)
                 (B2) (B2) (B2) (A1) (B1) (A1) (A2) (A1) (B2) (B1)
                 (A1) (B2) (A1) (A2) (B1) (B2) (A1) (B2) (A1) (B1)
                 (A2) (A1) (A1) (B2)
   136 initial guesses have been made.
 Convergence on wavefunction:    0.001000000000000
 Davidson Disk Diagonalization:  ConvIn= 1.00D-03 SkipCon=T Conv= 1.00D-03.
 Max sub-space:   816 roots to seek:   272 dimension of matrix:          272
 *** WARNING: Number of orthogonal guesses is          136
 Iteration     1 Dimension   136 NMult     0 NNew    136
 CISAX will form   136 AO SS matrices at one time.
 NMat=   136 NSing=   136 JSym2X=-1.
 New state      4 was old state      5
 New state      5 was old state      4
 New state      8 was old state     10
 New state      9 was old state      8
 New state     10 was old state      9
 New state     13 was old state     14
 New state     14 was old state     13
 New state     19 was old state     20
 New state     20 was old state     22
 New state     22 was old state     19
 New state     23 was old state     24
 New state     24 was old state     23
 New state     25 was old state     26
 New state     26 was old state     25
 New state     31 was old state     32
 New state     32 was old state     31
 New state     36 was old state     37
 New state     37 was old state     36
 New state     38 was old state     39
 New state     39 was old state     41
 New state     41 was old state     38
 New state     42 was old state     43
 New state     43 was old state     44
 New state     44 was old state     42
 New state     45 was old state     46
 New state     46 was old state     45
 New state     48 was old state     49
 New state     49 was old state     48
 New state     50 was old state     51
 New state     51 was old state     50
 New state     57 was old state     58
 New state     58 was old state     57
 New state     66 was old state     67
 New state     67 was old state     66
 New state     69 was old state     71
 New state     70 was old state     69
 New state     71 was old state     75
 New state     72 was old state     70
 New state     73 was old state     72
 New state     74 was old state     73
 New state     75 was old state     74
 New state     76 was old state     78
 New state     78 was old state     79
 New state     79 was old state     80
 New state     80 was old state     76
 New state     83 was old state     84
 New state     84 was old state     83
 New state     87 was old state     88
 New state     88 was old state     87
 New state     92 was old state     93
 New state     93 was old state     94
 New state     94 was old state     92
 New state     99 was old state    100
 New state    100 was old state     99
 New state    101 was old state    102
 New state    102 was old state    101
 New state    103 was old state    104
 New state    104 was old state    103
 New state    106 was old state    107
 New state    107 was old state    106
 New state    110 was old state    111
 New state    111 was old state    110
 New state    117 was old state    119
 New state    119 was old state    117
 New state    123 was old state    124
 New state    124 was old state    123
 New state    127 was old state    128
 New state    128 was old state    127
 Excitation Energies [eV] at current iteration:
 Root      1 :     7.846473803414520
 Root      2 :     9.644183050528618
 Root      3 :     9.943526086368061
 Root      4 :    11.080457734990040
 Root      5 :    11.425058398523010
 Root      6 :    11.769017052335860
 Root      7 :    12.120998430499220
 Root      8 :    12.924571996757360
 Root      9 :    13.074967007072290
 Root     10 :    13.355449357059430
 Root     11 :    13.866843414192130
 Root     12 :    14.111985613325200
 Root     13 :    14.391446931474760
 Root     14 :    14.586879481513290
 Root     15 :    14.962525799255880
 Root     16 :    15.270192144362250
 Root     17 :    16.061101879223400
 Root     18 :    16.242794846838770
 Root     19 :    17.062754584318580
 Root     20 :    17.074949210902760
 Root     21 :    17.217450575965290
 Root     22 :    17.336818227308860
 Root     23 :    17.379610631049090
 Root     24 :    17.423005621925310
 Root     25 :    18.377401479791810
 Root     26 :    18.948624190580450
 Root     27 :    19.149460717076530
 Root     28 :    19.149914249494180
 Root     29 :    19.508849635573650
 Root     30 :    20.180024970661340
 Root     31 :    20.355832012568850
 Root     32 :    20.597361103615350
 Root     33 :    21.168989717369630
 Root     34 :    21.487805661469850
 Root     35 :    22.193948813615770
 Root     36 :    22.924128831383390
 Root     37 :    23.137651499043600
 Root     38 :    23.493849095775330
 Root     39 :    23.561749868076280
 Root     40 :    23.662226163679060
 Root     41 :    23.938862110274600
 Root     42 :    24.374383456447410
 Root     43 :    24.927248072953490
 Root     44 :    24.997147168541270
 Root     45 :    25.709881108219340
 Root     46 :    25.803767794048620
 Root     47 :    27.475101236311530
 Root     48 :    28.068379267078080
 Root     49 :    28.329819008097750
 Root     50 :    28.848652731916560
 Root     51 :    28.893409528985500
 Root     52 :    29.963689760454480
 Root     53 :    30.309484377853160
 Root     54 :    30.451757277141220
 Root     55 :    30.536869934425850
 Root     56 :    31.343099108487350
 Root     57 :    31.826552301388090
 Root     58 :    32.114825519414060
 Root     59 :    33.186004298513330
 Root     60 :    33.507964821026760
 Root     61 :    34.293567666824860
 Root     62 :    34.303417230282740
 Root     63 :    34.671048964684990
 Root     64 :    36.488550012752060
 Root     65 :    36.544398987172850
 Root     66 :    36.987964239798400
 Root     67 :    37.485501705219970
 Root     68 :    38.386512000553730
 Root     69 :    39.248224064993120
 Root     70 :    39.775287271221290
 Root     71 :    40.782482162421210
 Root     72 :    40.892412919389000
 Root     73 :    40.984338019273040
 Root     74 :    41.155217119040420
 Root     75 :    42.080942960757570
 Root     76 :    42.976578623094780
 Root     77 :    43.030387524478360
 Root     78 :    44.745207398613730
 Root     79 :    45.498885478626470
 Root     80 :    47.489951261269240
 Root     81 :    47.719472451518140
 Root     82 :    49.866671514924730
 Root     83 :    50.735233716146820
 Root     84 :    51.677735376917850
 Root     85 :    52.162415861043800
 Root     86 :    52.657522225042170
 Root     87 :    53.760671198773430
 Root     88 :    54.127052472891200
 Root     89 :    55.733211039601170
 Root     90 :    56.385274847734440
 Root     91 :    57.049884567072060
 Root     92 :    57.854134646939940
 Root     93 :    57.985947858004250
 Root     94 :    58.323431387898890
 Root     95 :    58.762864342087660
 Root     96 :    59.111803073535760
 Root     97 :    59.431508461142420
 Root     98 :    61.280663898207640
 Root     99 :    61.829117287258310
 Root    100 :    61.866478718156170
 Root    101 :    65.333772836930630
 Root    102 :    65.352902028655040
 Root    103 :    67.207314081394930
 Root    104 :    67.214668338517300
 Root    105 :    69.963781143204030
 Root    106 :    70.841995842810990
 Root    107 :    71.291196803736740
 Root    108 :    71.969327866611610
 Root    109 :    72.688683703146880
 Root    110 :    74.851041851204660
 Root    111 :    74.956588967976590
 Root    112 :    76.929479443908320
 Root    113 :    77.940108795853530
 Root    114 :    78.506471914631750
 Root    115 :    86.794673785575750
 Root    116 :    88.609734409073160
 Root    117 :    90.174565945177160
 Root    118 :    90.473513986695690
 Root    119 :    90.602730820784710
 Root    120 :    90.613693906389130
 Root    121 :    92.620709764950180
 Root    122 :    92.833290455171100
 Root    123 :    96.577264584638600
 Root    124 :    97.351643973097400
 Root    125 :    99.326319062208470
 Root    126 :   106.223703673265700
 Root    127 :   106.621194887452600
 Root    128 :   107.068850167065300
 Root    129 :   108.406213455917300
 Root    130 :   111.112411656592500
 Root    131 :   112.321303661622200
 Root    132 :   115.143434270820400
 Root    133 :   118.574123207947800
 Root    134 :   122.430138780470400
 Root    135 :   123.874516728988200
 Root    136 :   134.755622403622700
 Convergence achieved for final wavefunctions.
 ***********************************************************************
 Excited states from <AA,BB:AA,BB> singles matrix:
 ***********************************************************************
 
 1PDM for each excited state written to RWF  633
 Ground to excited state transition densities written to RWF  633
 Ground to excited state transition electric dipole moments (Au):
       state          X           Y           Z        Dip. S.      Osc.
         1        -0.5502      0.0000     -0.0000      0.3028      0.0582
         2         0.0000      0.0000      0.0000      0.0000      0.0000
         3         0.0000      0.0000     -0.6538      0.4274      0.1041
         4        -0.1507      0.0000      0.0000      0.0227      0.0062
         5        -0.0000      0.0000      0.0811      0.0066      0.0018
         6        -0.0000     -0.2207     -0.0000      0.0487      0.0140
         7         0.0000     -0.0000     -0.0000      0.0000      0.0000
         8        -0.3749     -0.0000      0.0000      0.1405      0.0445
         9         0.2014      0.0000     -0.0000      0.0405      0.0130
        10         0.0000     -0.0000     -0.3375      0.1139      0.0373
        11         0.0000     -0.5335      0.0000      0.2846      0.0967
        12         0.0000     -0.1493     -0.0000      0.0223      0.0077
        13        -0.3904      0.0000     -0.0000      0.1524      0.0537
        14        -0.0000     -0.9714      0.0000      0.9436      0.3372
        15         0.0000     -0.0000     -0.4378      0.1917      0.0703
        16         0.0000      0.0000     -0.1779      0.0317      0.0118
        17        -0.0000      0.0000      0.0472      0.0022      0.0009
        18        -0.0000      0.0000      0.0000      0.0000      0.0000
        19         0.0000      0.0000     -0.0000      0.0000      0.0000
        20         0.3689      0.0000     -0.0000      0.1361      0.0569
        21         0.0000     -0.3109     -0.0000      0.0967      0.0408
        22        -0.0000      0.0000      0.3462      0.1199      0.0509
        23        -0.0000     -0.0000      0.0000      0.0000      0.0000
        24        -0.6663      0.0000     -0.0000      0.4440      0.1895
        25         0.0000      0.0000      0.0000      0.0000      0.0000
        26        -0.0000     -0.0000     -0.7755      0.6015      0.2792
        27         0.0000      0.6814      0.0000      0.4643      0.2178
        28         0.0000     -0.0000      0.3745      0.1403      0.0658
        29        -0.0000     -0.1062     -0.0000      0.0113      0.0054
        30        -0.4454      0.0000     -0.0000      0.1984      0.0981
        31         0.0000      0.0459     -0.0000      0.0021      0.0011
        32        -0.0000      0.2199      0.0000      0.0484      0.0244
        33         0.0000      0.0000      0.0000      0.0000      0.0000
        34         0.0000      0.0000      0.0000      0.0000      0.0000
        35         0.6015      0.0000     -0.0000      0.3618      0.1967
        36        -0.0000     -0.0000      0.3615      0.1307      0.0734
        37        -0.0000      0.2363      0.0000      0.0559      0.0317
        38         0.0000     -0.1449     -0.0000      0.0210      0.0121
        39        -0.0139     -0.0000      0.0000      0.0002      0.0001
        40        -0.0000      0.0000     -0.2031      0.0412      0.0239
        41         0.0000      0.0000      0.1848      0.0342      0.0200
        42        -0.0000     -0.7515      0.0000      0.5648      0.3373
        43         0.6602     -0.0000     -0.0000      0.4359      0.2662
        44         0.0000      0.0000      0.2512      0.0631      0.0386
        45        -0.0000     -0.0000      0.0000      0.0000      0.0000
        46         0.0000      0.0000     -0.6981      0.4874      0.3081
        47         0.0000      0.0000      0.2198      0.0483      0.0325
        48        -0.0000     -0.4270      0.0000      0.1823      0.1254
        49         0.0000     -0.0000     -0.6242      0.3896      0.2704
        50         0.0000     -0.0000      0.0000      0.0000      0.0000
        51        -0.0000      0.1522     -0.0000      0.0232      0.0164
        52        -0.4258      0.0000      0.0000      0.1813      0.1331
        53         0.0000     -0.0000      0.0827      0.0068      0.0051
        54         0.0000      0.6054     -0.0000      0.3665      0.2735
        55        -0.3974      0.0000     -0.0000      0.1580      0.1182
        56        -0.0000      0.1038     -0.0000      0.0108      0.0083
        57         0.0291     -0.0000     -0.0000      0.0008      0.0007
        58         0.0000      0.0000      0.0431      0.0019      0.0015
        59         0.0000     -0.0000      0.0000      0.0000      0.0000
        60        -0.0000     -0.0000     -0.0644      0.0041      0.0034
        61         0.1069     -0.0000     -0.0000      0.0114      0.0096
        62        -0.0000     -0.0000     -0.1982      0.0393      0.0330
        63         0.0000     -0.0000     -0.0000      0.0000      0.0000
        64        -0.0000      0.0000     -0.0846      0.0072      0.0064
        65         0.0000      0.0872     -0.0000      0.0076      0.0068
        66         0.0000      0.0326     -0.0000      0.0011      0.0010
        67        -0.0000     -0.0311      0.0000      0.0010      0.0009
        68        -0.0000     -0.2727     -0.0000      0.0744      0.0699
        69        -0.0987      0.0000      0.0000      0.0097      0.0094
        70         0.0000     -0.0000      0.1032      0.0106      0.0104
        71        -0.0414      0.0000     -0.0000      0.0017      0.0017
        72        -0.0000     -0.0025      0.0000      0.0000      0.0000
        73        -0.0000     -0.0000     -0.0321      0.0010      0.0010
        74         0.0000      0.0000     -0.1650      0.0272      0.0275
        75        -0.0132      0.0000      0.0000      0.0002      0.0002
        76         0.0000      0.0000     -0.0000      0.0000      0.0000
        77         0.0000     -0.0000      0.0803      0.0065      0.0068
        78         0.0000      0.0000      0.0000      0.0000      0.0000
        79         0.0000     -0.2440      0.0000      0.0595      0.0664
        80         0.0000     -0.0000      0.1145      0.0131      0.0153
        81         0.0000     -0.0000     -0.0000      0.0000      0.0000
        82        -0.0000      0.1833     -0.0000      0.0336      0.0411
        83        -0.3032     -0.0000      0.0000      0.0919      0.1142
        84         0.0000      0.0000      0.2758      0.0761      0.0963
        85         0.0000     -0.3265      0.0000      0.1066      0.1362
        86         0.0000     -0.0000     -0.1306      0.0170      0.0220
        87         0.0000     -0.0000      0.0000      0.0000      0.0000
        88        -0.0000      0.1841      0.0000      0.0339      0.0449
        89         0.0000     -0.0000     -0.0797      0.0063      0.0087
        90        -0.0000      0.0000     -0.2063      0.0426      0.0588
        91         0.0000      0.0936     -0.0000      0.0088      0.0122
        92        -0.0644      0.0000     -0.0000      0.0041      0.0059
        93        -0.4191     -0.0000     -0.0000      0.1757      0.2495
        94        -0.2814      0.0000     -0.0000      0.0792      0.1131
        95         0.0000     -0.0000     -0.2601      0.0677      0.0974
        96        -0.0000      0.0000      0.0000      0.0000      0.0000
        97         0.3199      0.0000      0.0000      0.1023      0.1490
        98        -0.0000      0.1088     -0.0000      0.0118      0.0178
        99        -0.0000      0.0000     -0.0000      0.0000      0.0000
       100         0.0000     -0.0000     -0.3825      0.1463      0.2217
       101        -0.0000      0.2586      0.0000      0.0669      0.1071
       102         0.0000      0.0000     -0.0083      0.0001      0.0001
       103        -0.0000     -0.0000     -0.0000      0.0000      0.0000
       104        -0.0000      0.1577     -0.0000      0.0249      0.0409
       105        -0.0000      0.0815     -0.0000      0.0066      0.0114
       106         0.0000      0.0000      0.0000      0.0000      0.0000
       107         0.0000     -0.0000      0.0389      0.0015      0.0026
       108        -0.2892     -0.0000      0.0000      0.0837      0.1475
       109         0.0000     -0.0000      0.0684      0.0047      0.0083
       110         0.1189     -0.0000      0.0000      0.0141      0.0259
       111        -0.0000      0.0000      0.1277      0.0163      0.0299
       112         0.0000      0.0853      0.0000      0.0073      0.0137
       113         0.0000     -0.0034     -0.0000      0.0000      0.0000
       114         0.0000      0.0000      0.0394      0.0016      0.0030
       115         0.0000     -0.0911     -0.0000      0.0083      0.0177
       116         0.0000     -0.0000     -0.2723      0.0741      0.1609
       117        -0.1993     -0.0000      0.0000      0.0397      0.0877
       118        -0.0000      0.0000     -0.0849      0.0072      0.0160
       119        -0.0000     -0.3048     -0.0000      0.0929      0.2063
       120         0.0000     -0.0000      0.0000      0.0000      0.0000
       121         0.0881      0.0000      0.0000      0.0078      0.0176
       122         0.0000     -0.0000     -0.0000      0.0000      0.0000
       123        -0.2817     -0.0000     -0.0000      0.0794      0.1878
       124        -0.0000      0.0000     -0.3518      0.1238      0.2953
       125         0.0000      0.1700      0.0000      0.0289      0.0703
       126         0.2759     -0.0000     -0.0000      0.0761      0.1981
       127        -0.0000     -0.0000     -0.0603      0.0036      0.0095
       128         0.2076      0.0000     -0.0000      0.0431      0.1131
       129         0.0000     -0.0000     -0.0000      0.0000      0.0000
       130         0.0000     -0.1436     -0.0000      0.0206      0.0562
       131         0.0000     -0.0000      0.0453      0.0021      0.0056
       132         0.0000     -0.0000     -0.0000      0.0000      0.0000
       133        -0.0000      0.2340      0.0000      0.0548      0.1591
       134        -0.0000     -0.0000      0.1732      0.0300      0.0900
       135        -0.0000     -0.0000     -0.0662      0.0044      0.0133
       136         0.0000      0.0273      0.0000      0.0007      0.0025
 Ground to excited state transition velocity dipole moments (Au):
       state          X           Y           Z        Dip. S.      Osc.
         1         0.1595     -0.0000      0.0000      0.0255      0.0588
         2        -0.0000     -0.0000     -0.0000      0.0000      0.0000
         3         0.0000     -0.0000      0.2422      0.0587      0.1071
         4         0.0734     -0.0000     -0.0000      0.0054      0.0088
         5        -0.0000      0.0000     -0.0332      0.0011      0.0017
         6         0.0000      0.1009     -0.0000      0.0102      0.0157
         7        -0.0000      0.0000      0.0000      0.0000      0.0000
         8         0.1577      0.0000     -0.0000      0.0249      0.0349
         9        -0.0937     -0.0000      0.0000      0.0088      0.0122
        10         0.0000      0.0000      0.1542      0.0238      0.0323
        11        -0.0000      0.2808      0.0000      0.0788      0.1031
        12         0.0000      0.0710      0.0000      0.0050      0.0065
        13         0.1883     -0.0000      0.0000      0.0355      0.0447
        14         0.0000      0.4950     -0.0000      0.2450      0.3047
        15        -0.0000      0.0000      0.2280      0.0520      0.0631
        16         0.0000     -0.0000      0.0880      0.0077      0.0092
        17         0.0000     -0.0000     -0.0303      0.0009      0.0010
        18         0.0000     -0.0000     -0.0000      0.0000      0.0000
        19        -0.0000     -0.0000     -0.0000      0.0000      0.0000
        20        -0.2382      0.0000      0.0000      0.0567      0.0603
        21        -0.0000      0.1971      0.0000      0.0388      0.0409
        22         0.0000     -0.0000     -0.2263      0.0512      0.0536
        23         0.0000      0.0000     -0.0000      0.0000      0.0000
        24         0.4184     -0.0000      0.0000      0.1751      0.1823
        25        -0.0000     -0.0000     -0.0000      0.0000      0.0000
        26        -0.0000      0.0000      0.5157      0.2660      0.2547
        27        -0.0000     -0.4622     -0.0000      0.2136      0.2024
        28        -0.0000      0.0000     -0.2777      0.0771      0.0731
        29         0.0000      0.0888     -0.0000      0.0079      0.0073
        30         0.3455     -0.0000     -0.0000      0.1194      0.1073
        31        -0.0000     -0.0285      0.0000      0.0008      0.0007
        32         0.0000     -0.1681     -0.0000      0.0282      0.0249
        33         0.0000      0.0000     -0.0000      0.0000      0.0000
        34        -0.0000      0.0000     -0.0000      0.0000      0.0000
        35        -0.4983     -0.0000      0.0000      0.2483      0.2030
        36         0.0000      0.0000     -0.3191      0.1018      0.0806
        37         0.0000     -0.2176     -0.0000      0.0473      0.0371
        38        -0.0000      0.1090      0.0000      0.0119      0.0092
        39         0.0267      0.0000     -0.0000      0.0007      0.0005
        40         0.0000     -0.0000      0.1798      0.0323      0.0248
        41        -0.0000     -0.0000     -0.1711      0.0293      0.0222
        42        -0.0000      0.7073     -0.0000      0.5002      0.3723
        43        -0.6217      0.0000      0.0000      0.3865      0.2813
        44        -0.0000     -0.0000     -0.2416      0.0584      0.0424
        45         0.0000      0.0000     -0.0000      0.0000      0.0000
        46        -0.0000      0.0000      0.7117      0.5065      0.3561
        47        -0.0000     -0.0000     -0.2110      0.0445      0.0294
        48         0.0000      0.4332     -0.0000      0.1876      0.1213
        49        -0.0000      0.0000      0.6476      0.4194      0.2686
        50        -0.0000      0.0000     -0.0000      0.0000      0.0000
        51         0.0000     -0.1676      0.0000      0.0281      0.0176
        52         0.4663     -0.0000     -0.0000      0.2175      0.1317
        53        -0.0000      0.0000     -0.0893      0.0080      0.0048
        54         0.0000     -0.6946      0.0000      0.4824      0.2874
        55         0.4886     -0.0000      0.0000      0.2388      0.1418
        56         0.0000     -0.0900      0.0000      0.0081      0.0047
        57        -0.0486      0.0000      0.0000      0.0024      0.0013
        58        -0.0000     -0.0000     -0.0683      0.0047      0.0026
        59        -0.0000      0.0000     -0.0000      0.0000      0.0000
        60         0.0000     -0.0000      0.0637      0.0041      0.0022
        61        -0.1297      0.0000      0.0000      0.0168      0.0089
        62         0.0000      0.0000      0.2512      0.0631      0.0334
        63        -0.0000      0.0000      0.0000      0.0000      0.0000
        64         0.0000     -0.0000      0.1125      0.0127      0.0063
        65        -0.0000     -0.1039     -0.0000      0.0108      0.0054
        66        -0.0000     -0.0540      0.0000      0.0029      0.0014
        67         0.0000      0.0145     -0.0000      0.0002      0.0001
        68         0.0000      0.3497     -0.0000      0.1223      0.0578
        69         0.1634     -0.0000     -0.0000      0.0267      0.0123
        70        -0.0000      0.0000     -0.1945      0.0378      0.0173
        71         0.0772     -0.0000      0.0000      0.0060      0.0027
        72        -0.0000      0.0084     -0.0000      0.0001      0.0000
        73        -0.0000      0.0000      0.0533      0.0028      0.0013
        74        -0.0000     -0.0000      0.2636      0.0695      0.0306
        75         0.0424      0.0000     -0.0000      0.0018      0.0008
        76        -0.0000     -0.0000      0.0000      0.0000      0.0000
        77        -0.0000      0.0000     -0.1543      0.0238      0.0100
        78         0.0000     -0.0000     -0.0000      0.0000      0.0000
        79        -0.0000      0.4089     -0.0000      0.1672      0.0667
        80        -0.0000     -0.0000     -0.1697      0.0288      0.0110
        81        -0.0000      0.0000      0.0000      0.0000      0.0000
        82         0.0000     -0.3702      0.0000      0.1370      0.0498
        83         0.5915      0.0000     -0.0000      0.3498      0.1251
        84        -0.0000     -0.0000     -0.5294      0.2803      0.0984
        85        -0.0000      0.5638     -0.0000      0.3178      0.1105
        86        -0.0000      0.0000      0.2276      0.0518      0.0178
        87        -0.0000      0.0000     -0.0000      0.0000      0.0000
        88        -0.0000     -0.3943     -0.0000      0.1555      0.0521
        89        -0.0000      0.0000      0.1137      0.0129      0.0042
        90         0.0000     -0.0000      0.4091      0.1674      0.0538
        91        -0.0000     -0.1463      0.0000      0.0214      0.0068
        92         0.1714     -0.0000      0.0000      0.0294      0.0092
        93         0.9172      0.0000      0.0000      0.8413      0.2632
        94         0.4891     -0.0000      0.0000      0.2392      0.0744
        95        -0.0000      0.0000      0.5842      0.3413      0.1054
        96         0.0000     -0.0000     -0.0000      0.0000      0.0000
        97        -0.6185     -0.0000     -0.0000      0.3825      0.1168
        98         0.0000     -0.2675      0.0000      0.0715      0.0212
        99         0.0000     -0.0000      0.0000      0.0000      0.0000
       100        -0.0000      0.0000      0.7342      0.5390      0.1580
       101         0.0000     -0.5511     -0.0000      0.3037      0.0843
       102        -0.0000     -0.0000     -0.0112      0.0001      0.0000
       103         0.0000      0.0000      0.0000      0.0000      0.0000
       104        -0.0000     -0.3883     -0.0000      0.1508      0.0407
       105         0.0000     -0.1544      0.0000      0.0238      0.0062
       106        -0.0000     -0.0000     -0.0000      0.0000      0.0000
       107        -0.0000     -0.0000     -0.0862      0.0074      0.0019
       108         0.5953      0.0000     -0.0000      0.3543      0.0893
       109        -0.0000      0.0000     -0.1644      0.0270      0.0067
       110        -0.2392      0.0000     -0.0000      0.0572      0.0139
       111         0.0000      0.0000     -0.3274      0.1072      0.0259
       112        -0.0000     -0.2944     -0.0000      0.0866      0.0204
       113        -0.0000     -0.0001      0.0000      0.0000      0.0000
       114        -0.0000     -0.0000     -0.0326      0.0011      0.0002
       115        -0.0000      0.3406     -0.0000      0.1160      0.0243
       116        -0.0000      0.0000      0.7593      0.5766      0.1180
       117         0.5474      0.0000     -0.0000      0.2997      0.0603
       118         0.0000     -0.0000      0.3084      0.0951      0.0191
       119         0.0000      0.9058      0.0000      0.8206      0.1643
       120        -0.0000      0.0000     -0.0000      0.0000      0.0000
       121        -0.2686     -0.0000     -0.0000      0.0721      0.0141
       122        -0.0000      0.0000      0.0000      0.0000      0.0000
       123         0.8601     -0.0000      0.0000      0.7398      0.1390
       124         0.0000     -0.0000      1.1363      1.2912      0.2406
       125        -0.0000     -0.5846     -0.0000      0.3418      0.0624
       126        -0.9703      0.0000      0.0000      0.9414      0.1608
       127         0.0000      0.0000      0.1671      0.0279      0.0048
       128        -0.7296     -0.0000      0.0000      0.5323      0.0902
       129        -0.0000      0.0000      0.0000      0.0000      0.0000
       130         0.0000      0.5201      0.0000      0.2705      0.0442
       131        -0.0000      0.0000     -0.1759      0.0309      0.0050
       132        -0.0000      0.0000      0.0000      0.0000      0.0000
       133         0.0000     -0.9206     -0.0000      0.8476      0.1297
       134         0.0000      0.0000     -0.7071      0.5001      0.0741
       135         0.0000      0.0000      0.2675      0.0716      0.0105
       136        -0.0000     -0.0964     -0.0000      0.0093      0.0013
 Ground to excited state transition magnetic dipole moments (Au):
       state          X           Y           Z
         1         0.0000     -0.0741     -0.0000
         2         0.0000      0.0000      0.0705
         3         0.0000      0.0000      0.0000
         4         0.0000     -0.0340      0.0000
         5         0.0000     -0.0000      0.0000
         6        -0.0886     -0.0000     -0.0000
         7        -0.0000      0.0000      0.2102
         8        -0.0000      0.1150     -0.0000
         9         0.0000     -0.0738     -0.0000
        10         0.0000     -0.0000     -0.0000
        11         0.1267     -0.0000      0.0000
        12         0.1519     -0.0000      0.0000
        13         0.0000      0.0823     -0.0000
        14        -0.3048      0.0000      0.0000
        15        -0.0000      0.0000     -0.0000
        16        -0.0000      0.0000     -0.0000
        17        -0.0000      0.0000     -0.0000
        18        -0.0000      0.0000      0.1730
        19        -0.0000     -0.0000      0.0150
        20         0.0000     -0.0155     -0.0000
        21         0.0660     -0.0000      0.0000
        22        -0.0000     -0.0000     -0.0000
        23         0.0000     -0.0000      0.1088
        24        -0.0000     -0.0621     -0.0000
        25        -0.0000     -0.0000     -0.1157
        26         0.0000      0.0000     -0.0000
        27        -0.3318      0.0000      0.0000
        28         0.0000      0.0000     -0.0000
        29         0.0889     -0.0000     -0.0000
        30         0.0000     -0.1596      0.0000
        31         0.0984      0.0000     -0.0000
        32         0.1912      0.0000     -0.0000
        33         0.0000      0.0000      0.1959
        34        -0.0000     -0.0000      0.1769
        35        -0.0000     -0.1204     -0.0000
        36         0.0000      0.0000      0.0000
        37        -0.0644      0.0000     -0.0000
        38        -0.1656      0.0000      0.0000
        39        -0.0000      0.0355     -0.0000
        40         0.0000      0.0000      0.0000
        41         0.0000     -0.0000     -0.0000
        42        -0.2562      0.0000      0.0000
        43        -0.0000     -0.0508      0.0000
        44         0.0000     -0.0000      0.0000
        45         0.0000      0.0000      0.1161
        46        -0.0000     -0.0000      0.0000
        47        -0.0000      0.0000      0.0000
        48         0.0395      0.0000     -0.0000
        49         0.0000     -0.0000     -0.0000
        50        -0.0000      0.0000     -0.0812
        51         0.0179     -0.0000      0.0000
        52        -0.0000     -0.0211     -0.0000
        53         0.0000      0.0000      0.0000
        54        -0.3051      0.0000      0.0000
        55        -0.0000     -0.0713     -0.0000
        56         0.1311      0.0000      0.0000
        57         0.0000     -0.1148     -0.0000
        58        -0.0000     -0.0000     -0.0000
        59         0.0000      0.0000     -0.1096
        60        -0.0000      0.0000     -0.0000
        61         0.0000      0.0459     -0.0000
        62        -0.0000     -0.0000     -0.0000
        63         0.0000     -0.0000      0.1330
        64         0.0000      0.0000      0.0000
        65         0.0702     -0.0000      0.0000
        66        -0.1094     -0.0000      0.0000
        67        -0.1573     -0.0000     -0.0000
        68        -0.0477      0.0000     -0.0000
        69        -0.0000      0.0015     -0.0000
        70         0.0000     -0.0000      0.0000
        71         0.0000      0.0942      0.0000
        72         0.0700     -0.0000      0.0000
        73         0.0000     -0.0000     -0.0000
        74         0.0000     -0.0000     -0.0000
        75         0.0000     -0.0532     -0.0000
        76         0.0000      0.0000     -0.1599
        77         0.0000      0.0000     -0.0000
        78         0.0000     -0.0000     -0.1399
        79         0.1913      0.0000      0.0000
        80        -0.0000     -0.0000     -0.0000
        81         0.0000      0.0000     -0.0472
        82         0.3041      0.0000      0.0000
        83        -0.0000      0.1424      0.0000
        84         0.0000     -0.0000     -0.0000
        85        -0.1717     -0.0000     -0.0000
        86        -0.0000     -0.0000     -0.0000
        87        -0.0000      0.0000      0.2910
        88         0.1209      0.0000      0.0000
        89        -0.0000      0.0000      0.0000
        90         0.0000     -0.0000     -0.0000
        91        -0.1358      0.0000      0.0000
        92        -0.0000      0.1075     -0.0000
        93         0.0000     -0.0072     -0.0000
        94        -0.0000     -0.2481     -0.0000
        95        -0.0000      0.0000      0.0000
        96        -0.0000     -0.0000     -0.0476
        97        -0.0000      0.0870     -0.0000
        98        -0.1965      0.0000     -0.0000
        99        -0.0000     -0.0000      0.4586
       100         0.0000      0.0000     -0.0000
       101        -0.4083     -0.0000      0.0000
       102        -0.0000     -0.0000     -0.0000
       103         0.0000     -0.0000     -0.1037
       104        -0.0594     -0.0000     -0.0000
       105         0.0464      0.0000      0.0000
       106        -0.0000     -0.0000     -0.2943
       107         0.0000     -0.0000      0.0000
       108         0.0000      0.1352     -0.0000
       109         0.0000     -0.0000      0.0000
       110        -0.0000      0.1503     -0.0000
       111        -0.0000     -0.0000     -0.0000
       112         0.0958      0.0000     -0.0000
       113         0.2594      0.0000      0.0000
       114         0.0000      0.0000      0.0000
       115        -0.0874     -0.0000     -0.0000
       116        -0.0000     -0.0000      0.0000
       117         0.0000      0.1164     -0.0000
       118         0.0000      0.0000     -0.0000
       119        -0.1275      0.0000      0.0000
       120        -0.0000     -0.0000     -0.0585
       121         0.0000     -0.0412      0.0000
       122        -0.0000     -0.0000     -0.0642
       123         0.0000      0.1988      0.0000
       124         0.0000      0.0000     -0.0000
       125         0.1977     -0.0000     -0.0000
       126        -0.0000     -0.1593      0.0000
       127        -0.0000      0.0000      0.0000
       128         0.0000     -0.1257      0.0000
       129        -0.0000     -0.0000     -0.0097
       130        -0.1091      0.0000     -0.0000
       131        -0.0000     -0.0000     -0.0000
       132        -0.0000     -0.0000      0.0246
       133         0.1467     -0.0000      0.0000
       134        -0.0000      0.0000      0.0000
       135        -0.0000      0.0000      0.0000
       136         0.0130      0.0000     -0.0000
 Ground to excited state transition velocity quadrupole moments (Au):
       state          XX          YY          ZZ          XY          XZ          YZ
         1        -0.0000      0.0000      0.0000      0.0000     -0.0715      0.0000
         2        -0.0000      0.0000      0.0000     -0.2505     -0.0000      0.0000
         3         0.1623     -0.1364     -0.1551     -0.0000      0.0000      0.0000
         4        -0.0000     -0.0000      0.0000      0.0000      0.3836      0.0000
         5         0.9051      0.0470      0.0263      0.0000      0.0000      0.0000
         6         0.0000      0.0000      0.0000      0.0000      0.0000     -0.3866
         7        -0.0000     -0.0000      0.0000      0.2502     -0.0000     -0.0000
         8         0.0000      0.0000      0.0000      0.0000      0.2069      0.0000
         9         0.0000      0.0000      0.0000     -0.0000      0.2336     -0.0000
        10         0.4498     -0.0728      0.8496     -0.0000     -0.0000     -0.0000
        11        -0.0000      0.0000      0.0000     -0.0000     -0.0000     -0.3122
        12        -0.0000      0.0000     -0.0000     -0.0000     -0.0000     -0.1518
        13         0.0000      0.0000     -0.0000      0.0000      0.0160     -0.0000
        14        -0.0000      0.0000     -0.0000     -0.0000      0.0000     -0.2413
        15         0.0651      0.2325     -0.0791     -0.0000      0.0000     -0.0000
        16        -0.0436      0.0270      0.0914      0.0000      0.0000      0.0000
        17        -0.2453     -0.7842     -0.1750      0.0000     -0.0000      0.0000
        18        -0.0000     -0.0000      0.0000     -0.2422      0.0000      0.0000
        19        -0.0000     -0.0000      0.0000      0.3114      0.0000     -0.0000
        20         0.0000      0.0000     -0.0000     -0.0000      0.0042     -0.0000
        21        -0.0000      0.0000      0.0000     -0.0000     -0.0000      0.2181
        22         0.4477      0.7171      0.4811      0.0000     -0.0000      0.0000
        23         0.0000      0.0000      0.0000     -0.2250     -0.0000     -0.0000
        24        -0.0000     -0.0000     -0.0000      0.0000     -0.1231      0.0000
        25         0.0000      0.0000      0.0000      0.3264      0.0000      0.0000
        26        -0.0970     -0.5356     -0.6054      0.0000      0.0000     -0.0000
        27        -0.0000     -0.0000      0.0000     -0.0000     -0.0000      0.3612
        28        -0.0269     -0.1327      0.2226      0.0000      0.0000     -0.0000
        29        -0.0000     -0.0000     -0.0000     -0.0000     -0.0000      0.1210
        30        -0.0000     -0.0000     -0.0000     -0.0000     -0.3433      0.0000
        31         0.0000      0.0000      0.0000     -0.0000      0.0000      0.3940
        32        -0.0000      0.0000     -0.0000      0.0000      0.0000      0.5619
        33         0.0000     -0.0000     -0.0000     -0.5539      0.0000      0.0000
        34         0.0000      0.0000     -0.0000      0.1518      0.0000      0.0000
        35        -0.0000     -0.0000     -0.0000     -0.0000      0.0366      0.0000
        36        -0.1564      0.1002     -0.1677     -0.0000      0.0000      0.0000
        37        -0.0000      0.0000     -0.0000      0.0000     -0.0000     -0.1428
        38        -0.0000     -0.0000      0.0000      0.0000      0.0000      0.3343
        39         0.0000      0.0000     -0.0000     -0.0000      0.0247      0.0000
        40        -0.2078     -0.5096      0.5825      0.0000      0.0000     -0.0000
        41         0.1225     -1.4174      0.1459     -0.0000     -0.0000     -0.0000
        42         0.0000     -0.0000      0.0000     -0.0000      0.0000      0.5565
        43        -0.0000     -0.0000     -0.0000     -0.0000     -0.5378      0.0000
        44         0.3654      0.1664      0.4235      0.0000     -0.0000     -0.0000
        45         0.0000     -0.0000     -0.0000      0.4722      0.0000      0.0000
        46        -0.2595     -0.0960      0.5652      0.0000     -0.0000      0.0000
        47         0.3846      0.8446      0.6546      0.0000     -0.0000     -0.0000
        48         0.0000      0.0000      0.0000     -0.0000      0.0000      0.5368
        49         0.2155      0.6313      0.8805     -0.0000     -0.0000      0.0000
        50        -0.0000     -0.0000     -0.0000     -0.3608     -0.0000     -0.0000
        51         0.0000      0.0000      0.0000     -0.0000     -0.0000      0.3809
        52        -0.0000      0.0000     -0.0000     -0.0000      0.1719     -0.0000
        53         0.0572      0.3906     -0.0797     -0.0000      0.0000     -0.0000
        54        -0.0000      0.0000      0.0000     -0.0000      0.0000     -0.2889
        55         0.0000     -0.0000      0.0000      0.0000      0.3652     -0.0000
        56         0.0000      0.0000      0.0000     -0.0000      0.0000      0.7090
        57        -0.0000      0.0000     -0.0000      0.0000      0.1677     -0.0000
        58         0.2840     -0.9680      0.2015      0.0000      0.0000      0.0000
        59        -0.0000      0.0000      0.0000      0.6827     -0.0000      0.0000
        60         0.2578      0.0797     -0.9642      0.0000     -0.0000      0.0000
        61         0.0000     -0.0000      0.0000     -0.0000      0.6405     -0.0000
        62         0.5312     -0.7710      0.1129     -0.0000     -0.0000     -0.0000
        63         0.0000     -0.0000     -0.0000      0.3685      0.0000     -0.0000
        64        -0.4695     -0.6325     -0.2579      0.0000     -0.0000      0.0000
        65         0.0000      0.0000      0.0000     -0.0000      0.0000      0.1795
        66        -0.0000     -0.0000      0.0000     -0.0000     -0.0000     -0.3430
        67         0.0000      0.0000      0.0000      0.0000     -0.0000     -0.2617
        68        -0.0000     -0.0000      0.0000      0.0000      0.0000     -0.9549
        69         0.0000      0.0000     -0.0000     -0.0000      0.4555      0.0000
        70         0.9858      0.1909     -0.4326     -0.0000     -0.0000     -0.0000
        71         0.0000      0.0000      0.0000     -0.0000      0.2565      0.0000
        72         0.0000      0.0000      0.0000      0.0000      0.0000      0.6437
        73        -0.6724      0.6092      0.0802     -0.0000     -0.0000      0.0000
        74         0.7373     -0.5668      0.3116     -0.0000     -0.0000     -0.0000
        75        -0.0000      0.0000      0.0000      0.0000     -0.7094      0.0000
        76         0.0000      0.0000     -0.0000      0.8883      0.0000      0.0000
        77        -0.0815     -0.7489      0.8907      0.0000      0.0000     -0.0000
        78        -0.0000     -0.0000     -0.0000      0.1821     -0.0000      0.0000
        79         0.0000      0.0000      0.0000      0.0000      0.0000     -0.1605
        80         0.7657      0.4997      1.4486     -0.0000     -0.0000     -0.0000
        81        -0.0000     -0.0000     -0.0000     -0.4383     -0.0000      0.0000
        82        -0.0000      0.0000     -0.0000      0.0000      0.0000      0.1179
        83         0.0000      0.0000      0.0000     -0.0000      0.0684      0.0000
        84         0.0459      0.1634      0.6066      0.0000      0.0000     -0.0000
        85         0.0000     -0.0000      0.0000      0.0000     -0.0000     -0.6566
        86         0.0558      0.4453     -0.0756     -0.0000      0.0000     -0.0000
        87         0.0000     -0.0000      0.0000     -0.7714     -0.0000     -0.0000
        88        -0.0000     -0.0000      0.0000     -0.0000     -0.0000      0.1104
        89         0.0116     -1.6709     -0.2607     -0.0000      0.0000      0.0000
        90         1.2600      0.4383      0.0175      0.0000      0.0000     -0.0000
        91         0.0000      0.0000      0.0000     -0.0000     -0.0000      0.7117
        92        -0.0000      0.0000     -0.0000      0.0000      0.3841      0.0000
        93         0.0000      0.0000     -0.0000      0.0000     -0.3754      0.0000
        94        -0.0000     -0.0000     -0.0000      0.0000     -0.3874      0.0000
        95         0.2977      1.0044      0.2371     -0.0000      0.0000     -0.0000
        96        -0.0000     -0.0000      0.0000     -0.3538     -0.0000     -0.0000
        97        -0.0000     -0.0000      0.0000     -0.0000      0.7208      0.0000
        98         0.0000      0.0000     -0.0000      0.0000      0.0000     -0.7355
        99         0.0000      0.0000     -0.0000     -1.1239     -0.0000     -0.0000
       100         0.5851      0.2905     -0.2744      0.0000      0.0000      0.0000
       101         0.0000     -0.0000     -0.0000     -0.0000     -0.0000     -0.4895
       102        -0.6468      1.2415     -1.1574      0.0000     -0.0000     -0.0000
       103         0.0000     -0.0000      0.0000      0.3364     -0.0000     -0.0000
       104         0.0000     -0.0000      0.0000      0.0000     -0.0000     -0.5828
       105        -0.0000     -0.0000     -0.0000     -0.0000      0.0000     -0.4747
       106         0.0000      0.0000      0.0000      0.7705      0.0000     -0.0000
       107         1.1511      0.4806      1.0378     -0.0000      0.0000     -0.0000
       108         0.0000     -0.0000      0.0000      0.0000     -0.0211     -0.0000
       109         0.1276     -0.3298      0.2039     -0.0000     -0.0000      0.0000
       110         0.0000     -0.0000     -0.0000      0.0000      0.5733      0.0000
       111         0.7354     -0.2699     -0.0684      0.0000     -0.0000      0.0000
       112         0.0000     -0.0000     -0.0000      0.0000      0.0000     -0.4318
       113         0.0000      0.0000     -0.0000     -0.0000      0.0000      0.0677
       114        -0.5364     -0.6341      0.6096     -0.0000      0.0000     -0.0000
       115         0.0000     -0.0000     -0.0000      0.0000     -0.0000     -0.0525
       116        -0.1748      0.4613      0.2473     -0.0000     -0.0000      0.0000
       117        -0.0000      0.0000      0.0000      0.0000      0.2702      0.0000
       118         0.3634     -0.1728     -0.2455      0.0000      0.0000     -0.0000
       119         0.0000     -0.0000     -0.0000     -0.0000      0.0000      0.5079
       120        -0.0000      0.0000      0.0000      0.5773      0.0000      0.0000
       121         0.0000     -0.0000      0.0000      0.0000     -0.2123     -0.0000
       122        -0.0000      0.0000      0.0000      0.4396     -0.0000      0.0000
       123         0.0000     -0.0000      0.0000     -0.0000      0.6442     -0.0000
       124        -0.2787     -0.2497      1.2114      0.0000      0.0000     -0.0000
       125        -0.0000      0.0000     -0.0000      0.0000     -0.0000     -0.1045
       126        -0.0000      0.0000     -0.0000     -0.0000     -0.7135      0.0000
       127        -0.2505      0.4701     -0.0496     -0.0000      0.0000     -0.0000
       128        -0.0000      0.0000     -0.0000      0.0000      0.1230     -0.0000
       129        -0.0000      0.0000     -0.0000      0.3885     -0.0000      0.0000
       130         0.0000     -0.0000      0.0000     -0.0000      0.0000      0.3818
       131        -0.1333     -0.1055      0.2201      0.0000     -0.0000      0.0000
       132        -0.0000      0.0000      0.0000      0.2974     -0.0000      0.0000
       133         0.0000     -0.0000     -0.0000      0.0000     -0.0000     -0.5324
       134         0.1542     -0.1872     -0.6249     -0.0000     -0.0000      0.0000
       135        -0.4343      0.2034      0.2144     -0.0000     -0.0000      0.0000
       136         0.0000      0.0000      0.0000      0.0000      0.0000     -0.2356
 <0|del|b> * <b|rxdel|0> + <0|del|b> * <b|delr+rdel|0>
 Rotatory Strengths (R) in cgs (10**-40 erg-esu-cm/Gauss)
       state          XX          YY          ZZ    R(velocity)    E-M Angle
         1         0.0000      0.0000     -0.0000      0.0000       90.00
         2         0.0000     -0.0000      0.0000     -0.0000       90.00
         3        -0.0000      0.0000     -0.0000      0.0000       90.00
         4         0.0000      0.0000     -0.0000      0.0000       90.00
         5        -0.0000      0.0000      0.0000     -0.0000       90.00
         6        -0.0000     -0.0000      0.0000     -0.0000       90.00
         7         0.0000     -0.0000     -0.0000      0.0000       90.00
         8        -0.0000      0.0000     -0.0000     -0.0000       90.00
         9         0.0000      0.0000     -0.0000      0.0000       90.00
        10        -0.0000      0.0000     -0.0000     -0.0000       90.00
        11         0.0000      0.0000     -0.0000     -0.0000       90.00
        12         0.0000      0.0000      0.0000      0.0000       90.00
        13        -0.0000      0.0000      0.0000      0.0000       90.00
        14        -0.0000     -0.0000      0.0000     -0.0000       90.00
        15        -0.0000      0.0000     -0.0000     -0.0000       90.00
        16         0.0000     -0.0000     -0.0000     -0.0000       90.00
        17        -0.0000      0.0000      0.0000      0.0000       90.00
        18         0.0000     -0.0000     -0.0000     -0.0000       90.00
        19        -0.0000      0.0000     -0.0000     -0.0000       90.00
        20        -0.0000      0.0000     -0.0000     -0.0000       90.00
        21         0.0000     -0.0000      0.0000     -0.0000       90.00
        22        -0.0000      0.0000     -0.0000      0.0000       90.00
        23         0.0000     -0.0000      0.0000     -0.0000       90.00
        24        -0.0000      0.0000      0.0000      0.0000       90.00
        25        -0.0000      0.0000      0.0000      0.0000       90.00
        26         0.0000     -0.0000      0.0000     -0.0000       90.00
        27        -0.0000     -0.0000      0.0000      0.0000       90.00
        28        -0.0000      0.0000      0.0000      0.0000       90.00
        29         0.0000      0.0000     -0.0000      0.0000       90.00
        30        -0.0000      0.0000     -0.0000      0.0000       90.00
        31         0.0000     -0.0000      0.0000     -0.0000       90.00
        32         0.0000      0.0000     -0.0000      0.0000       90.00
        33         0.0000     -0.0000      0.0000     -0.0000       90.00
        34        -0.0000     -0.0000      0.0000     -0.0000       90.00
        35         0.0000     -0.0000      0.0000      0.0000       90.00
        36         0.0000     -0.0000     -0.0000     -0.0000       90.00
        37        -0.0000     -0.0000      0.0000     -0.0000       90.00
        38         0.0000     -0.0000      0.0000      0.0000       90.00
        39         0.0000      0.0000     -0.0000     -0.0000       90.00
        40         0.0000      0.0000      0.0000      0.0000       90.00
        41         0.0000      0.0000     -0.0000      0.0000       90.00
        42        -0.0000     -0.0000      0.0000      0.0000       90.00
        43         0.0000     -0.0000      0.0000      0.0000       90.00
        44        -0.0000      0.0000     -0.0000     -0.0000       90.00
        45        -0.0000      0.0000     -0.0000     -0.0000       90.00
        46         0.0000     -0.0000      0.0000      0.0000       90.00
        47        -0.0000     -0.0000     -0.0000     -0.0000       90.00
        48        -0.0000      0.0000      0.0000      0.0000       90.00
        49        -0.0000      0.0000     -0.0000     -0.0000       90.00
        50         0.0000     -0.0000     -0.0000      0.0000       90.00
        51        -0.0000      0.0000      0.0000      0.0000       90.00
        52         0.0000     -0.0000     -0.0000     -0.0000       90.00
        53         0.0000     -0.0000     -0.0000     -0.0000       90.00
        54         0.0000     -0.0000     -0.0000     -0.0000       90.00
        55         0.0000     -0.0000     -0.0000     -0.0000       90.00
        56         0.0000      0.0000     -0.0000      0.0000       90.00
        57        -0.0000      0.0000      0.0000     -0.0000       90.00
        58        -0.0000      0.0000      0.0000      0.0000       90.00
        59        -0.0000      0.0000     -0.0000      0.0000       90.00
        60        -0.0000     -0.0000      0.0000     -0.0000       90.00
        61        -0.0000     -0.0000      0.0000     -0.0000       90.00
        62        -0.0000      0.0000     -0.0000     -0.0000       90.00
        63         0.0000     -0.0000      0.0000      0.0000       90.00
        64         0.0000     -0.0000      0.0000      0.0000       90.00
        65         0.0000     -0.0000     -0.0000      0.0000       90.00
        66        -0.0000      0.0000     -0.0000      0.0000       90.00
        67         0.0000     -0.0000      0.0000     -0.0000       90.00
        68        -0.0000     -0.0000      0.0000      0.0000       90.00
        69         0.0000      0.0000     -0.0000     -0.0000       90.00
        70         0.0000     -0.0000     -0.0000     -0.0000       90.00
        71         0.0000      0.0000     -0.0000     -0.0000       90.00
        72        -0.0000     -0.0000      0.0000     -0.0000       90.00
        73        -0.0000     -0.0000      0.0000     -0.0000       90.00
        74        -0.0000      0.0000      0.0000     -0.0000       90.00
        75         0.0000      0.0000     -0.0000      0.0000       90.00
        76         0.0000     -0.0000     -0.0000     -0.0000       90.00
        77        -0.0000      0.0000      0.0000      0.0000       90.00
        78        -0.0000      0.0000     -0.0000      0.0000       90.00
        79        -0.0000     -0.0000      0.0000     -0.0000       90.00
        80         0.0000     -0.0000     -0.0000      0.0000       90.00
        81        -0.0000      0.0000     -0.0000     -0.0000       90.00
        82        -0.0000      0.0000      0.0000      0.0000       90.00
        83         0.0000     -0.0000     -0.0000     -0.0000       90.00
        84        -0.0000      0.0000     -0.0000      0.0000       90.00
        85         0.0000      0.0000     -0.0000     -0.0000       90.00
        86        -0.0000     -0.0000      0.0000     -0.0000       90.00
        87         0.0000     -0.0000     -0.0000     -0.0000       90.00
        88        -0.0000     -0.0000      0.0000     -0.0000       90.00
        89         0.0000      0.0000      0.0000      0.0000       90.00
        90         0.0000     -0.0000      0.0000     -0.0000       90.00
        91        -0.0000     -0.0000      0.0000      0.0000       90.00
        92         0.0000      0.0000     -0.0000     -0.0000       90.00
        93         0.0000      0.0000     -0.0000      0.0000       90.00
        94        -0.0000      0.0000     -0.0000      0.0000       90.00
        95        -0.0000      0.0000     -0.0000      0.0000       90.00
        96         0.0000     -0.0000      0.0000      0.0000       90.00
        97         0.0000     -0.0000      0.0000      0.0000       90.00
        98         0.0000     -0.0000     -0.0000     -0.0000       90.00
        99        -0.0000      0.0000      0.0000      0.0000       90.00
       100         0.0000     -0.0000      0.0000     -0.0000       90.00
       101        -0.0000     -0.0000      0.0000     -0.0000       90.00
       102        -0.0000      0.0000      0.0000      0.0000       90.00
       103         0.0000     -0.0000     -0.0000     -0.0000       90.00
       104        -0.0000      0.0000      0.0000      0.0000       90.00
       105        -0.0000     -0.0000      0.0000     -0.0000       90.00
       106        -0.0000      0.0000     -0.0000      0.0000       90.00
       107         0.0000     -0.0000     -0.0000     -0.0000       90.00
       108         0.0000      0.0000      0.0000      0.0000       90.00
       109         0.0000     -0.0000     -0.0000     -0.0000       90.00
       110        -0.0000      0.0000      0.0000      0.0000       90.00
       111        -0.0000      0.0000     -0.0000      0.0000       90.00
       112         0.0000      0.0000     -0.0000     -0.0000       90.00
       113         0.0000     -0.0000     -0.0000     -0.0000       90.00
       114         0.0000     -0.0000     -0.0000     -0.0000       90.00
       115         0.0000      0.0000     -0.0000     -0.0000       90.00
       116        -0.0000      0.0000      0.0000      0.0000       90.00
       117        -0.0000      0.0000     -0.0000      0.0000       90.00
       118         0.0000     -0.0000      0.0000     -0.0000       90.00
       119        -0.0000      0.0000     -0.0000      0.0000       90.00
       120        -0.0000      0.0000      0.0000      0.0000       90.00
       121        -0.0000      0.0000      0.0000      0.0000       90.00
       122         0.0000     -0.0000      0.0000     -0.0000       90.00
       123         0.0000     -0.0000     -0.0000     -0.0000       90.00
       124         0.0000     -0.0000      0.0000     -0.0000       90.00
       125        -0.0000     -0.0000      0.0000     -0.0000       90.00
       126         0.0000     -0.0000     -0.0000      0.0000       90.00
       127        -0.0000      0.0000      0.0000      0.0000       90.00
       128         0.0000      0.0000     -0.0000      0.0000       90.00
       129         0.0000     -0.0000     -0.0000     -0.0000       90.00
       130        -0.0000      0.0000      0.0000      0.0000       90.00
       131        -0.0000      0.0000     -0.0000      0.0000       90.00
       132         0.0000     -0.0000     -0.0000      0.0000       90.00
       133        -0.0000     -0.0000      0.0000      0.0000       90.00
       134        -0.0000     -0.0000     -0.0000     -0.0000       90.00
       135        -0.0000      0.0000     -0.0000      0.0000       90.00
[...]
     16   0.000000D+00  0.000000D+00  0.000000D+00  0.000000D+00  0.179464D+00
                66            67            68            69            70 
      1  -0.749963D+02 -0.749780D+02 -0.749449D+02 -0.749132D+02 -0.748938D+02
      2   0.000000D+00  0.000000D+00  0.000000D+00 -0.986583D-01  0.000000D+00
      3   0.326348D-01 -0.310930D-01 -0.272682D+00  0.000000D+00  0.000000D+00
      4   0.000000D+00  0.000000D+00  0.000000D+00  0.000000D+00  0.103153D+00
      5   0.000000D+00  0.000000D+00  0.000000D+00  0.163361D+00  0.000000D+00
      6  -0.539930D-01  0.144796D-01  0.349697D+00  0.000000D+00  0.000000D+00
      7   0.000000D+00  0.000000D+00  0.000000D+00  0.000000D+00 -0.194496D+00
      8  -0.109413D+00 -0.157302D+00 -0.477321D-01  0.000000D+00  0.000000D+00
      9   0.000000D+00  0.000000D+00  0.000000D+00  0.148367D-02  0.000000D+00
     10   0.000000D+00  0.000000D+00  0.000000D+00  0.000000D+00  0.000000D+00
     11   0.000000D+00  0.000000D+00  0.000000D+00  0.000000D+00  0.985780D+00
     12   0.000000D+00  0.000000D+00  0.000000D+00  0.000000D+00  0.190865D+00
     13   0.000000D+00  0.000000D+00  0.000000D+00  0.000000D+00 -0.432595D+00
     14   0.000000D+00  0.000000D+00  0.000000D+00  0.000000D+00  0.000000D+00
     15   0.000000D+00  0.000000D+00  0.000000D+00  0.455516D+00  0.000000D+00
     16  -0.342996D+00 -0.261679D+00 -0.954870D+00  0.000000D+00  0.000000D+00
                71            72            73            74            75 
      1  -0.748568D+02 -0.748528D+02 -0.748494D+02 -0.748431D+02 -0.748091D+02
      2  -0.413807D-01  0.000000D+00  0.000000D+00  0.000000D+00 -0.132207D-01
      3   0.000000D+00 -0.252833D-02  0.000000D+00  0.000000D+00  0.000000D+00
      4   0.000000D+00  0.000000D+00 -0.321391D-01 -0.165020D+00  0.000000D+00
      5   0.772201D-01  0.000000D+00  0.000000D+00  0.000000D+00  0.423561D-01
      6   0.000000D+00  0.836241D-02  0.000000D+00  0.000000D+00  0.000000D+00
      7   0.000000D+00  0.000000D+00  0.533012D-01  0.263602D+00  0.000000D+00
      8   0.000000D+00  0.699500D-01  0.000000D+00  0.000000D+00  0.000000D+00
      9   0.942364D-01  0.000000D+00  0.000000D+00  0.000000D+00 -0.531822D-01
     10   0.000000D+00  0.000000D+00  0.000000D+00  0.000000D+00  0.000000D+00
     11   0.000000D+00  0.000000D+00 -0.672364D+00  0.737269D+00  0.000000D+00
     12   0.000000D+00  0.000000D+00  0.609238D+00 -0.566752D+00  0.000000D+00
     13   0.000000D+00  0.000000D+00  0.801807D-01  0.311607D+00  0.000000D+00
     14   0.000000D+00  0.000000D+00  0.000000D+00  0.000000D+00  0.000000D+00
     15   0.256461D+00  0.000000D+00  0.000000D+00  0.000000D+00 -0.709395D+00
     16   0.000000D+00  0.643714D+00  0.000000D+00  0.000000D+00  0.000000D+00
                76            77            78            79            80 
      1  -0.747762D+02 -0.747742D+02 -0.747112D+02 -0.746835D+02 -0.746103D+02
      2   0.000000D+00  0.000000D+00  0.000000D+00  0.000000D+00  0.000000D+00
      3   0.000000D+00  0.000000D+00  0.000000D+00 -0.244010D+00  0.000000D+00
      4   0.000000D+00  0.803281D-01  0.000000D+00  0.000000D+00  0.114545D+00
      5   0.000000D+00  0.000000D+00  0.000000D+00  0.000000D+00  0.000000D+00
      6   0.000000D+00  0.000000D+00  0.000000D+00  0.408947D+00  0.000000D+00
      7   0.000000D+00 -0.154251D+00  0.000000D+00  0.000000D+00 -0.169704D+00
      8   0.000000D+00  0.000000D+00  0.000000D+00  0.191335D+00  0.000000D+00
      9   0.000000D+00  0.000000D+00  0.000000D+00  0.000000D+00  0.000000D+00
     10  -0.159866D+00  0.000000D+00 -0.139860D+00  0.000000D+00  0.000000D+00
     11   0.000000D+00 -0.814627D-01  0.000000D+00  0.000000D+00  0.765686D+00
     12   0.000000D+00 -0.748931D+00  0.000000D+00  0.000000D+00  0.499692D+00
     13   0.000000D+00  0.890699D+00  0.000000D+00  0.000000D+00  0.144865D+01
     14   0.888319D+00  0.000000D+00  0.182108D+00  0.000000D+00  0.000000D+00
     15   0.000000D+00  0.000000D+00  0.000000D+00  0.000000D+00  0.000000D+00
     16   0.000000D+00  0.000000D+00  0.000000D+00 -0.160460D+00  0.000000D+00
                81            82            83            84            85 
      1  -0.746019D+02 -0.745230D+02 -0.744911D+02 -0.744564D+02 -0.744386D+02
      2   0.000000D+00  0.000000D+00 -0.303153D+00  0.000000D+00  0.000000D+00
      3   0.000000D+00  0.183347D+00  0.000000D+00  0.000000D+00 -0.326459D+00
      4   0.000000D+00  0.000000D+00  0.000000D+00  0.275839D+00  0.000000D+00
      5   0.000000D+00  0.000000D+00  0.591480D+00  0.000000D+00  0.000000D+00
      6   0.000000D+00 -0.370169D+00  0.000000D+00  0.000000D+00  0.563763D+00
      7   0.000000D+00  0.000000D+00  0.000000D+00 -0.529390D+00  0.000000D+00
      8   0.000000D+00  0.304106D+00  0.000000D+00  0.000000D+00 -0.171736D+00
      9   0.000000D+00  0.000000D+00  0.142351D+00  0.000000D+00  0.000000D+00
     10  -0.472058D-01  0.000000D+00  0.000000D+00  0.000000D+00  0.000000D+00
     11   0.000000D+00  0.000000D+00  0.000000D+00  0.458992D-01  0.000000D+00
     12   0.000000D+00  0.000000D+00  0.000000D+00  0.163353D+00  0.000000D+00
     13   0.000000D+00  0.000000D+00  0.000000D+00  0.606649D+00  0.000000D+00
     14  -0.438342D+00  0.000000D+00  0.000000D+00  0.000000D+00  0.000000D+00
     15   0.000000D+00  0.000000D+00  0.684436D-01  0.000000D+00  0.000000D+00
     16   0.000000D+00  0.117929D+00  0.000000D+00  0.000000D+00 -0.656609D+00
                86            87            88            89            90 
      1  -0.744204D+02 -0.743799D+02 -0.743664D+02 -0.743074D+02 -0.742834D+02
      2   0.000000D+00  0.000000D+00  0.000000D+00  0.000000D+00  0.000000D+00
      3   0.000000D+00  0.000000D+00  0.184108D+00  0.000000D+00  0.000000D+00
      4  -0.130567D+00  0.000000D+00  0.000000D+00 -0.796749D-01 -0.206282D+00
      5   0.000000D+00  0.000000D+00  0.000000D+00  0.000000D+00  0.000000D+00
      6   0.000000D+00  0.000000D+00 -0.394340D+00  0.000000D+00  0.000000D+00
      7   0.227565D+00  0.000000D+00  0.000000D+00  0.113738D+00  0.409089D+00
      8   0.000000D+00  0.000000D+00  0.120936D+00  0.000000D+00  0.000000D+00
      9   0.000000D+00  0.000000D+00  0.000000D+00  0.000000D+00  0.000000D+00
     10   0.000000D+00  0.290995D+00  0.000000D+00  0.000000D+00  0.000000D+00
     11   0.558325D-01  0.000000D+00  0.000000D+00  0.116118D-01  0.126001D+01
     12   0.445327D+00  0.000000D+00  0.000000D+00 -0.167093D+01  0.438349D+00
     13  -0.756222D-01  0.000000D+00  0.000000D+00 -0.260677D+00  0.175041D-01
     14   0.000000D+00 -0.771386D+00  0.000000D+00  0.000000D+00  0.000000D+00
     15   0.000000D+00  0.000000D+00  0.000000D+00  0.000000D+00  0.000000D+00
     16   0.000000D+00  0.000000D+00  0.110406D+00  0.000000D+00  0.000000D+00
                91            92            93            94            95 
      1  -0.742590D+02 -0.742294D+02 -0.742246D+02 -0.742122D+02 -0.741960D+02
      2   0.000000D+00 -0.644148D-01 -0.419119D+00 -0.281375D+00  0.000000D+00
      3   0.935501D-01  0.000000D+00  0.000000D+00  0.000000D+00  0.000000D+00
      4   0.000000D+00  0.000000D+00  0.000000D+00  0.000000D+00 -0.260104D+00
      5   0.000000D+00  0.171438D+00  0.917208D+00  0.489070D+00  0.000000D+00
      6  -0.146292D+00  0.000000D+00  0.000000D+00  0.000000D+00  0.000000D+00
      7   0.000000D+00  0.000000D+00  0.000000D+00  0.000000D+00  0.584204D+00
      8  -0.135789D+00  0.000000D+00  0.000000D+00  0.000000D+00  0.000000D+00
      9   0.000000D+00  0.107460D+00 -0.716117D-02 -0.248072D+00  0.000000D+00
     10   0.000000D+00  0.000000D+00  0.000000D+00  0.000000D+00  0.000000D+00
     11   0.000000D+00  0.000000D+00  0.000000D+00  0.000000D+00  0.297724D+00
     12   0.000000D+00  0.000000D+00  0.000000D+00  0.000000D+00  0.100440D+01
     13   0.000000D+00  0.000000D+00  0.000000D+00  0.000000D+00  0.237102D+00
     14   0.000000D+00  0.000000D+00  0.000000D+00  0.000000D+00  0.000000D+00
     15   0.000000D+00  0.384135D+00 -0.375389D+00 -0.387437D+00  0.000000D+00
     16   0.711690D+00  0.000000D+00  0.000000D+00  0.000000D+00  0.000000D+00
                96            97            98            99           100 
      1  -0.741832D+02 -0.741715D+02 -0.741035D+02 -0.740834D+02 -0.740820D+02
      2   0.000000D+00  0.319856D+00  0.000000D+00  0.000000D+00  0.000000D+00
      3   0.000000D+00  0.000000D+00  0.108757D+00  0.000000D+00  0.000000D+00
      4   0.000000D+00  0.000000D+00  0.000000D+00  0.000000D+00 -0.382453D+00
      5   0.000000D+00 -0.618504D+00  0.000000D+00  0.000000D+00  0.000000D+00
      6   0.000000D+00  0.000000D+00 -0.267456D+00  0.000000D+00  0.000000D+00
      7   0.000000D+00  0.000000D+00  0.000000D+00  0.000000D+00  0.734160D+00
      8   0.000000D+00  0.000000D+00 -0.196461D+00  0.000000D+00  0.000000D+00
      9   0.000000D+00  0.870235D-01  0.000000D+00  0.000000D+00  0.000000D+00
     10  -0.475555D-01  0.000000D+00  0.000000D+00  0.458647D+00  0.000000D+00
     11   0.000000D+00  0.000000D+00  0.000000D+00  0.000000D+00  0.585146D+00
     12   0.000000D+00  0.000000D+00  0.000000D+00  0.000000D+00  0.290531D+00
     13   0.000000D+00  0.000000D+00  0.000000D+00  0.000000D+00 -0.274373D+00
     14  -0.353833D+00  0.000000D+00  0.000000D+00 -0.112385D+01  0.000000D+00
     15   0.000000D+00  0.720763D+00  0.000000D+00  0.000000D+00  0.000000D+00
     16   0.000000D+00  0.000000D+00 -0.735542D+00  0.000000D+00  0.000000D+00
               101           102           103           104           105 
      1  -0.739546D+02 -0.739539D+02 -0.738857D+02 -0.738854D+02 -0.737844D+02
      2   0.000000D+00  0.000000D+00  0.000000D+00  0.000000D+00  0.000000D+00
      3   0.258624D+00  0.000000D+00  0.000000D+00  0.157677D+00  0.815169D-01
      4   0.000000D+00 -0.831931D-02  0.000000D+00  0.000000D+00  0.000000D+00
      5   0.000000D+00  0.000000D+00  0.000000D+00  0.000000D+00  0.000000D+00
      6  -0.551113D+00  0.000000D+00  0.000000D+00 -0.388313D+00 -0.154365D+00
      7   0.000000D+00 -0.112187D-01  0.000000D+00  0.000000D+00  0.000000D+00
      8  -0.408339D+00  0.000000D+00  0.000000D+00 -0.593890D-01  0.464390D-01
      9   0.000000D+00  0.000000D+00  0.000000D+00  0.000000D+00  0.000000D+00
     10   0.000000D+00  0.000000D+00 -0.103698D+00  0.000000D+00  0.000000D+00
     11   0.000000D+00 -0.646816D+00  0.000000D+00  0.000000D+00  0.000000D+00
     12   0.000000D+00  0.124152D+01  0.000000D+00  0.000000D+00  0.000000D+00
     13   0.000000D+00 -0.115737D+01  0.000000D+00  0.000000D+00  0.000000D+00
     14   0.000000D+00  0.000000D+00  0.336361D+00  0.000000D+00  0.000000D+00
     15   0.000000D+00  0.000000D+00  0.000000D+00  0.000000D+00  0.000000D+00
     16  -0.489488D+00  0.000000D+00  0.000000D+00 -0.582843D+00 -0.474663D+00
               106           107           108           109           110 
      1  -0.737521D+02 -0.737356D+02 -0.737107D+02 -0.736843D+02 -0.736048D+02
      2   0.000000D+00  0.000000D+00 -0.289230D+00  0.000000D+00  0.118851D+00
      3   0.000000D+00  0.000000D+00  0.000000D+00  0.000000D+00  0.000000D+00
      4   0.000000D+00  0.389317D-01  0.000000D+00  0.683611D-01  0.000000D+00
      5   0.000000D+00  0.000000D+00  0.595267D+00  0.000000D+00 -0.239159D+00
      6   0.000000D+00  0.000000D+00  0.000000D+00  0.000000D+00  0.000000D+00
      7   0.000000D+00 -0.862206D-01  0.000000D+00 -0.164414D+00  0.000000D+00
      8   0.000000D+00  0.000000D+00  0.000000D+00  0.000000D+00  0.000000D+00
      9   0.000000D+00  0.000000D+00  0.135218D+00  0.000000D+00  0.150270D+00
     10  -0.294298D+00  0.000000D+00  0.000000D+00  0.000000D+00  0.000000D+00
     11   0.000000D+00  0.115106D+01  0.000000D+00  0.127611D+00  0.000000D+00
     12   0.000000D+00  0.480591D+00  0.000000D+00 -0.329817D+00  0.000000D+00
     13   0.000000D+00  0.103777D+01  0.000000D+00  0.203905D+00  0.000000D+00
     14   0.770481D+00  0.000000D+00  0.000000D+00  0.000000D+00  0.000000D+00
     15   0.000000D+00  0.000000D+00 -0.211489D-01  0.000000D+00  0.573288D+00
     16   0.000000D+00  0.000000D+00  0.000000D+00  0.000000D+00  0.000000D+00
               111           112           113           114           115 
      1  -0.736009D+02 -0.735284D+02 -0.734913D+02 -0.734705D+02 -0.731659D+02
      2   0.000000D+00  0.000000D+00  0.000000D+00  0.000000D+00  0.000000D+00
      3   0.000000D+00  0.853204D-01 -0.337122D-02  0.000000D+00 -0.911476D-01
      4   0.127675D+00  0.000000D+00  0.000000D+00  0.394270D-01  0.000000D+00
      5   0.000000D+00  0.000000D+00  0.000000D+00  0.000000D+00  0.000000D+00
      6   0.000000D+00 -0.294353D+00 -0.924008D-04  0.000000D+00  0.340628D+00
      7  -0.327408D+00  0.000000D+00  0.000000D+00 -0.325746D-01  0.000000D+00
      8   0.000000D+00  0.958414D-01  0.259352D+00  0.000000D+00 -0.874273D-01
      9   0.000000D+00  0.000000D+00  0.000000D+00  0.000000D+00  0.000000D+00
     10   0.000000D+00  0.000000D+00  0.000000D+00  0.000000D+00  0.000000D+00
     11   0.735404D+00  0.000000D+00  0.000000D+00 -0.536434D+00  0.000000D+00
     12  -0.269869D+00  0.000000D+00  0.000000D+00 -0.634133D+00  0.000000D+00
     13  -0.683721D-01  0.000000D+00  0.000000D+00  0.609623D+00  0.000000D+00
     14   0.000000D+00  0.000000D+00  0.000000D+00  0.000000D+00  0.000000D+00
     15   0.000000D+00  0.000000D+00  0.000000D+00  0.000000D+00  0.000000D+00
     16   0.000000D+00 -0.431814D+00  0.676921D-01  0.000000D+00 -0.524926D-01
               116           117           118           119           120 
      1  -0.730992D+02 -0.730417D+02 -0.730307D+02 -0.730259D+02 -0.730255D+02
      2   0.000000D+00 -0.199297D+00  0.000000D+00  0.000000D+00  0.000000D+00
      3   0.000000D+00  0.000000D+00  0.000000D+00 -0.304841D+00  0.000000D+00
      4  -0.272256D+00  0.000000D+00 -0.848507D-01  0.000000D+00  0.000000D+00
      5   0.000000D+00  0.547446D+00  0.000000D+00  0.000000D+00  0.000000D+00
      6   0.000000D+00  0.000000D+00  0.000000D+00  0.905844D+00  0.000000D+00
      7   0.759324D+00  0.000000D+00  0.308359D+00  0.000000D+00  0.000000D+00
      8   0.000000D+00  0.000000D+00  0.000000D+00 -0.127502D+00  0.000000D+00
      9   0.000000D+00  0.116385D+00  0.000000D+00  0.000000D+00  0.000000D+00
     10   0.000000D+00  0.000000D+00  0.000000D+00  0.000000D+00 -0.585187D-01
     11  -0.174787D+00  0.000000D+00  0.363383D+00  0.000000D+00  0.000000D+00
     12   0.461309D+00  0.000000D+00 -0.172752D+00  0.000000D+00  0.000000D+00
     13   0.247318D+00  0.000000D+00 -0.245458D+00  0.000000D+00  0.000000D+00
     14   0.000000D+00  0.000000D+00  0.000000D+00  0.000000D+00  0.577277D+00
     15   0.000000D+00  0.270175D+00  0.000000D+00  0.000000D+00  0.000000D+00
     16   0.000000D+00  0.000000D+00  0.000000D+00  0.507926D+00  0.000000D+00
               121           122           123           124           125 
      1  -0.729518D+02 -0.729440D+02 -0.728064D+02 -0.727779D+02 -0.727054D+02
      2   0.880565D-01  0.000000D+00 -0.281719D+00  0.000000D+00  0.000000D+00
      3   0.000000D+00  0.000000D+00  0.000000D+00  0.000000D+00  0.170010D+00
      4   0.000000D+00  0.000000D+00  0.000000D+00 -0.351847D+00  0.000000D+00
      5  -0.268588D+00  0.000000D+00  0.860105D+00  0.000000D+00  0.000000D+00
      6   0.000000D+00  0.000000D+00  0.000000D+00  0.000000D+00 -0.584647D+00
      7   0.000000D+00  0.000000D+00  0.000000D+00  0.113629D+01  0.000000D+00
      8   0.000000D+00  0.000000D+00  0.000000D+00  0.000000D+00  0.197709D+00
      9  -0.411904D-01  0.000000D+00  0.198835D+00  0.000000D+00  0.000000D+00
     10   0.000000D+00 -0.641969D-01  0.000000D+00  0.000000D+00  0.000000D+00
     11   0.000000D+00  0.000000D+00  0.000000D+00 -0.278708D+00  0.000000D+00
     12   0.000000D+00  0.000000D+00  0.000000D+00 -0.249683D+00  0.000000D+00
     13   0.000000D+00  0.000000D+00  0.000000D+00  0.121144D+01  0.000000D+00
     14   0.000000D+00  0.439585D+00  0.000000D+00  0.000000D+00  0.000000D+00
     15  -0.212317D+00  0.000000D+00  0.644231D+00  0.000000D+00  0.000000D+00
     16   0.000000D+00  0.000000D+00  0.000000D+00  0.000000D+00 -0.104474D+00
               126           127           128           129           130 
      1  -0.724519D+02 -0.724373D+02 -0.724208D+02 -0.723717D+02 -0.722722D+02
      2   0.275932D+00  0.000000D+00  0.207627D+00  0.000000D+00  0.000000D+00
      3   0.000000D+00  0.000000D+00  0.000000D+00  0.000000D+00 -0.143641D+00
      4   0.000000D+00 -0.603254D-01  0.000000D+00  0.000000D+00  0.000000D+00
      5  -0.970268D+00  0.000000D+00 -0.729571D+00  0.000000D+00  0.000000D+00
      6   0.000000D+00  0.000000D+00  0.000000D+00  0.000000D+00  0.520056D+00
      7   0.000000D+00  0.167103D+00  0.000000D+00  0.000000D+00  0.000000D+00
      8   0.000000D+00  0.000000D+00  0.000000D+00  0.000000D+00 -0.109064D+00
      9  -0.159314D+00  0.000000D+00 -0.125722D+00  0.000000D+00  0.000000D+00
     10   0.000000D+00  0.000000D+00  0.000000D+00 -0.973769D-02  0.000000D+00
     11   0.000000D+00 -0.250516D+00  0.000000D+00  0.000000D+00  0.000000D+00
     12   0.000000D+00  0.470086D+00  0.000000D+00  0.000000D+00  0.000000D+00
     13   0.000000D+00 -0.496252D-01  0.000000D+00  0.000000D+00  0.000000D+00
     14   0.000000D+00  0.000000D+00  0.000000D+00  0.388454D+00  0.000000D+00
     15  -0.713511D+00  0.000000D+00  0.123012D+00  0.000000D+00  0.000000D+00
     16   0.000000D+00  0.000000D+00  0.000000D+00  0.000000D+00  0.381772D+00
               131           132           133           134           135 
      1  -0.722278D+02 -0.721241D+02 -0.719980D+02 -0.718563D+02 -0.718032D+02
      2   0.000000D+00  0.000000D+00  0.000000D+00  0.000000D+00  0.000000D+00
      3   0.000000D+00  0.000000D+00  0.234045D+00  0.000000D+00  0.000000D+00
      4   0.452788D-01  0.000000D+00  0.000000D+00  0.173239D+00 -0.662405D-01
      5   0.000000D+00  0.000000D+00  0.000000D+00  0.000000D+00  0.000000D+00
      6   0.000000D+00  0.000000D+00 -0.920649D+00  0.000000D+00  0.000000D+00
      7  -0.175925D+00  0.000000D+00  0.000000D+00 -0.707144D+00  0.267526D+00
      8   0.000000D+00  0.000000D+00  0.146663D+00  0.000000D+00  0.000000D+00
      9   0.000000D+00  0.000000D+00  0.000000D+00  0.000000D+00  0.000000D+00
     10   0.000000D+00  0.246105D-01  0.000000D+00  0.000000D+00  0.000000D+00
     11  -0.133298D+00  0.000000D+00  0.000000D+00  0.154232D+00 -0.434258D+00
     12  -0.105512D+00  0.000000D+00  0.000000D+00 -0.187153D+00  0.203406D+00
     13   0.220119D+00  0.000000D+00  0.000000D+00 -0.624897D+00  0.214435D+00
     14   0.000000D+00  0.297388D+00  0.000000D+00  0.000000D+00  0.000000D+00
     15   0.000000D+00  0.000000D+00  0.000000D+00  0.000000D+00  0.000000D+00
     16   0.000000D+00  0.000000D+00 -0.532370D+00  0.000000D+00  0.000000D+00
               136 
      1  -0.714034D+02
      2   0.000000D+00
      3   0.273295D-01
      4   0.000000D+00
      5   0.000000D+00
      6  -0.963607D-01
      7   0.000000D+00
      8   0.129962D-01
      9   0.000000D+00
     10   0.000000D+00
     11   0.000000D+00
     12   0.000000D+00
     13   0.000000D+00
     14   0.000000D+00
     15   0.000000D+00
     16  -0.235585D+00
 Unable to Open any file for archive entry.
 1\1\GINC-HEL01\SP\RwB97XD TD-FC\Gen\H2O1\RR\21-Mar-2022\0\\#P TD(Nstat
 es=10000) wB97XD/Gen SCF(maxcycles=100) Int(Grid=ultrafine)\\xGDB7_000
 01_tier4.com\\0,1\O,0,0.,0.,0.116015\H,0,0.,0.761895,-0.464058\H,0,0.,
 -0.761895,-0.464058\\Version=EM64L-G16RevC.01\State=1-A1\HF=-76.355536
 6\RMSD=9.358e-09\PG=C02V [C2(O1),SGV(H2)]\\@
 The archive entry for this job was punched.


 Sorry, no quote for you today!
 Job cpu time:       0 days  0 hours  0 minutes 17.8 seconds.
 Elapsed time:       0 days  0 hours  0 minutes  2.6 seconds.
 File lengths (MBytes):  RWF=     27 Int=      0 D2E=      0 Chk=      6 Scr=      1
 Normal termination of Gaussian 16 at Mon Mar 21 16:01:29 2022.
