 Entering Gaussian System, Link 0=g16
 Input=000026.com
 Output=000026.log
 Initial command:
 /home/sabyasachi/g16/l1.exe "/scratch/sabyasachi/PBS_7976226.helios/Gau-156901.inp" -scrdir="/scratch/sabyasachi/PBS_7976226.helios/"
 Entering Link 1 = /home/sabyasachi/g16/l1.exe PID=    156902.
  
 Copyright (c) 1988-2019, Gaussian, Inc.  All Rights Reserved.
  
 This is part of the Gaussian(R) 16 program.  It is based on
 the Gaussian(R) 09 system (copyright 2009, Gaussian, Inc.),
 the Gaussian(R) 03 system (copyright 2003, Gaussian, Inc.),
 the Gaussian(R) 98 system (copyright 1998, Gaussian, Inc.),
 the Gaussian(R) 94 system (copyright 1995, Gaussian, Inc.),
 the Gaussian 92(TM) system (copyright 1992, Gaussian, Inc.),
 the Gaussian 90(TM) system (copyright 1990, Gaussian, Inc.),
 the Gaussian 88(TM) system (copyright 1988, Gaussian, Inc.),
 the Gaussian 86(TM) system (copyright 1986, Carnegie Mellon
 University), and the Gaussian 82(TM) system (copyright 1983,
 Carnegie Mellon University). Gaussian is a federally registered
 trademark of Gaussian, Inc.
  
 This software contains proprietary and confidential information,
 including trade secrets, belonging to Gaussian, Inc.
  
 This software is provided under written license and may be
 used, copied, transmitted, or stored only in accord with that
 written license.
  
 The following legend is applicable only to US Government
 contracts under FAR:
  
                    RESTRICTED RIGHTS LEGEND
  
 Use, reproduction and disclosure by the US Government is
 subject to restrictions as set forth in subparagraphs (a)
 and (c) of the Commercial Computer Software - Restricted
 Rights clause in FAR 52.227-19.
  
 Gaussian, Inc.
 340 Quinnipiac St., Bldg. 40, Wallingford CT 06492
  
  
 ---------------------------------------------------------------
 Warning -- This program may not be used in any manner that
 competes with the business of Gaussian, Inc. or will provide
 assistance to any competitor of Gaussian, Inc.  The licensee
 of this program is prohibited from giving any competitor of
 Gaussian, Inc. access to this program.  By using this program,
 the user acknowledges that Gaussian, Inc. is engaged in the
 business of creating and licensing software in the field of
 computational chemistry and represents and warrants to the
 licensee that it is not a competitor of Gaussian, Inc. and that
 it will not use this program in any manner prohibited above.
 ---------------------------------------------------------------
  

 Cite this work as:
 Gaussian 16, Revision C.01,
 M. J. Frisch, G. W. Trucks, H. B. Schlegel, G. E. Scuseria, 
 M. A. Robb, J. R. Cheeseman, G. Scalmani, V. Barone, 
 G. A. Petersson, H. Nakatsuji, X. Li, M. Caricato, A. V. Marenich, 
 J. Bloino, B. G. Janesko, R. Gomperts, B. Mennucci, H. P. Hratchian, 
 J. V. Ortiz, A. F. Izmaylov, J. L. Sonnenberg, D. Williams-Young, 
 F. Ding, F. Lipparini, F. Egidi, J. Goings, B. Peng, A. Petrone, 
 T. Henderson, D. Ranasinghe, V. G. Zakrzewski, J. Gao, N. Rega, 
 G. Zheng, W. Liang, M. Hada, M. Ehara, K. Toyota, R. Fukuda, 
 J. Hasegawa, M. Ishida, T. Nakajima, Y. Honda, O. Kitao, H. Nakai, 
 T. Vreven, K. Throssell, J. A. Montgomery, Jr., J. E. Peralta, 
 F. Ogliaro, M. J. Bearpark, J. J. Heyd, E. N. Brothers, K. N. Kudin, 
 V. N. Staroverov, T. A. Keith, R. Kobayashi, J. Normand, 
 K. Raghavachari, A. P. Rendell, J. C. Burant, S. S. Iyengar, 
 J. Tomasi, M. Cossi, J. M. Millam, M. Klene, C. Adamo, R. Cammi, 
 J. W. Ochterski, R. L. Martin, K. Morokuma, O. Farkas, 
 J. B. Foresman, and D. J. Fox, Gaussian, Inc., Wallingford CT, 2019.
 
 ******************************************
 Gaussian 16:  EM64L-G16RevC.01  3-Jul-2019
                21-Mar-2022 
 ******************************************
 %mem=64gb
 %nproc=8
 Will use up to    8 processors via shared memory.
 ----------------------------------------------------------------------
 #P TD(Nstates=10000) lc-blyp/Gen SCF(maxcycles=100) Int(Grid=ultrafine
 )
 ----------------------------------------------------------------------
 1/38=1,172=1/1;
 2/12=2,17=6,18=5,40=1/2;
 3/5=7,11=9,25=1,30=1,74=1000402,75=-5/1,2,3,8;
 4//1;
 5/5=2,7=100,38=5/2;
 8/6=1,10=1,108=10000/1;
 9/41=10000,42=1,70=2/14;
 6/7=2,8=2,9=2,10=2/1;
 99/5=1,9=1/99;
 Leave Link    1 at Mon Mar 21 20:18:51 2022, MaxMem=  8589934592 cpu:               0.3 elap:               0.0
 (Enter /home/sabyasachi/g16/l101.exe)
 ---------------------
 xGDB7_00001_tier4.com
 ---------------------
 Symbolic Z-matrix:
 Charge =  0 Multiplicity = 1
 8                    -1.0238   -0.43879   0. 
 6                     0.        0.41895   0. 
 8                     1.15299   0.10998   0. 
 1                    -0.65694  -1.33301   0. 
 1                    -0.3765    1.44977   0. 
 
 ITRead=  0  0  0  0  0
 MicOpt= -1 -1 -1 -1 -1
 NAtoms=      5 NQM=        5 NQMF=       0 NMMI=      0 NMMIF=      0
                NMic=       0 NMicF=      0.
                    Isotopes and Nuclear Properties:
 (Nuclear quadrupole moments (NQMom) in fm**2, nuclear magnetic moments (NMagM)
  in nuclear magnetons)

  Atom         1           2           3           4           5
 IAtWgt=          16          12          16           1           1
 AtmWgt=  15.9949146  12.0000000  15.9949146   1.0078250   1.0078250
 NucSpn=           0           0           0           1           1
 AtZEff=  -0.0000000  -0.0000000  -0.0000000  -0.0000000  -0.0000000
 NQMom=    0.0000000   0.0000000   0.0000000   0.0000000   0.0000000
 NMagM=    0.0000000   0.0000000   0.0000000   2.7928460   2.7928460
 AtZNuc=   8.0000000   6.0000000   8.0000000   1.0000000   1.0000000
 Leave Link  101 at Mon Mar 21 20:18:51 2022, MaxMem=  8589934592 cpu:               0.6 elap:               0.1
 (Enter /home/sabyasachi/g16/l202.exe)
                          Input orientation:                          
 ---------------------------------------------------------------------
 Center     Atomic      Atomic             Coordinates (Angstroms)
 Number     Number       Type             X           Y           Z
 ---------------------------------------------------------------------
      1          8           0       -1.023804   -0.438792    0.000000
      2          6           0        0.000000    0.418952    0.000000
      3          8           0        1.152985    0.109983    0.000000
      4          1           0       -0.656942   -1.333012    0.000000
      5          1           0       -0.376499    1.449770    0.000000
 ---------------------------------------------------------------------
                    Distance matrix (angstroms):
                    1          2          3          4          5
     1  O    0.000000
     2  C    1.335627   0.000000
     3  O    2.244897   1.193665   0.000000
     4  H    0.966549   1.871083   2.314751   0.000000
     5  H    1.996414   1.097423   2.033310   2.796878   0.000000
 Stoichiometry    CH2O2
 Framework group  CS[SG(CH2O2)]
 Deg. of freedom     7
 Full point group                 CS      NOp   2
 Largest Abelian subgroup         CS      NOp   2
 Largest concise Abelian subgroup C1      NOp   1
                         Standard orientation:                         
 ---------------------------------------------------------------------
 Center     Atomic      Atomic             Coordinates (Angstroms)
 Number     Number       Type             X           Y           Z
 ---------------------------------------------------------------------
      1          8           0       -1.023805   -0.438791    0.000000
      2          6           0       -0.000000    0.418952    0.000000
      3          8           0        1.152985    0.109982   -0.000000
      4          1           0       -0.656943   -1.333011    0.000000
      5          1           0       -0.376498    1.449770    0.000000
 ---------------------------------------------------------------------
 Rotational constants (GHZ):          78.3457848          12.2009615          10.5569106
 Leave Link  202 at Mon Mar 21 20:18:51 2022, MaxMem=  8589934592 cpu:               0.1 elap:               0.0
 (Enter /home/sabyasachi/g16/l301.exe)
 General basis read from cards:  (5D, 7F)
 Centers:       4      5
 S 3 1.00
     Exponent=  1.3010701000D+01 Coefficients=  1.9682158000D-02
     Exponent=  1.9622572000D+00 Coefficients=  1.3796524000D-01
     Exponent=  4.4453796000D-01 Coefficients=  4.7831935000D-01
 S 1 1.00
     Exponent=  1.2194962000D-01 Coefficients=  1.0000000000D+00
 P 1 1.00
     Exponent=  8.0000000000D-01 Coefficients=  1.0000000000D+00
 P 1 1.00
     Exponent=  1.1704099050D-01 Coefficients=  1.0000000000D+00
 ****
 Centers:       2
 S 5 1.00
     Exponent=  1.2384016938D+03 Coefficients=  5.4568832082D-03
     Exponent=  1.8629004992D+02 Coefficients=  4.0638409211D-02
     Exponent=  4.2251176346D+01 Coefficients=  1.8025593888D-01
     Exponent=  1.1676557932D+01 Coefficients=  4.6315121755D-01
     Exponent=  3.5930506482D+00 Coefficients=  4.4087173314D-01
 S 1 1.00
     Exponent=  4.0245147363D-01 Coefficients=  1.0000000000D+00
 S 1 1.00
     Exponent=  1.3090182668D-01 Coefficients=  1.0000000000D+00
 S 1 1.00
     Exponent=  6.7053540256D-02 Coefficients=  1.0000000000D+00
 P 3 1.00
     Exponent=  9.4680970621D+00 Coefficients=  3.8387871728D-02
     Exponent=  2.0103545142D+00 Coefficients=  2.1117025112D-01
     Exponent=  5.4771004707D-01 Coefficients=  5.1328172114D-01
 P 1 1.00
     Exponent=  1.5268613795D-01 Coefficients=  1.0000000000D+00
 D 1 1.00
     Exponent=  8.0000000000D-01 Coefficients=  1.0000000000D+00
 D 1 1.00
     Exponent=  1.1713185140D-01 Coefficients=  1.0000000000D+00
 ****
 Centers:       1      3
 S 5 1.00
     Exponent=  2.2661767785D+03 Coefficients= -5.3431809926D-03
     Exponent=  3.4087010191D+02 Coefficients= -3.9890039230D-02
     Exponent=  7.7363135167D+01 Coefficients= -1.7853911985D-01
     Exponent=  2.1479644940D+01 Coefficients= -4.6427684959D-01
     Exponent=  6.6589433124D+00 Coefficients= -4.4309745172D-01
 S 1 1.00
     Exponent=  8.0975975668D-01 Coefficients=  1.0000000000D+00
 S 1 1.00
     Exponent=  2.5530772234D-01 Coefficients=  1.0000000000D+00
 S 1 1.00
     Exponent=  7.6572453250D-02 Coefficients=  1.0000000000D+00
 P 3 1.00
     Exponent=  1.7721504317D+01 Coefficients=  4.3394573193D-02
     Exponent=  3.8635505440D+00 Coefficients=  2.3094120765D-01
     Exponent=  1.0480920883D+00 Coefficients=  5.1375311064D-01
 P 1 1.00
     Exponent=  2.7641544411D-01 Coefficients=  1.0000000000D+00
 P 1 1.00
     Exponent=  6.9002276350D-02 Coefficients=  1.0000000000D+00
 D 1 1.00
     Exponent=  1.2000000000D+00 Coefficients=  1.0000000000D+00
 D 1 1.00
     Exponent=  1.7992024323D-01 Coefficients=  1.0000000000D+00
 ****
 Ernie: Thresh=  0.10000D-02 Tol=  0.10000D-05 Strict=F.
 There are    64 symmetry adapted cartesian basis functions of A'  symmetry.
 There are    24 symmetry adapted cartesian basis functions of A"  symmetry.
 There are    58 symmetry adapted basis functions of A'  symmetry.
 There are    24 symmetry adapted basis functions of A"  symmetry.
    82 basis functions,   122 primitive gaussians,    88 cartesian basis functions
    12 alpha electrons       12 beta electrons
       nuclear repulsion energy        70.5741297168 Hartrees.
 IExCor=10402 DFT=T Ex=LC-B+HF Corr=LYP ExCW=0 ScaHFX=  1.000000
 ScaDFX=  1.000000  1.000000  1.000000  1.000000 ScalE2=  1.000000  1.000000
 IRadAn=      5 IRanWt=     -1 IRanGd=            0 ICorTp=0 IEmpDi=  4
 HFx  wShort=  0.000000 wLong=  0.470000 cFull=  0.000000 cShort=  0.000000 cLong=  1.000000
 DFx  wShort=  0.000000 wLong=  0.470000 cFull=  0.000000 cShort=  0.000000 cLong=  1.000000
 NAtoms=    5 NActive=    5 NUniq=    5 SFac= 1.00D+00 NAtFMM=   60 NAOKFM=F Big=F
 Integral buffers will be    131072 words long.
 Raffenetti 1 integral format.
 Two-electron integral symmetry is turned on.
 Leave Link  301 at Mon Mar 21 20:18:52 2022, MaxMem=  8589934592 cpu:               0.6 elap:               0.1
 (Enter /home/sabyasachi/g16/l302.exe)
 NPDir=0 NMtPBC=     1 NCelOv=     1 NCel=       1 NClECP=     1 NCelD=      1
         NCelK=      1 NCelE2=     1 NClLst=     1 CellRange=     0.0.
 One-electron integrals computed using PRISM.
 One-electron integral symmetry used in STVInt
 NBasis=    82 RedAO= T EigKep=  3.68D-04  NBF=    58    24
 NBsUse=    82 1.00D-06 EigRej= -1.00D+00 NBFU=    58    24
 Precomputing XC quadrature grid using
 IXCGrd= 4 IRadAn=           5 IRanWt=          -1 IRanGd=           0 AccXCQ= 0.00D+00.
 Generated NRdTot=       0 NPtTot=           0 NUsed=           0 NTot=          32
 NSgBfM=    88    88    88    88    88 MxSgAt=     5 MxSgA2=     5.
 Leave Link  302 at Mon Mar 21 20:18:52 2022, MaxMem=  8589934592 cpu:               0.9 elap:               0.1
 (Enter /home/sabyasachi/g16/l303.exe)
 DipDrv:  MaxL=1.
 Leave Link  303 at Mon Mar 21 20:18:52 2022, MaxMem=  8589934592 cpu:               0.2 elap:               0.0
 (Enter /home/sabyasachi/g16/l308.exe)
 Leave Link  308 at Mon Mar 21 20:18:52 2022, MaxMem=  8589934592 cpu:               0.2 elap:               0.1
 (Enter /home/sabyasachi/g16/l401.exe)
 ExpMin= 6.71D-02 ExpMax= 2.27D+03 ExpMxC= 3.41D+02 IAcc=3 IRadAn=         5 AccDes= 0.00D+00
 Harris functional with IExCor=10402 and IRadAn=       5 diagonalized for initial guess.
 HarFok:  IExCor=10402 AccDes= 0.00D+00 IRadAn=         5 IDoV= 1 UseB2=F ITyADJ=14
 ICtDFT=  3500011 ScaDFX=  1.000000  1.000000  1.000000  1.000000
 FoFCou: FMM=F IPFlag=           0 FMFlag=      100000 FMFlg1=           0
         NFxFlg=           0 DoJE=T BraDBF=F KetDBF=T FulRan=T
         wScrn=  0.000000 ICntrl=       500 IOpCl=  0 I1Cent=   200000004 NGrid=           0
         NMat0=    1 NMatS0=      1 NMatT0=    0 NMatD0=    1 NMtDS0=    0 NMtDT0=    0
 Petite list used in FoFCou.
 Harris En= -183.706675614877    
 JPrj=0 DoOrth=F DoCkMO=F.
 Initial guess orbital symmetries:
       Occupied  (A') (A') (A') (A') (A') (A') (A') (A') (A") (A')
                 (A") (A')
       Virtual   (A') (A') (A") (A') (A") (A') (A') (A") (A') (A')
                 (A') (A") (A') (A") (A') (A') (A') (A') (A") (A')
                 (A') (A") (A') (A') (A') (A") (A') (A') (A') (A")
                 (A") (A') (A') (A") (A') (A") (A') (A') (A') (A')
                 (A') (A") (A") (A') (A') (A') (A") (A') (A') (A')
                 (A") (A') (A") (A') (A') (A') (A") (A') (A') (A')
                 (A") (A') (A") (A") (A') (A") (A') (A') (A') (A')
 The electronic state of the initial guess is 1-A'.
 Leave Link  401 at Mon Mar 21 20:18:52 2022, MaxMem=  8589934592 cpu:               1.7 elap:               0.2
 (Enter /home/sabyasachi/g16/l502.exe)
 Keep R1 ints in memory in symmetry-blocked form, NReq=19191110.
 FoFCou: FMM=F IPFlag=           0 FMFlag=           0 FMFlg1=           0
         NFxFlg=           0 DoJE=F BraDBF=F KetDBF=F FulRan=T
         wScrn=  0.000000 ICntrl=       600 IOpCl=  0 I1Cent=           0 NGrid=           0
         NMat0=    1 NMatS0=   3403 NMatT0=    0 NMatD0=    1 NMtDS0=    0 NMtDT0=    0
 Petite list used in FoFCou.
 Closed shell SCF:
 Using DIIS extrapolation, IDIIS=  1040.
 NGot=  8589934592 LenX=  8586916656 LenY=  8586908471
 Requested convergence on RMS density matrix=1.00D-08 within 100 cycles.
 Requested convergence on MAX density matrix=1.00D-06.
 Requested convergence on             energy=1.00D-06.
 No special actions if energy rises.
 Integral accuracy reduced to 1.0D-05 until final iterations.

 Cycle   1  Pass 0  IDiag  1:
 E= -189.212889502636    
 DIIS: error= 1.22D-02 at cycle   1 NSaved=   1.
 NSaved= 1 IEnMin= 1 EnMin= -189.212889502636     IErMin= 1 ErrMin= 1.22D-02
 ErrMax= 1.22D-02  0.00D+00 EMaxC= 1.00D-01 BMatC= 2.64D-02 BMatP= 2.64D-02
 IDIUse=3 WtCom= 8.78D-01 WtEn= 1.22D-01
 Coeff-Com:  0.100D+01
 Coeff-En:   0.100D+01
 Coeff:      0.100D+01
 Gap=     0.479 Goal=   None    Shift=    0.000
 GapD=    0.479 DampG=2.000 DampE=0.500 DampFc=1.0000 IDamp=-1.
 RMSDP=7.14D-03 MaxDP=2.72D-01              OVMax= 9.39D-02

 Cycle   2  Pass 0  IDiag  1:
 E= -189.222330473384     Delta-E=       -0.009440970748 Rises=F Damp=F
 DIIS: error= 1.18D-02 at cycle   2 NSaved=   2.
 NSaved= 2 IEnMin= 2 EnMin= -189.222330473384     IErMin= 2 ErrMin= 1.18D-02
 ErrMax= 1.18D-02  0.00D+00 EMaxC= 1.00D-01 BMatC= 2.60D-02 BMatP= 2.64D-02
 IDIUse=3 WtCom= 8.82D-01 WtEn= 1.18D-01
 Coeff-Com:  0.498D+00 0.502D+00
 Coeff-En:   0.344D+00 0.656D+00
 Coeff:      0.480D+00 0.520D+00
 Gap=     0.520 Goal=   None    Shift=    0.000
 RMSDP=2.21D-03 MaxDP=5.24D-02 DE=-9.44D-03 OVMax= 3.76D-02

 Cycle   3  Pass 0  IDiag  1:
 E= -189.239854353274     Delta-E=       -0.017523879891 Rises=F Damp=F
 DIIS: error= 3.26D-03 at cycle   3 NSaved=   3.
 NSaved= 3 IEnMin= 3 EnMin= -189.239854353274     IErMin= 3 ErrMin= 3.26D-03
 ErrMax= 3.26D-03  0.00D+00 EMaxC= 1.00D-01 BMatC= 1.28D-03 BMatP= 2.60D-02
 IDIUse=3 WtCom= 9.67D-01 WtEn= 3.26D-02
 Coeff-Com:  0.306D-01 0.177D+00 0.793D+00
 Coeff-En:   0.000D+00 0.000D+00 0.100D+01
 Coeff:      0.296D-01 0.171D+00 0.800D+00
 Gap=     0.506 Goal=   None    Shift=    0.000
 RMSDP=9.41D-04 MaxDP=2.60D-02 DE=-1.75D-02 OVMax= 1.63D-02

 Cycle   4  Pass 0  IDiag  1:
 E= -189.240873160543     Delta-E=       -0.001018807268 Rises=F Damp=F
 DIIS: error= 9.83D-04 at cycle   4 NSaved=   4.
 NSaved= 4 IEnMin= 4 EnMin= -189.240873160543     IErMin= 4 ErrMin= 9.83D-04
 ErrMax= 9.83D-04  0.00D+00 EMaxC= 1.00D-01 BMatC= 1.44D-04 BMatP= 1.28D-03
 IDIUse=3 WtCom= 9.90D-01 WtEn= 9.83D-03
 Coeff-Com: -0.482D-01 0.455D-02 0.299D+00 0.745D+00
 Coeff-En:   0.000D+00 0.000D+00 0.000D+00 0.100D+01
 Coeff:     -0.477D-01 0.451D-02 0.296D+00 0.747D+00
 Gap=     0.509 Goal=   None    Shift=    0.000
 RMSDP=4.02D-04 MaxDP=1.07D-02 DE=-1.02D-03 OVMax= 4.65D-03

 Cycle   5  Pass 0  IDiag  1:
 E= -189.241005105178     Delta-E=       -0.000131944635 Rises=F Damp=F
 DIIS: error= 3.94D-04 at cycle   5 NSaved=   5.
 NSaved= 5 IEnMin= 5 EnMin= -189.241005105178     IErMin= 5 ErrMin= 3.94D-04
 ErrMax= 3.94D-04  0.00D+00 EMaxC= 1.00D-01 BMatC= 1.40D-05 BMatP= 1.44D-04
 IDIUse=3 WtCom= 9.96D-01 WtEn= 3.94D-03
 Coeff-Com: -0.146D-01-0.103D-01 0.347D-01 0.264D+00 0.726D+00
 Coeff-En:   0.000D+00 0.000D+00 0.000D+00 0.000D+00 0.100D+01
 Coeff:     -0.145D-01-0.102D-01 0.345D-01 0.263D+00 0.727D+00
 Gap=     0.510 Goal=   None    Shift=    0.000
 RMSDP=9.66D-05 MaxDP=2.26D-03 DE=-1.32D-04 OVMax= 2.04D-03

 Cycle   6  Pass 0  IDiag  1:
 E= -189.241021981984     Delta-E=       -0.000016876806 Rises=F Damp=F
 DIIS: error= 1.10D-04 at cycle   6 NSaved=   6.
 NSaved= 6 IEnMin= 6 EnMin= -189.241021981984     IErMin= 6 ErrMin= 1.10D-04
 ErrMax= 1.10D-04  0.00D+00 EMaxC= 1.00D-01 BMatC= 1.38D-06 BMatP= 1.40D-05
 IDIUse=3 WtCom= 9.99D-01 WtEn= 1.10D-03
 Coeff-Com:  0.321D-02-0.472D-02-0.373D-01-0.838D-01 0.800D-01 0.104D+01
 Coeff-En:   0.000D+00 0.000D+00 0.000D+00 0.000D+00 0.000D+00 0.100D+01
 Coeff:      0.321D-02-0.471D-02-0.372D-01-0.837D-01 0.799D-01 0.104D+01
 Gap=     0.510 Goal=   None    Shift=    0.000
 RMSDP=4.99D-05 MaxDP=1.25D-03 DE=-1.69D-05 OVMax= 1.19D-03

 Cycle   7  Pass 0  IDiag  1:
 E= -189.241025589743     Delta-E=       -0.000003607759 Rises=F Damp=F
 DIIS: error= 2.95D-05 at cycle   7 NSaved=   7.
 NSaved= 7 IEnMin= 7 EnMin= -189.241025589743     IErMin= 7 ErrMin= 2.95D-05
 ErrMax= 2.95D-05  0.00D+00 EMaxC= 1.00D-01 BMatC= 1.46D-07 BMatP= 1.38D-06
 IDIUse=1 WtCom= 1.00D+00 WtEn= 0.00D+00
 Coeff-Com:  0.211D-02 0.448D-03-0.283D-02-0.370D-01-0.678D-01 0.657D-01
 Coeff-Com:  0.104D+01
 Coeff:      0.211D-02 0.448D-03-0.283D-02-0.370D-01-0.678D-01 0.657D-01
 Coeff:      0.104D+01
 Gap=     0.510 Goal=   None    Shift=    0.000
 RMSDP=1.11D-05 MaxDP=1.52D-04 DE=-3.61D-06 OVMax= 3.99D-04

 Cycle   8  Pass 0  IDiag  1:
 E= -189.241025939145     Delta-E=       -0.000000349402 Rises=F Damp=F
 DIIS: error= 8.09D-06 at cycle   8 NSaved=   8.
 NSaved= 8 IEnMin= 8 EnMin= -189.241025939145     IErMin= 8 ErrMin= 8.09D-06
 ErrMax= 8.09D-06  0.00D+00 EMaxC= 1.00D-01 BMatC= 1.15D-08 BMatP= 1.46D-07
 IDIUse=1 WtCom= 1.00D+00 WtEn= 0.00D+00
 Coeff-Com: -0.304D-03 0.406D-04 0.372D-02 0.685D-02-0.244D-02-0.103D+00
 Coeff-Com: -0.297D-01 0.113D+01
 Coeff:     -0.304D-03 0.406D-04 0.372D-02 0.685D-02-0.244D-02-0.103D+00
 Coeff:     -0.297D-01 0.113D+01
 Gap=     0.510 Goal=   None    Shift=    0.000
 RMSDP=5.00D-06 MaxDP=8.21D-05 DE=-3.49D-07 OVMax= 1.13D-04

 Initial convergence to 1.0D-05 achieved.  Increase integral accuracy.
 Cycle   9  Pass 1  IDiag  1:
 E= -189.241024619444     Delta-E=        0.000001319702 Rises=F Damp=F
 DIIS: error= 1.05D-06 at cycle   1 NSaved=   1.
 NSaved= 1 IEnMin= 1 EnMin= -189.241024619444     IErMin= 1 ErrMin= 1.05D-06
 ErrMax= 1.05D-06  0.00D+00 EMaxC= 1.00D-01 BMatC= 2.18D-10 BMatP= 2.18D-10
 IDIUse=1 WtCom= 1.00D+00 WtEn= 0.00D+00
 Coeff-Com:  0.100D+01
 Coeff:      0.100D+01
 Gap=     0.510 Goal=   None    Shift=    0.000
 RMSDP=5.00D-06 MaxDP=8.21D-05 DE= 1.32D-06 OVMax= 7.45D-06

 Cycle  10  Pass 1  IDiag  1:
 E= -189.241024619887     Delta-E=       -0.000000000443 Rises=F Damp=F
 DIIS: error= 5.86D-07 at cycle   2 NSaved=   2.
 NSaved= 2 IEnMin= 2 EnMin= -189.241024619887     IErMin= 2 ErrMin= 5.86D-07
 ErrMax= 5.86D-07  0.00D+00 EMaxC= 1.00D-01 BMatC= 2.37D-11 BMatP= 2.18D-10
 IDIUse=1 WtCom= 1.00D+00 WtEn= 0.00D+00
 Coeff-Com: -0.577D-01 0.106D+01
 Coeff:     -0.577D-01 0.106D+01
 Gap=     0.510 Goal=   None    Shift=    0.000
 RMSDP=2.58D-07 MaxDP=4.29D-06 DE=-4.43D-10 OVMax= 4.82D-06

 Cycle  11  Pass 1  IDiag  1:
 E= -189.241024619929     Delta-E=       -0.000000000042 Rises=F Damp=F
 DIIS: error= 4.41D-07 at cycle   3 NSaved=   3.
 NSaved= 3 IEnMin= 3 EnMin= -189.241024619929     IErMin= 3 ErrMin= 4.41D-07
 ErrMax= 4.41D-07  0.00D+00 EMaxC= 1.00D-01 BMatC= 3.11D-11 BMatP= 2.37D-11
 IDIUse=1 WtCom= 1.00D+00 WtEn= 0.00D+00
 Coeff-Com: -0.187D+00 0.636D+00 0.552D+00
 Coeff:     -0.187D+00 0.636D+00 0.552D+00
 Gap=     0.510 Goal=   None    Shift=    0.000
 RMSDP=7.11D-08 MaxDP=1.08D-06 DE=-4.17D-11 OVMax= 1.40D-06

 Cycle  12  Pass 1  IDiag  1:
 E= -189.241024619950     Delta-E=       -0.000000000021 Rises=F Damp=F
 DIIS: error= 9.20D-08 at cycle   4 NSaved=   4.
 NSaved= 4 IEnMin= 4 EnMin= -189.241024619950     IErMin= 4 ErrMin= 9.20D-08
 ErrMax= 9.20D-08  0.00D+00 EMaxC= 1.00D-01 BMatC= 3.88D-13 BMatP= 2.37D-11
 IDIUse=1 WtCom= 1.00D+00 WtEn= 0.00D+00
 Coeff-Com:  0.816D-02-0.914D-01-0.630D-01 0.115D+01
 Coeff:      0.816D-02-0.914D-01-0.630D-01 0.115D+01
 Gap=     0.510 Goal=   None    Shift=    0.000
 RMSDP=3.35D-08 MaxDP=8.82D-07 DE=-2.10D-11 OVMax= 8.60D-07

 Cycle  13  Pass 1  IDiag  1:
 E= -189.241024619952     Delta-E=       -0.000000000003 Rises=F Damp=F
 DIIS: error= 3.30D-08 at cycle   5 NSaved=   5.
 NSaved= 5 IEnMin= 5 EnMin= -189.241024619952     IErMin= 5 ErrMin= 3.30D-08
 ErrMax= 3.30D-08  0.00D+00 EMaxC= 1.00D-01 BMatC= 2.00D-13 BMatP= 3.88D-13
 IDIUse=1 WtCom= 1.00D+00 WtEn= 0.00D+00
 Coeff-Com:  0.244D-01-0.109D+00-0.102D+00 0.518D+00 0.668D+00
 Coeff:      0.244D-01-0.109D+00-0.102D+00 0.518D+00 0.668D+00
 Gap=     0.510 Goal=   None    Shift=    0.000
 RMSDP=9.58D-09 MaxDP=1.80D-07 DE=-2.84D-12 OVMax= 1.80D-07

 SCF Done:  E(RLC-B+HF-LYP) =  -189.241024620     A.U. after   13 cycles
            NFock= 13  Conv=0.96D-08     -V/T= 2.0077
 KE= 1.877880513015D+02 PE=-5.862652841967D+02 EE= 1.386620785584D+02
 Leave Link  502 at Mon Mar 21 20:18:53 2022, MaxMem=  8589934592 cpu:               8.7 elap:               1.1
 (Enter /home/sabyasachi/g16/l801.exe)
 DoSCS=F DFT=T ScalE2(SS,OS)=  1.000000  1.000000
 ExpMin= 6.71D-02 ExpMax= 2.27D+03 ExpMxC= 3.41D+02 IAcc=3 IRadAn=         5 AccDes= 0.00D+00
 HarFok:  IExCor=  205 AccDes= 0.00D+00 IRadAn=         5 IDoV=-2 UseB2=F ITyADJ=14
 ICtDFT= 12500011 ScaDFX=  1.000000  1.000000  1.000000  1.000000
 Largest valence mixing into a core orbital is  6.23D-05
 Largest core mixing into a valence orbital is  7.51D-06
 Range of M.O.s used for correlation:     4    82
 NBasis=    82 NAE=    12 NBE=    12 NFC=     3 NFV=     0
 NROrb=     79 NOA=     9 NOB=     9 NVA=    70 NVB=    70

 **** Warning!!: The largest alpha MO coefficient is  0.15713515D+02

 Leave Link  801 at Mon Mar 21 20:18:53 2022, MaxMem=  8589934592 cpu:               0.4 elap:               0.1
 (Enter /home/sabyasachi/g16/l914.exe)
 RHF ground state
 Keep R1, R2, and R3 ints in memory in symmetry-blocked form, NReq=429748882.
 FoFCou: FMM=F IPFlag=           0 FMFlag=           0 FMFlg1=           0
         NFxFlg=           0 DoJE=F BraDBF=F KetDBF=F FulRan=T
         wScrn=  0.000000 ICntrl=       600 IOpCl=  0 I1Cent=           0 NGrid=           0
         NMat0=    1 NMatS0=   3403 NMatT0=    0 NMatD0=    1 NMtDS0=    0 NMtDT0=    0
 Petite list used in FoFCou.
 MDV=  8589934592 DFT=T DoStab=F Mixed=T DoRPA=T DoScal=F NonHer=T
 Making orbital integer symmetry assigments:
 Orbital symmetries:
       Occupied  (A') (A') (A') (A') (A') (A') (A') (A') (A") (A')
                 (A") (A')
       Virtual   (A') (A") (A') (A') (A") (A') (A') (A") (A') (A')
                 (A") (A') (A') (A") (A') (A') (A') (A') (A") (A')
                 (A') (A") (A') (A') (A') (A") (A') (A') (A') (A")
                 (A") (A') (A') (A") (A') (A") (A') (A') (A') (A')
                 (A') (A") (A") (A') (A') (A") (A') (A') (A") (A')
                 (A') (A') (A") (A') (A') (A") (A') (A') (A') (A')
                 (A") (A') (A") (A") (A') (A") (A') (A') (A') (A')
   630 initial guesses have been made.
 Convergence on wavefunction:    0.001000000000000
 Davidson Disk Diagonalization:  ConvIn= 1.00D-03 SkipCon=T Conv= 1.00D-03.
 Max sub-space:  3780 roots to seek:  1260 dimension of matrix:         1260
 *** WARNING: Number of orthogonal guesses is          630
 Iteration     1 Dimension   630 NMult     0 NNew    630
 CISAX will form   630 AO SS matrices at one time.
 NMat=   630 NSing=   630 JSym2X=-1.
 New state      1 was old state      2
 New state      2 was old state      1
 New state      3 was old state      5
 New state      5 was old state      3
 New state      6 was old state     16
 New state      7 was old state      8
 New state      8 was old state      6
 New state      9 was old state      7
 New state     10 was old state     13
 New state     12 was old state     15
 New state     13 was old state     12
 New state     14 was old state     10
 New state     15 was old state      9
 New state     16 was old state     32
 New state     17 was old state     18
 New state     18 was old state     26
 New state     19 was old state     14
 New state     20 was old state     19
 New state     21 was old state     17
 New state     22 was old state     44
 New state     23 was old state     22
 New state     24 was old state     20
 New state     25 was old state     27
 New state     26 was old state     23
 New state     27 was old state     24
 New state     28 was old state     21
 New state     29 was old state     25
 New state     30 was old state     28
 New state     32 was old state     30
 New state     33 was old state     29
 New state     34 was old state     36
 New state     35 was old state     33
 New state     36 was old state     42
 New state     37 was old state     43
 New state     38 was old state     37
 New state     39 was old state     34
 New state     40 was old state     39
 New state     41 was old state     35
 New state     42 was old state     41
 New state     43 was old state     40
 New state     44 was old state     38
 New state     46 was old state     47
 New state     47 was old state     52
 New state     48 was old state     53
 New state     50 was old state     65
 New state     51 was old state     56
 New state     52 was old state     62
 New state     53 was old state     46
 New state     54 was old state     48
 New state     55 was old state     61
 New state     56 was old state     50
 New state     57 was old state     63
 New state     58 was old state     59
 New state     59 was old state     60
 New state     60 was old state     58
 New state     61 was old state     51
 New state     62 was old state     54
 New state     63 was old state     75
 New state     64 was old state     66
 New state     65 was old state     67
 New state     66 was old state     55
 New state     67 was old state     57
 New state     68 was old state     72
 New state     69 was old state     86
 New state     70 was old state     77
 New state     71 was old state     64
 New state     72 was old state     78
 New state     73 was old state     68
 New state     74 was old state     80
 New state     75 was old state     74
 New state     76 was old state     69
 New state     77 was old state     81
 New state     78 was old state     71
 New state     79 was old state     88
 New state     80 was old state     79
 New state     81 was old state     82
 New state     82 was old state     94
 New state     83 was old state     89
 New state     84 was old state     73
 New state     85 was old state     70
 New state     86 was old state     76
 New state     87 was old state     84
 New state     88 was old state     85
 New state     89 was old state     83
 New state     90 was old state     92
 New state     91 was old state     90
 New state     92 was old state     96
 New state     94 was old state     87
 New state     95 was old state     91
 New state     96 was old state    105
 New state     97 was old state     99
 New state     98 was old state     95
 New state     99 was old state    104
 New state    101 was old state     97
 New state    102 was old state    109
 New state    103 was old state     98
 New state    104 was old state    101
 New state    105 was old state    108
 New state    106 was old state    113
 New state    107 was old state    103
 New state    108 was old state    106
 New state    109 was old state    102
 New state    110 was old state    111
 New state    111 was old state    122
 New state    112 was old state    110
 New state    113 was old state    114
 New state    114 was old state    107
 New state    115 was old state    126
 New state    116 was old state    123
 New state    117 was old state    112
 New state    118 was old state    120
 New state    119 was old state    118
 New state    120 was old state    132
 New state    121 was old state    115
 New state    122 was old state    119
 New state    123 was old state    131
 New state    124 was old state    125
 New state    125 was old state    128
 New state    126 was old state    135
 New state    127 was old state    129
 New state    128 was old state    121
 New state    129 was old state    140
 New state    130 was old state    137
 New state    131 was old state    117
 New state    132 was old state    136
 New state    133 was old state    127
 New state    134 was old state    139
 New state    135 was old state    144
 New state    136 was old state    124
 New state    137 was old state    134
 New state    139 was old state    142
 New state    140 was old state    146
 New state    141 was old state    133
 New state    142 was old state    143
 New state    143 was old state    152
 New state    144 was old state    141
 New state    145 was old state    130
 New state    146 was old state    151
 New state    147 was old state    154
 New state    148 was old state    147
 New state    149 was old state    153
 New state    150 was old state    148
 New state    151 was old state    150
 New state    152 was old state    145
 New state    153 was old state    167
 New state    154 was old state    155
 New state    155 was old state    159
 New state    156 was old state    160
 New state    157 was old state    161
 New state    158 was old state    157
 New state    159 was old state    149
 New state    160 was old state    158
 New state    161 was old state    162
 New state    162 was old state    166
 New state    163 was old state    165
 New state    165 was old state    156
 New state    166 was old state    169
 New state    167 was old state    171
 New state    168 was old state    163
 New state    169 was old state    177
 New state    170 was old state    168
 New state    171 was old state    199
 New state    172 was old state    176
 New state    173 was old state    178
 New state    174 was old state    172
 New state    175 was old state    170
 New state    176 was old state    185
 New state    177 was old state    173
 New state    178 was old state    180
 New state    179 was old state    188
 New state    180 was old state    175
 New state    181 was old state    174
 New state    183 was old state    190
 New state    184 was old state    179
 New state    185 was old state    181
 New state    187 was old state    189
 New state    188 was old state    191
 New state    189 was old state    205
 New state    190 was old state    200
 New state    191 was old state    206
 New state    192 was old state    201
 New state    193 was old state    183
 New state    194 was old state    196
 New state    195 was old state    184
 New state    196 was old state    198
 New state    197 was old state    214
 New state    198 was old state    187
 New state    199 was old state    193
 New state    200 was old state    194
 New state    201 was old state    192
 New state    202 was old state    209
 New state    203 was old state    207
 New state    205 was old state    208
 New state    206 was old state    197
 New state    207 was old state    230
 New state    208 was old state    211
 New state    209 was old state    221
 New state    211 was old state    219
 New state    212 was old state    202
 New state    213 was old state    216
 New state    214 was old state    212
 New state    215 was old state    203
 New state    216 was old state    218
 New state    217 was old state    226
 New state    218 was old state    213
 New state    219 was old state    220
 New state    220 was old state    222
 New state    221 was old state    223
 New state    222 was old state    215
 New state    223 was old state    231
 New state    225 was old state    217
 New state    226 was old state    228
 New state    227 was old state    238
 New state    228 was old state    232
 New state    229 was old state    225
 New state    230 was old state    233
 New state    231 was old state    237
 New state    232 was old state    227
 No map to state    233
 New state    234 was old state    239
 New state    236 was old state    246
 New state    237 was old state    257
 New state    238 was old state    234
 New state    239 was old state    240
 New state    240 was old state    244
 New state    241 was old state    250
 New state    242 was old state    229
 New state    243 was old state    241
 New state    244 was old state    242
 New state    245 was old state    243
 New state    246 was old state    236
 New state    247 was old state    253
 New state    248 was old state    247
 New state    249 was old state    245
 New state    250 was old state    262
 New state    251 was old state    263
 New state    252 was old state    251
 New state    253 was old state    255
 New state    254 was old state    258
 New state    255 was old state    269
 New state    256 was old state    254
 New state    257 was old state    259
 New state    258 was old state    268
 New state    259 was old state    256
 New state    260 was old state    248
 New state    261 was old state    249
 New state    262 was old state    266
 New state    263 was old state    267
 New state    265 was old state    261
 New state    266 was old state    271
 New state    267 was old state    274
 New state    268 was old state    260
 New state    269 was old state    281
 New state    270 was old state    273
 New state    271 was old state    282
 New state    272 was old state    270
 New state    273 was old state    277
 New state    274 was old state    265
 New state    275 was old state    284
 New state    276 was old state    278
 New state    277 was old state    280
 New state    278 was old state    276
 New state    279 was old state    302
 New state    280 was old state    272
 New state    281 was old state    292
 New state    282 was old state    275
 New state    283 was old state    290
 New state    284 was old state    279
 New state    285 was old state    288
 New state    286 was old state    283
 New state    287 was old state    296
 New state    288 was old state    297
 New state    289 was old state    286
 New state    290 was old state    285
 New state    291 was old state    299
 New state    292 was old state    298
 New state    294 was old state    287
 New state    295 was old state    289
 New state    296 was old state    295
 New state    297 was old state    300
 New state    298 was old state    301
 New state    299 was old state    291
 New state    300 was old state    305
 New state    301 was old state    307
 New state    302 was old state    294
 New state    303 was old state    304
 New state    304 was old state    303
 New state    305 was old state    308
 New state    306 was old state    311
 New state    307 was old state    315
 New state    308 was old state    312
 New state    309 was old state    306
 New state    310 was old state    309
 New state    311 was old state    314
 New state    312 was old state    333
 New state    314 was old state    310
 New state    315 was old state    317
 New state    316 was old state    321
 New state    317 was old state    318
 New state    318 was old state    316
 New state    319 was old state    320
 New state    320 was old state    319
 New state    321 was old state    332
 New state    322 was old state    324
 New state    323 was old state    322
 New state    324 was old state    323
 New state    325 was old state    326
 New state    326 was old state    329
 New state    327 was old state    331
 New state    328 was old state    327
 New state    329 was old state    325
 New state    330 was old state    338
 New state    331 was old state    328
 New state    332 was old state    330
 New state    333 was old state    335
 New state    335 was old state    336
 New state    336 was old state    349
 New state    337 was old state    339
 New state    338 was old state    337
 New state    339 was old state    350
 New state    340 was old state    343
 New state    342 was old state    344
 New state    343 was old state    345
 New state    344 was old state    342
 New state    345 was old state    354
 New state    346 was old state    348
 New state    348 was old state    351
 New state    349 was old state    346
 New state    350 was old state    340
 New state    351 was old state    355
 New state    352 was old state    357
 New state    353 was old state    359
 New state    354 was old state    356
 New state    355 was old state    352
 New state    356 was old state    362
 New state    357 was old state    361
 New state    358 was old state    353
 New state    359 was old state    358
 New state    360 was old state    365
 New state    361 was old state    360
 New state    362 was old state    367
 New state    364 was old state    371
 New state    365 was old state    369
 New state    366 was old state    368
 New state    367 was old state    373
 New state    368 was old state    366
 New state    369 was old state    364
 New state    371 was old state    375
 New state    373 was old state    374
 New state    374 was old state    376
 New state    375 was old state    381
 New state    376 was old state    377
 New state    377 was old state    378
 New state    378 was old state    379
 New state    379 was old state    380
 No map to state    380
 New state    381 was old state    388
 New state    382 was old state    383
 New state    383 was old state    386
 New state    384 was old state    385
 New state    385 was old state    382
 New state    386 was old state    384
 New state    387 was old state    389
 New state    388 was old state    387
 New state    389 was old state    390
 New state    390 was old state    394
 New state    392 was old state    393
 New state    393 was old state    392
 New state    394 was old state    395
 New state    395 was old state    398
 New state    398 was old state    402
 New state    399 was old state    400
 New state    400 was old state    399
 New state    401 was old state    403
 New state    402 was old state    401
 New state    403 was old state    407
 New state    404 was old state    405
 New state    405 was old state    404
 New state    406 was old state    411
 New state    407 was old state    406
 New state    408 was old state    412
 New state    409 was old state    408
 New state    411 was old state    415
 New state    412 was old state    409
 New state    413 was old state    414
 New state    414 was old state    422
 New state    415 was old state    416
 New state    416 was old state    413
 New state    417 was old state    418
 New state    418 was old state    424
 New state    419 was old state    423
 New state    422 was old state    419
 New state    423 was old state    417
 New state    424 was old state    426
 New state    425 was old state    427
 New state    426 was old state    425
 New state    427 was old state    430
 New state    428 was old state    429
 New state    429 was old state    433
 New state    430 was old state    431
 New state    431 was old state    432
 New state    432 was old state    428
 New state    433 was old state    436
 New state    435 was old state    438
 New state    436 was old state    437
 New state    437 was old state    435
 New state    438 was old state    440
 New state    439 was old state    445
 New state    440 was old state    442
 New state    441 was old state    444
 New state    442 was old state    443
 New state    443 was old state    439
 No map to state    444
 New state    445 was old state    441
 New state    446 was old state    448
 New state    447 was old state    446
 New state    448 was old state    451
 New state    450 was old state    447
 New state    451 was old state    454
 New state    453 was old state    450
 New state    454 was old state    456
 New state    455 was old state    453
 New state    456 was old state    458
 New state    457 was old state    460
 New state    458 was old state    455
 New state    459 was old state    457
 New state    460 was old state    461
 New state    461 was old state    465
 New state    462 was old state    459
 New state    463 was old state    464
 New state    464 was old state    462
 New state    465 was old state    463
 New state    467 was old state    468
 New state    468 was old state    467
 New state    469 was old state    472
 New state    470 was old state    471
 New state    471 was old state    469
 New state    472 was old state    473
 New state    473 was old state    470
 New state    475 was old state    478
 New state    476 was old state    475
 New state    477 was old state    480
 New state    478 was old state    479
 New state    479 was old state    477
 New state    480 was old state    482
 New state    481 was old state    476
 New state    482 was old state    481
 New state    484 was old state    485
 New state    485 was old state    484
 New state    486 was old state    487
 New state    487 was old state    490
 New state    490 was old state    486
 New state    494 was old state    495
 New state    495 was old state    496
 New state    496 was old state    494
 New state    497 was old state    498
 New state    498 was old state    499
 New state    499 was old state    500
 New state    500 was old state    497
 New state    504 was old state    506
 New state    505 was old state    504
 New state    506 was old state    505
 New state    513 was old state    515
 New state    514 was old state    513
 New state    515 was old state    514
 New state    518 was old state    519
 New state    519 was old state    520
 New state    520 was old state    518
 New state    522 was old state    523
 New state    523 was old state    522
 New state    525 was old state    528
 New state    528 was old state    525
 New state    531 was old state    534
 New state    532 was old state    531
 New state    534 was old state    536
 New state    536 was old state    540
 New state    537 was old state    532
 New state    539 was old state    545
 New state    540 was old state    537
 New state    541 was old state    546
 New state    542 was old state    539
 New state    543 was old state    542
 New state    545 was old state    541
 New state    546 was old state    543
 New state    549 was old state    550
 New state    550 was old state    551
 New state    551 was old state    552
 New state    552 was old state    549
 New state    554 was old state    555
 New state    555 was old state    554
 New state    556 was old state    562
 New state    558 was old state    560
 New state    559 was old state    564
 New state    560 was old state    556
 New state    561 was old state    558
 New state    562 was old state    559
 New state    564 was old state    561
 New state    566 was old state    567
 New state    567 was old state    566
 New state    568 was old state    570
 New state    569 was old state    571
 New state    570 was old state    574
 New state    571 was old state    568
 New state    573 was old state    569
 New state    574 was old state    573
 New state    576 was old state    577
 New state    577 was old state    576
 New state    579 was old state    580
 New state    580 was old state    581
 New state    581 was old state    579
 New state    584 was old state    585
 New state    585 was old state    587
 New state    586 was old state    584
 New state    587 was old state    586
 New state    590 was old state    591
 New state    591 was old state    592
 New state    592 was old state    593
 New state    593 was old state    590
 New state    594 was old state    597
 New state    595 was old state    596
 New state    596 was old state    599
 New state    597 was old state    594
 New state    598 was old state    595
 New state    599 was old state    600
 New state    600 was old state    598
 New state    601 was old state    604
 New state    602 was old state    603
 New state    603 was old state    602
 New state    604 was old state    601
 New state    606 was old state    607
 New state    607 was old state    606
 New state    608 was old state    610
 New state    609 was old state    608
 New state    610 was old state    609
 New state    611 was old state    612
 New state    612 was old state    614
 New state    613 was old state    611
 New state    614 was old state    613
 New state    620 was old state    623
 New state    622 was old state    620
 New state    623 was old state    622
 Excitation Energies [eV] at current iteration:
 Root      1 :     5.896407069434017
 Root      2 :     8.485057831191680
 Root      3 :     9.084755807901809
 Root      4 :     9.202912957557656
 Root      5 :     9.380169399090432
 Root      6 :     9.631992133554609
 Root      7 :    10.412610761069120
 Root      8 :    10.503105967820050
 Root      9 :    10.608794600515870
 Root     10 :    11.412285888402960
 Root     11 :    11.485182198076190
 Root     12 :    11.512493937561450
 Root     13 :    11.547622952442690
 Root     14 :    11.804179118455740
 Root     15 :    11.959922658455410
 Root     16 :    12.082842370072680
 Root     17 :    12.206116196112170
 Root     18 :    12.323642575885930
 Root     19 :    12.395720381769620
 Root     20 :    12.561914520281670
 Root     21 :    12.644314245598630
 Root     22 :    12.684308411055260
 Root     23 :    13.011047512841200
 Root     24 :    13.180403618383310
 Root     25 :    13.330772738784170
 Root     26 :    13.349876529160930
 Root     27 :    13.397916114155150
 Root     28 :    13.590151869292920
 Root     29 :    13.601358072386700
 Root     30 :    14.044634450153250
 Root     31 :    14.080796204740710
 Root     32 :    14.229451515674790
 Root     33 :    14.318453560928330
 Root     34 :    14.375475223068320
 Root     35 :    14.604344084362630
 Root     36 :    14.702342202923170
 Root     37 :    14.741749830929400
 Root     38 :    15.093958842643000
 Root     39 :    15.128114850775940
 Root     40 :    15.202637332519220
 Root     41 :    15.296160284783630
 Root     42 :    15.438419787897510
 Root     43 :    15.577493055395630
 Root     44 :    15.638898989228280
 Root     45 :    15.902996916251260
 Root     46 :    15.907665570109140
 Root     47 :    15.965613775646030
 Root     48 :    16.035882592158400
 Root     49 :    16.124624457966620
 Root     50 :    16.225944842153830
 Root     51 :    16.371049527467460
 Root     52 :    16.460878706091420
 Root     53 :    16.571329134925120
 Root     54 :    16.657360019712770
 Root     55 :    16.718719021203750
 Root     56 :    16.759468667717730
 Root     57 :    16.838979305811680
 Root     58 :    16.937315630905300
 Root     59 :    17.120731584510240
 Root     60 :    17.191098976560470
 Root     61 :    17.237341574136540
 Root     62 :    17.301381535716460
 Root     63 :    17.410308713659200
 Root     64 :    17.419789986991580
 Root     65 :    17.497392092624190
 Root     66 :    17.635546306902940
 Root     67 :    17.813018508480900
 Root     68 :    17.823121731440280
 Root     69 :    17.859807843820650
 Root     70 :    17.942514090509120
 Root     71 :    17.983061866237960
 Root     72 :    18.103632682726560
 Root     73 :    18.186870788507650
 Root     74 :    18.213711472211740
 Root     75 :    18.365852587708570
 Root     76 :    18.442244916100010
 Root     77 :    18.469393981684790
 Root     78 :    18.558263306401680
 Root     79 :    18.740726979519680
 Root     80 :    18.749775020010230
 Root     81 :    18.805096638104040
 Root     82 :    18.907026445188780
 Root     83 :    18.945097717886770
 Root     84 :    18.978000010552450
 Root     85 :    19.094482116488920
 Root     86 :    19.116989413883940
 Root     87 :    19.149975789488680
 Root     88 :    19.224526448909690
 Root     89 :    19.279413759582130
 Root     90 :    19.360036500097520
 Root     91 :    19.703990516677550
 Root     92 :    19.783391451556720
 Root     93 :    19.858558633837550
 Root     94 :    19.926457743464710
 Root     95 :    20.025097599941250
 Root     96 :    20.071009109501740
 Root     97 :    20.111623308083770
 Root     98 :    20.253955667075030
 Root     99 :    20.318681653177370
 Root    100 :    20.548409096472760
 Root    101 :    20.613162593216880
 Root    102 :    20.742826336779570
 Root    103 :    20.902820006219420
 Root    104 :    20.967310097906180
 Root    105 :    21.012242199055830
 Root    106 :    21.032113452746530
 Root    107 :    21.111800828169070
 Root    108 :    21.155360150833180
 Root    109 :    21.211051546880090
 Root    110 :    21.298053259752920
 Root    111 :    21.347988940914400
 Root    112 :    21.591904553072200
 Root    113 :    21.636229628933230
 Root    114 :    21.677067981148740
 Root    115 :    21.691179461593470
 Root    116 :    21.914264618125630
 Root    117 :    21.935410606832630
 Root    118 :    22.166067153184260
 Root    119 :    22.185479459582210
 Root    120 :    22.242434276136480
 Root    121 :    22.333742308482290
 Root    122 :    22.365439773525080
 Root    123 :    22.392473728986190
 Root    124 :    22.419830106767740
 Root    125 :    22.449955991336430
 Root    126 :    22.687846250711650
 Root    127 :    22.697457381600180
 Root    128 :    22.830132331004360
 Root    129 :    23.051169914389810
 Root    130 :    23.056953295106270
 Root    131 :    23.104288248008970
 Root    132 :    23.162508994132270
 Root    133 :    23.205629505260640
 Root    134 :    23.302148334838800
 Root    135 :    23.334764856796600
 Root    136 :    23.351694718963120
 Root    137 :    23.398327060551000
 Root    138 :    23.510189324678270
 Root    139 :    23.692351768708670
 Root    140 :    23.795246383782240
 Root    141 :    23.853113652812170
 Root    142 :    23.912353644319510
 Root    143 :    24.012777936750630
 Root    144 :    24.085959185342170
 Root    145 :    24.116177618161690
 Root    146 :    24.216406861745790
 Root    147 :    24.229845564197010
 Root    148 :    24.379856711927100
 Root    149 :    24.459735189965080
 Root    150 :    24.520685040255830
 Root    151 :    24.564574471188620
 Root    152 :    24.606753987352330
 Root    153 :    24.768139710925140
 Root    154 :    24.927542532271980
 Root    155 :    24.970290253911720
 Root    156 :    25.072989488424670
 Root    157 :    25.222517843958850
 Root    158 :    25.234338859003620
 Root    159 :    25.305300870175260
 Root    160 :    25.467579386636480
 Root    161 :    25.502880091047780
 Root    162 :    25.596923948887040
 Root    163 :    25.713524788083770
 Root    164 :    25.729852570630210
 Root    165 :    25.830247921560360
 Root    166 :    25.903879871817530
 Root    167 :    26.099471044333350
 Root    168 :    26.119320171101220
 Root    169 :    26.139796532312640
 Root    170 :    26.239997066269560
 Root    171 :    26.399409897249260
 Root    172 :    26.418675587527890
 Root    173 :    26.440064214938160
 Root    174 :    26.560781168313590
 Root    175 :    26.611681635975500
 Root    176 :    26.676972046461400
 Root    177 :    26.726613096724400
 Root    178 :    26.789138702049190
 Root    179 :    26.937352965384830
 Root    180 :    26.978393799218460
 Root    181 :    27.112314652142290
 Root    182 :    27.175567277653340
 Root    183 :    27.271364401087730
 Root    184 :    27.305701957484700
 Root    185 :    27.519627991995770
 Root    186 :    27.547683573809510
 Root    187 :    27.594143948145400
 Root    188 :    27.708933107601620
 Root    189 :    27.772461675215470
 Root    190 :    27.882392357159310
 Root    191 :    27.949493701250080
 Root    192 :    27.969793953052730
 Root    193 :    28.006757693626040
 Root    194 :    28.239155777386050
 Root    195 :    28.253889311070700
 Root    196 :    28.335090646057580
 Root    197 :    28.435342308919000
 Root    198 :    28.511053724445380
 Root    199 :    28.628986196762960
 Root    200 :    28.669817269844530
 Root    201 :    28.721597475236800
 Root    202 :    28.762073932614680
 Root    203 :    28.896366009632930
 Root    204 :    28.947802338862060
 Root    205 :    29.095114323027960
 Root    206 :    29.131531103325920
 Root    207 :    29.285790527496670
 Root    208 :    29.367459732229630
 Root    209 :    29.404429686873550
 Root    210 :    29.441929075703810
 Root    211 :    29.588429489062390
 Root    212 :    29.643901261563010
 Root    213 :    29.656349944209930
 Root    214 :    29.873803956254070
 Root    215 :    30.073252244833500
 Root    216 :    30.101241444923360
 Root    217 :    30.148582728894420
 Root    218 :    30.359714995464140
 Root    219 :    30.509235336255110
 Root    220 :    30.549963195220020
 Root    221 :    30.565872641886880
 Root    222 :    30.604244457309830
 Root    223 :    30.679078445667690
 Root    224 :    30.734602144673100
 Root    225 :    30.789681441157540
 Root    226 :    30.906724839790770
 Root    227 :    31.076543913206920
 Root    228 :    31.220309816410120
 Root    229 :    31.320293404210760
 Root    230 :    31.463707806441100
 Root    231 :    31.482288547647440
 Root    232 :    31.617124377435950
 Root    233 :    31.637667053271790
 Root    234 :    31.703323998661830
 Root    235 :    31.816695113161600
 Root    236 :    31.884703081154730
 Root    237 :    31.899371703304240
 Root    238 :    31.950949957037480
 Root    239 :    32.049781350522150
 Root    240 :    32.127840238642880
 Root    241 :    32.211828857106400
 Root    242 :    32.319652813483420
 Root    243 :    32.355945380145960
 Root    244 :    32.398822801530380
 Root    245 :    32.428060287497540
 Root    246 :    32.457731016410160
 Root    247 :    32.640401577937340
 Root    248 :    32.693586327668260
 Root    249 :    32.769043527994330
 Root    250 :    33.023998442399460
 Root    251 :    33.127196794678290
 Root    252 :    33.193971128291500
 Root    253 :    33.215963060444500
 Root    254 :    33.274552611188400
 Root    255 :    33.296918142888520
 Root    256 :    33.383558134582370
 Root    257 :    33.489902176219090
 Root    258 :    33.578790651056830
 Root    259 :    33.613823323834390
 Root    260 :    33.630604886381480
 Root    261 :    33.759072526637490
 Root    262 :    33.878098574744210
 Root    263 :    34.030815202890780
 Root    264 :    34.335120226887880
 Root    265 :    34.372344417336710
 Root    266 :    34.545451640680030
 Root    267 :    34.640053256354880
 Root    268 :    34.907682477950520
 Root    269 :    34.981270247042940
 Root    270 :    35.253405902711320
 Root    271 :    35.290893618670980
 Root    272 :    35.392914348350350
 Root    273 :    35.472488882761120
 Root    274 :    35.505989759819300
 Root    275 :    35.626472434146360
 Root    276 :    35.659034894770530
 Root    277 :    35.803039017984340
 Root    278 :    35.908119106111770
 Root    279 :    36.108217974700920
 Root    280 :    36.384418495304680
 Root    281 :    36.540296254052670
 Root    282 :    36.540380222185500
 Root    283 :    36.696455705689270
 Root    284 :    36.717303066846720
 Root    285 :    37.093473174011480
 Root    286 :    37.253943183241040
 Root    287 :    37.276521996411220
 Root    288 :    37.310781772825150
 Root    289 :    37.348706528757580
 Root    290 :    37.472972003530640
 Root    291 :    37.691989210642080
 Root    292 :    37.782710402609300
 Root    293 :    37.829971860445580
 Root    294 :    37.876480603749460
 Root    295 :    37.987807458127690
 Root    296 :    38.017771273602260
 Root    297 :    38.167642761620990
 Root    298 :    38.337957662786900
 Root    299 :    38.419622574504300
 Root    300 :    38.499238101561450
 Root    301 :    38.657143181962470
 Root    302 :    38.717579432474630
 Root    303 :    38.971397449219010
 Root    304 :    39.313393166608620
 Root    305 :    39.529408447592320
 Root    306 :    39.576579761907990
 Root    307 :    39.652914216223670
 Root    308 :    40.123936229281900
 Root    309 :    40.185809921842240
 Root    310 :    40.240814332424980
 Root    311 :    40.411123627738880
 Root    312 :    40.496050860473930
 Root    313 :    40.510377859689360
 Root    314 :    40.791058595869300
 Root    315 :    40.834964755755540
 Root    316 :    40.900249163427750
 Root    317 :    41.296931788537400
 Root    318 :    41.580557477158010
 Root    319 :    41.668279268483600
 Root    320 :    41.880767776930550
 Root    321 :    42.111778647350390
 Root    322 :    42.448655171558320
 Root    323 :    42.549331194027720
 Root    324 :    42.704714770091170
 Root    325 :    42.832169396287330
 Root    326 :    42.996638582637780
 Root    327 :    43.110248819241410
 Root    328 :    43.177228735276740
 Root    329 :    43.228080709382600
 Root    330 :    43.400959360054970
 Root    331 :    43.567003173682760
 Root    332 :    43.723107792898350
 Root    333 :    43.921868013788310
 Root    334 :    44.284794954234740
 Root    335 :    44.300197701104870
 Root    336 :    44.508860863585160
 Root    337 :    44.632958628946620
 Root    338 :    44.799251789841090
 Root    339 :    44.961643975791010
 Root    340 :    45.057760829542370
 Root    341 :    45.157088622655000
 Root    342 :    45.179185297557090
 Root    343 :    45.552765517500340
 Root    344 :    45.761964030501910
 Root    345 :    45.818660911938840
 Root    346 :    45.964644411931900
 Root    347 :    46.101868613628310
 Root    348 :    46.357478314721940
 Root    349 :    46.484851163001280
 Root    350 :    46.520503639211610
 Root    351 :    46.708591189199150
 Root    352 :    46.971844097245700
 Root    353 :    47.056851771906160
 Root    354 :    47.164032813315760
 Root    355 :    47.229315562621920
 Root    356 :    47.369913335776210
 Root    357 :    47.592518307315030
 Root    358 :    47.728764272032170
 Root    359 :    47.731802938090460
 Root    360 :    47.844723010501850
 Root    361 :    48.252658415810760
 Root    362 :    48.438498855904230
 Root    363 :    48.616966019994170
 Root    364 :    48.780408947097450
 Root    365 :    48.794199706912640
 Root    366 :    48.963889493400940
 Root    367 :    49.130181432163500
 Root    368 :    49.472599014340150
 Root    369 :    49.572863849214570
 Root    370 :    50.104044386357670
 Root    371 :    50.349039787133150
 Root    372 :    50.508466387092990
 Root    373 :    50.525209716409360
 Root    374 :    50.621915563898300
 Root    375 :    50.902495103445650
 Root    376 :    50.984845902949940
 Root    377 :    51.171471319594090
 Root    378 :    51.307838256081650
 Root    379 :    51.882795483069470
 Root    380 :    52.100889515609320
 Root    381 :    52.319310034927860
 Root    382 :    52.430676657733310
 Root    383 :    52.730821817809790
 Root    384 :    52.766207219967020
 Root    385 :    52.808748754916660
 Root    386 :    52.989402360427770
 Root    387 :    53.411385644769110
 Root    388 :    53.807693338567360
 Root    389 :    53.849949411534660
 Root    390 :    54.125251646126240
 Root    391 :    54.382705665542850
 Root    392 :    54.494569195360020
 Root    393 :    54.673952252182070
 Root    394 :    54.972785886237940
 Root    395 :    55.262581926319240
 Root    396 :    55.345170260716690
 Root    397 :    55.576087270383260
 Root    398 :    55.853442202772030
 Root    399 :    55.924437464431980
 Root    400 :    56.029250131746840
 Root    401 :    56.066661335533350
 Root    402 :    56.247152223766010
 Root    403 :    56.323219351770720
 Root    404 :    56.633069357604900
 Root    405 :    56.780698063191090
 Root    406 :    56.822509930096570
 Root    407 :    56.907911111467400
 Root    408 :    57.167855433876130
 Root    409 :    57.172385609476510
 Root    410 :    57.237578736560960
 Root    411 :    57.349986516062920
 Root    412 :    57.766345070963470
 Root    413 :    57.889830620909440
 Root    414 :    57.940863249687910
 Root    415 :    58.216099756108690
 Root    416 :    58.409834991571900
 Root    417 :    58.622438169226440
 Root    418 :    58.817024337346940
 Root    419 :    58.850772638511970
 Root    420 :    59.121429778324080
 Root    421 :    59.263478329136480
 Root    422 :    59.281851824814620
 Root    423 :    59.609521633834440
 Root    424 :    59.945346663278950
 Root    425 :    60.056496625804660
 Root    426 :    60.275463337905070
 Root    427 :    60.383500222500680
 Root    428 :    60.457559674835700
 Root    429 :    60.706661822494620
 Root    430 :    60.998421191452510
 Root    431 :    61.019399022418640
 Root    432 :    61.217747653705200
 Root    433 :    61.367264553164690
 Root    434 :    61.604547164807820
 Root    435 :    61.807930611256100
 Root    436 :    61.907447429811680
 Root    437 :    62.137818018820720
 Root    438 :    62.204675632894260
 Root    439 :    62.333120585865340
 Root    440 :    62.356140373302410
 Root    441 :    62.483847943233020
 Root    442 :    62.555398062408240
 Root    443 :    62.776144312565850
 Root    444 :    62.821170142286160
 Root    445 :    62.870275888730520
 Root    446 :    63.381318207868790
 Root    447 :    63.837876320207100
 Root    448 :    64.000638237429610
 Root    449 :    64.302587370358040
 Root    450 :    64.373471125283260
 Root    451 :    64.396727655174760
 Root    452 :    64.471099077050370
 Root    453 :    64.683650753139160
 Root    454 :    64.887191293435380
 Root    455 :    64.960561422906510
 Root    456 :    65.055224449879430
 Root    457 :    65.131608560723190
 Root    458 :    65.183796099418880
 Root    459 :    65.221262744107950
 Root    460 :    65.781799794259970
 Root    461 :    65.961290090986180
 Root    462 :    66.059791463811560
 Root    463 :    66.636783794789790
 Root    464 :    66.639173614153350
 Root    465 :    66.803230275073700
 Root    466 :    66.925915355184330
 Root    467 :    67.404677148967780
 Root    468 :    67.495898124803320
 Root    469 :    67.774550768936850
 Root    470 :    68.061255002523420
 Root    471 :    68.240363957076970
 Root    472 :    68.243839378458230
 Root    473 :    68.538504701184750
 Root    474 :    68.766416059210000
 Root    475 :    69.175630683993620
 Root    476 :    69.425181610383150
 Root    477 :    69.460707718259360
 Root    478 :    69.495007314799270
 Root    479 :    69.731888589386630
 Root    480 :    69.987246328439010
 Root    481 :    69.990248592338590
 Root    482 :    70.297933753080100
 Root    483 :    70.426707238759050
 Root    484 :    70.661635378875190
 Root    485 :    70.705095656866750
 Root    486 :    71.067542240761260
 Root    487 :    71.171629149077890
 Root    488 :    71.216641944638480
 Root    489 :    71.367376074220460
 Root    490 :    71.545101908301700
 Root    491 :    72.183059549555410
 Root    492 :    73.004240587367660
 Root    493 :    73.706484180747960
 Root    494 :    73.856929600328390
 Root    495 :    74.204001498320640
 Root    496 :    74.336373263580230
 Root    497 :    74.916568915464510
 Root    498 :    75.326721723108630
 Root    499 :    75.397504633671050
 Root    500 :    75.797399762733330
 Root    501 :    75.889472603116940
 Root    502 :    76.164430993572670
 Root    503 :    76.212148087128110
 Root    504 :    76.316660265889650
 Root    505 :    76.574642543133010
 Root    506 :    77.146786435351190
 Root    507 :    78.079075457078030
 Root    508 :    78.109876536592960
 Root    509 :    78.932471824298060
 Root    510 :    78.968063294776770
 Root    511 :    79.527458871338550
 Root    512 :    79.617598554125490
 Root    513 :    79.689877362462510
 Root    514 :    79.969106446682370
 Root    515 :    80.367442592235070
 Root    516 :    80.968152271320780
 Root    517 :    81.140380500779490
 Root    518 :    81.483940583251450
 Root    519 :    81.796519254022580
 Root    520 :    81.962023023033300
 Root    521 :    82.476691194847150
 Root    522 :    83.456777059735020
 Root    523 :    83.697636460317070
 Root    524 :    84.299642596258240
 Root    525 :    84.590753009354070
 Root    526 :    84.719333014762470
 Root    527 :    84.729819535573580
 Root    528 :    84.978773469932580
 Root    529 :    85.528490975477300
 Root    530 :    86.198716062031750
 Root    531 :    86.529509358872600
 Root    532 :    86.632961575752940
 Root    533 :    86.764587898183290
 Root    534 :    87.201200046421060
 Root    535 :    87.445710627662540
 Root    536 :    87.756407825601730
 Root    537 :    88.046191332488280
 Root    538 :    88.251200178384470
 Root    539 :    88.616310789893150
 Root    540 :    88.779365819053250
 Root    541 :    88.896933295567660
 Root    542 :    89.096300716942070
 Root    543 :    89.274327469435780
 Root    544 :    89.869890549856420
 Root    545 :    90.354675845340350
 Root    546 :    90.535981129522400
 Root    547 :    90.679877470372030
 Root    548 :    91.395754319888720
 Root    549 :    92.044764961121570
 Root    550 :    92.109744326976130
 Root    551 :    92.406665866920860
 Root    552 :    92.450492945900830
 Root    553 :    92.666218915123610
 Root    554 :    93.182374568278220
 Root    555 :    93.394292244255100
 Root    556 :    93.516577153072360
 Root    557 :    93.893858460060930
 Root    558 :    94.039630884128030
 Root    559 :    94.091758228114220
 Root    560 :    94.414511105495350
 Root    561 :    94.582181052477850
 Root    562 :    95.242306076943520
 Root    563 :    95.560849598312500
 Root    564 :    95.821368296984570
 Root    565 :    95.829393483205250
 Root    566 :    96.951562345957500
 Root    567 :    97.340722874963970
 Root    568 :    97.489594444590640
 Root    569 :    97.915719132522010
 Root    570 :    98.260546151853920
 Root    571 :    98.404038327366780
 Root    572 :    98.777278578198970
 Root    573 :    99.055045152674510
 Root    574 :    99.648501956295050
 Root    575 :    99.771458008718670
 Root    576 :   100.229777927229500
 Root    577 :   100.563457643750700
 Root    578 :   100.620302526740200
 Root    579 :   100.925109424472100
 Root    580 :   101.615831000952400
 Root    581 :   101.623782183893900
 Root    582 :   102.224579336822000
 Root    583 :   103.199825402092100
 Root    584 :   103.636517244791900
 Root    585 :   103.773521811892600
 Root    586 :   104.289454755978100
 Root    587 :   104.717894596449900
 Root    588 :   105.004576942956100
 Root    589 :   105.565079863351800
 Root    590 :   106.186628853900400
 Root    591 :   106.278976873339000
 Root    592 :   106.484297201132500
 Root    593 :   106.902624287287700
 Root    594 :   108.184903478557000
 Root    595 :   108.201442610063600
 Root    596 :   108.791013899690400
 Root    597 :   108.921839391789300
 Root    598 :   109.377985224873700
 Root    599 :   109.539567305888700
 Root    600 :   110.311541473571100
 Root    601 :   110.784488890363000
 Root    602 :   110.995132221610500
 Root    603 :   111.101227646152700
 Root    604 :   111.508805216593500
 Root    605 :   111.836406506407400
 Root    606 :   113.599920445341200
 Root    607 :   114.230261616204700
 Root    608 :   114.317705884100500
 Root    609 :   115.162036147668000
 Root    610 :   115.192671897872900
 Root    611 :   115.375401130270500
 Root    612 :   115.808003111338600
 Root    613 :   115.882288248208300
 Root    614 :   116.495683333933800
 Root    615 :   116.871996103920700
 Root    616 :   117.497503254121100
 Root    617 :   118.239813221180900
 Root    618 :   118.639339518074200
 Root    619 :   119.046177111292200
 Root    620 :   120.487532588138700
 Root    621 :   120.736907223486800
 Root    622 :   121.024415297440200
 Root    623 :   121.489459009174500
 Root    624 :   124.381046559599600
 Root    625 :   125.231918100711800
 Root    626 :   127.668862854859000
 Root    627 :   129.657642691799100
 Root    628 :   133.297818600549200
 Root    629 :   133.932393882205700
 Root    630 :   136.926667733752800
 Convergence achieved for final wavefunctions.
 ***********************************************************************
 Excited states from <AA,BB:AA,BB> singles matrix:
 ***********************************************************************
 
 1PDM for each excited state written to RWF  633
 Ground to excited state transition densities written to RWF  633
 Ground to excited state transition electric dipole moments (Au):
       state          X           Y           Z        Dip. S.      Osc.
         1        -0.0000      0.0000      0.0785      0.0062      0.0009
         2         0.4143     -0.2029     -0.0000      0.2128      0.0442
         3        -0.8849     -0.3087     -0.0000      0.8783      0.1955
         4         0.0000     -0.0000     -0.1280      0.0164      0.0037
         5         0.0969      0.5785     -0.0000      0.3440      0.0791
         6        -0.0000     -0.0000     -0.0144      0.0002      0.0000
         7        -0.0000      0.0000      0.2230      0.0497      0.0127
         8         0.0000     -0.0000      0.1203      0.0145      0.0037
         9        -0.5686      0.3417     -0.0000      0.4400      0.1144
        10        -0.2173      0.3489      0.0000      0.1689      0.0472
        11        -0.0000     -0.0000     -0.4345      0.1888      0.0531
        12        -0.2153     -0.1667      0.0000      0.0741      0.0209
        13         0.0909      0.1740      0.0000      0.0386      0.0109
        14        -0.1688     -0.0791      0.0000      0.0348      0.0101
        15         0.4276      0.1677      0.0000      0.2109      0.0618
        16        -0.0000     -0.0000      0.1478      0.0219      0.0065
        17         0.0000     -0.0000      0.0062      0.0000      0.0000
        18         0.2002     -0.7455      0.0000      0.5958      0.1799
        19         0.0000     -0.0000     -0.2827      0.0799      0.0243
        20        -0.0000     -0.0000     -0.0289      0.0008      0.0003
        21        -0.2590     -0.1333      0.0000      0.0849      0.0263
        22        -0.0000      0.0000     -0.1473      0.0217      0.0067
        23        -0.0000      0.0000     -0.1150      0.0132      0.0042
        24         0.4098      0.0072      0.0000      0.1680      0.0542
        25        -0.0000      0.0000      0.2125      0.0451      0.0147
        26         0.0000     -0.0000     -0.2814      0.0792      0.0259
        27         0.0673      0.0476      0.0000      0.0068      0.0022
        28         0.2442      0.0271      0.0000      0.0604      0.0201
        29        -0.0000     -0.0000     -0.1464      0.0214      0.0071
        30        -0.0000      0.0000     -0.2710      0.0735      0.0253
        31        -0.0302     -0.1504     -0.0000      0.0235      0.0081
        32         0.1251      0.2438     -0.0000      0.0751      0.0262
        33         0.0000      0.0000     -0.1544      0.0238      0.0084
        34         0.5848      0.0062      0.0000      0.3420      0.1204
        35        -0.1375     -0.0106     -0.0000      0.0190      0.0068
        36        -0.0860      0.3833      0.0000      0.1543      0.0556
        37         0.0000     -0.0000      0.2082      0.0433      0.0156
        38         0.0000     -0.0000     -0.3306      0.1093      0.0404
        39        -0.4884      0.2699     -0.0000      0.3114      0.1154
        40         0.0603      0.3130      0.0000      0.1016      0.0378
        41         0.1407      0.3186      0.0000      0.1213      0.0455
        42         0.1797     -0.4846      0.0000      0.2671      0.1010
        43         0.0984      0.2117      0.0000      0.0545      0.0208
        44        -0.0000      0.0000      0.4069      0.1655      0.0634
        45        -0.4193     -0.1576      0.0000      0.2007      0.0782
        46         0.0000     -0.0000     -0.1820      0.0331      0.0129
        47         0.0000     -0.0000      0.3137      0.0984      0.0385
        48         0.4105     -0.2302      0.0000      0.2215      0.0870
        49         0.0945     -0.1516     -0.0000      0.0319      0.0126
        50        -0.0000      0.0000     -0.2186      0.0478      0.0190
        51        -0.0000      0.0000     -0.2624      0.0689      0.0276
        52         0.0000      0.0000      0.0286      0.0008      0.0003
        53         0.1784     -0.1840     -0.0000      0.0657      0.0267
        54         0.0000     -0.0000      0.1326      0.0176      0.0072
        55        -0.0388      0.0108      0.0000      0.0016      0.0007
        56        -0.0000      0.0000     -0.0482      0.0023      0.0010
        57        -0.2740     -0.0747      0.0000      0.0807      0.0333
        58        -0.2127      0.3237      0.0000      0.1500      0.0623
        59         0.0000     -0.0000     -0.1675      0.0281      0.0118
        60         0.1231     -0.0786      0.0000      0.0213      0.0090
        61        -0.0000     -0.0000      0.1027      0.0106      0.0045
        62        -0.1694     -0.1295     -0.0000      0.0455      0.0193
        63        -0.0000      0.0000      0.2216      0.0491      0.0209
        64        -0.0955     -0.3076      0.0000      0.1037      0.0443
        65        -0.0866      0.0052     -0.0000      0.0075      0.0032
        66         0.2693      0.4548      0.0000      0.2793      0.1207
        67        -0.0656      0.2790     -0.0000      0.0822      0.0359
        68         0.0000     -0.0000     -0.0988      0.0098      0.0043
        69         0.0000      0.0000     -0.7915      0.6265      0.2741
        70        -0.2456     -0.0081      0.0000      0.0604      0.0266
        71        -0.0000     -0.0000      0.2796      0.0782      0.0345
        72         0.0181     -0.2178     -0.0000      0.0478      0.0212
        73         0.0000     -0.0000     -0.0650      0.0042      0.0019
        74         0.1761     -0.0836      0.0000      0.0380      0.0170
        75         0.0036      0.5041      0.0000      0.2541      0.1143
        76        -0.1268      0.1619     -0.0000      0.0423      0.0191
        77         0.0000      0.0000      0.2389      0.0571      0.0258
        78        -0.0191      0.0761     -0.0000      0.0062      0.0028
        79         0.3385      0.1997     -0.0000      0.1545      0.0709
        80        -0.0000     -0.0000     -0.1470      0.0216      0.0099
        81        -0.0000     -0.0000      0.4102      0.1682      0.0775
        82        -0.0000     -0.0000     -0.3705      0.1373      0.0636
        83         0.1065      0.4231      0.0000      0.1903      0.0883
        84        -0.3437     -0.1055      0.0000      0.1293      0.0601
        85         0.1676     -0.2796      0.0000      0.1063      0.0497
        86         0.0000      0.0000      0.1496      0.0224      0.0105
        87         0.0000      0.0000     -0.0655      0.0043      0.0020
        88         0.0000      0.0000      0.1595      0.0255      0.0120
        89         0.1537      0.1760     -0.0000      0.0546      0.0258
        90        -0.0247     -0.1479     -0.0000      0.0225      0.0107
        91         0.4410      0.1682     -0.0000      0.2227      0.1075
        92        -0.0000     -0.0000     -0.1019      0.0104      0.0050
        93         0.0000      0.0000      0.2279      0.0520      0.0253
        94         0.0689     -0.1942     -0.0000      0.0425      0.0207
        95         0.0534      0.0589     -0.0000      0.0063      0.0031
        96         0.0000      0.0000      0.1622      0.0263      0.0129
        97         0.0000      0.0000     -0.1328      0.0176      0.0087
        98        -0.2552      0.1174     -0.0000      0.0789      0.0391
        99        -0.0000     -0.0000     -0.1224      0.0150      0.0075
       100        -0.2232     -0.4395     -0.0000      0.2430      0.1223
       101        -0.1336     -0.2417     -0.0000      0.0763      0.0385
       102        -0.3824     -0.2606      0.0000      0.2142      0.1088
       103         0.0430      0.0114      0.0000      0.0020      0.0010
       104         0.2510      0.1221      0.0000      0.0779      0.0400
       105        -0.0000      0.0000      0.0768      0.0059      0.0030
       106         0.0891     -0.0773      0.0000      0.0139      0.0072
       107         0.0000     -0.0000      0.1128      0.0127      0.0066
       108         0.2338      0.1181     -0.0000      0.0686      0.0355
       109         0.0586      0.0754      0.0000      0.0091      0.0047
       110        -0.4567     -0.0938      0.0000      0.2173      0.1134
       111         0.1383     -0.3201      0.0000      0.1216      0.0636
       112         0.0466      0.2885     -0.0000      0.0854      0.0452
       113         0.0000      0.0000     -0.0138      0.0002      0.0001
       114        -0.0000      0.0000      0.1517      0.0230      0.0122
       115         0.0045      0.3279     -0.0000      0.1075      0.0571
       116         0.0000     -0.0000     -0.1226      0.0150      0.0081
       117         0.1949      0.1577     -0.0000      0.0628      0.0338
       118         0.0000     -0.0000     -0.2520      0.0635      0.0345
       119         0.0912     -0.2603      0.0000      0.0761      0.0414
       120         0.0000     -0.0000      0.0826      0.0068      0.0037
       121        -0.2107     -0.2278      0.0000      0.0963      0.0527
       122         0.0000     -0.0000     -0.1428      0.0204      0.0112
       123        -0.0000      0.0000      0.0610      0.0037      0.0020
[...]
     12   0.000000D+00  0.234458D+00  0.000000D+00  0.000000D+00  0.279044D+00
     13   0.000000D+00 -0.687462D-01  0.000000D+00  0.000000D+00 -0.739488D-01
     14   0.000000D+00  0.290048D+00  0.000000D+00  0.000000D+00 -0.458658D+00
     15   0.749624D+00  0.000000D+00 -0.290515D+00 -0.790267D+00  0.000000D+00
     16   0.423280D+00  0.000000D+00 -0.100461D+00 -0.378126D+00  0.000000D+00
               561           562           563           564           565 
      1  -0.185765D+03 -0.185741D+03 -0.185729D+03 -0.185720D+03 -0.185719D+03
      2   0.000000D+00  0.000000D+00  0.000000D+00  0.000000D+00  0.112863D-01
      3   0.000000D+00  0.000000D+00  0.000000D+00  0.000000D+00  0.632302D-01
      4   0.150784D+00  0.758211D-01  0.162570D+00 -0.318639D-01  0.000000D+00
      5   0.000000D+00  0.000000D+00  0.000000D+00  0.000000D+00 -0.523500D-01
      6   0.000000D+00  0.000000D+00  0.000000D+00  0.000000D+00 -0.182514D+00
      7  -0.437924D+00 -0.224584D+00 -0.504366D+00  0.799419D-01  0.000000D+00
      8  -0.427627D-01 -0.372711D+00  0.140193D+00 -0.350542D-01  0.000000D+00
      9   0.834142D+00  0.168351D+01  0.109679D+00  0.355956D+00  0.000000D+00
     10   0.000000D+00  0.000000D+00  0.000000D+00  0.000000D+00  0.799602D-01
     11   0.000000D+00  0.000000D+00  0.000000D+00  0.000000D+00 -0.163238D+01
     12   0.000000D+00  0.000000D+00  0.000000D+00  0.000000D+00 -0.256809D-01
     13   0.000000D+00  0.000000D+00  0.000000D+00  0.000000D+00  0.149230D+00
     14   0.000000D+00  0.000000D+00  0.000000D+00  0.000000D+00 -0.156807D+00
     15  -0.888403D+00 -0.209907D+01 -0.884655D-01 -0.428848D+00  0.000000D+00
     16   0.283732D-01 -0.169422D+00  0.111838D+00 -0.741824D-01  0.000000D+00
               566           567           568           569           570 
      1  -0.185678D+03 -0.185664D+03 -0.185658D+03 -0.185643D+03 -0.185630D+03
      2   0.786090D-01 -0.130262D+00  0.000000D+00  0.671363D-01  0.000000D+00
      3   0.225819D-01  0.172810D+00  0.000000D+00 -0.790346D-02  0.000000D+00
      4   0.000000D+00  0.000000D+00  0.679995D-01  0.000000D+00 -0.743485D-01
      5  -0.285332D+00  0.418959D+00  0.000000D+00 -0.229745D+00  0.000000D+00
      6  -0.325265D-01 -0.532541D+00  0.000000D+00  0.354047D-01  0.000000D+00
      7   0.000000D+00  0.000000D+00 -0.210227D+00  0.000000D+00  0.219965D+00
      8   0.000000D+00  0.000000D+00  0.533434D-01  0.000000D+00  0.254632D-01
      9   0.000000D+00  0.000000D+00 -0.113302D+00  0.000000D+00 -0.209049D+00
     10   0.356640D+00 -0.199127D+00  0.000000D+00 -0.855542D-01  0.000000D+00
     11  -0.300667D+01 -0.157097D+01  0.000000D+00 -0.634413D+00  0.000000D+00
     12  -0.515814D-01  0.329600D+00  0.000000D+00  0.129650D+00  0.000000D+00
     13   0.121785D+00  0.968201D-01  0.000000D+00  0.177579D+00  0.000000D+00
     14  -0.421190D+00 -0.714719D+00  0.000000D+00 -0.326612D-02  0.000000D+00
     15   0.000000D+00  0.000000D+00  0.189584D+00  0.000000D+00  0.269814D+00
     16   0.000000D+00  0.000000D+00 -0.595363D-02  0.000000D+00  0.913299D-02
               571           572           573           574           575 
      1  -0.185625D+03 -0.185611D+03 -0.185601D+03 -0.185579D+03 -0.185574D+03
      2   0.892454D-01  0.000000D+00  0.187357D+00  0.000000D+00  0.202859D+00
      3  -0.125737D+00  0.000000D+00  0.128308D-01  0.000000D+00  0.707163D-01
      4   0.000000D+00 -0.167185D-01  0.000000D+00 -0.222841D+00  0.000000D+00
      5  -0.292649D+00  0.000000D+00 -0.619723D+00  0.000000D+00 -0.653571D+00
      6   0.391768D+00  0.000000D+00 -0.392663D-01  0.000000D+00 -0.230764D+00
      7   0.000000D+00  0.467932D-01  0.000000D+00  0.691101D+00  0.000000D+00
      8   0.000000D+00  0.685767D-01  0.000000D+00  0.322550D-01  0.000000D+00
      9   0.000000D+00 -0.265436D+00  0.000000D+00 -0.124575D+01  0.000000D+00
     10   0.687688D-01  0.000000D+00  0.912403D-02  0.000000D+00 -0.146237D+01
     11   0.567800D+00  0.000000D+00 -0.313663D+00  0.000000D+00  0.161485D+01
     12  -0.280565D+00  0.000000D+00  0.353868D-01  0.000000D+00 -0.349507D+00
     13   0.171183D+00  0.000000D+00 -0.559496D-01  0.000000D+00 -0.818927D-01
     14   0.604813D+00  0.000000D+00  0.590189D+00  0.000000D+00 -0.125292D+01
     15   0.000000D+00  0.305318D+00  0.000000D+00  0.172802D+01  0.000000D+00
     16   0.000000D+00  0.121601D+00  0.000000D+00 -0.149171D+00  0.000000D+00
               576           577           578           579           580 
      1  -0.185558D+03 -0.185545D+03 -0.185543D+03 -0.185532D+03 -0.185507D+03
      2   0.729478D-01  0.000000D+00 -0.105819D+00  0.903172D-01 -0.166238D-01
      3  -0.130706D+00  0.000000D+00 -0.162427D-01  0.685036D-01 -0.945935D-01
      4   0.000000D+00 -0.268959D+00  0.000000D+00  0.000000D+00  0.000000D+00
      5  -0.250604D+00  0.000000D+00  0.350134D+00 -0.309074D+00  0.581102D-01
      6   0.462451D+00  0.000000D+00  0.662296D-01 -0.240061D+00  0.299221D+00
      7   0.000000D+00  0.859404D+00  0.000000D+00  0.000000D+00  0.000000D+00
      8   0.000000D+00 -0.637844D+00  0.000000D+00  0.000000D+00  0.000000D+00
      9   0.000000D+00  0.173027D+01  0.000000D+00  0.000000D+00  0.000000D+00
     10  -0.456019D+00  0.000000D+00 -0.634079D+00 -0.198934D+00  0.420583D+00
     11  -0.430095D+00  0.000000D+00  0.105131D+01  0.145096D+01  0.178240D+00
     12  -0.715052D+00  0.000000D+00 -0.212795D+00  0.483272D+00  0.198493D-01
     13  -0.511335D-01  0.000000D+00 -0.162197D-01 -0.214555D+00  0.370456D+00
     14  -0.365228D+00  0.000000D+00 -0.418880D+00  0.406916D+00  0.331600D+00
     15   0.000000D+00 -0.203867D+01  0.000000D+00  0.000000D+00  0.000000D+00
     16   0.000000D+00 -0.522098D+00  0.000000D+00  0.000000D+00  0.000000D+00
               581           582           583           584           585 
      1  -0.185506D+03 -0.185484D+03 -0.185449D+03 -0.185432D+03 -0.185427D+03
      2   0.000000D+00  0.000000D+00  0.000000D+00  0.312682D-01  0.000000D+00
      3   0.000000D+00  0.000000D+00  0.000000D+00  0.111156D-01  0.000000D+00
      4  -0.107576D+00  0.373382D-01 -0.233256D+00  0.000000D+00  0.109637D-01
      5   0.000000D+00  0.000000D+00  0.000000D+00 -0.119508D+00  0.000000D+00
      6   0.000000D+00  0.000000D+00  0.000000D+00 -0.601014D-01  0.000000D+00
      7   0.364833D+00 -0.121961D+00  0.745992D+00  0.000000D+00 -0.370710D-01
      8   0.152621D+00  0.473663D-01 -0.649957D+00  0.000000D+00  0.133994D+00
      9  -0.117112D+01 -0.541616D-01  0.119087D+01  0.000000D+00 -0.371478D+00
     10   0.000000D+00  0.000000D+00  0.000000D+00  0.473704D+00  0.000000D+00
     11   0.000000D+00  0.000000D+00  0.000000D+00 -0.217989D+00  0.000000D+00
     12   0.000000D+00  0.000000D+00  0.000000D+00  0.452006D+00  0.000000D+00
     13   0.000000D+00  0.000000D+00  0.000000D+00  0.610243D-01  0.000000D+00
     14   0.000000D+00  0.000000D+00  0.000000D+00  0.465034D+00  0.000000D+00
     15   0.150588D+01  0.137067D+00 -0.146401D+01  0.000000D+00  0.428262D+00
     16   0.330108D-01  0.229085D+00 -0.698512D+00  0.000000D+00  0.675198D+00
               586           587           588           589           590 
      1  -0.185408D+03 -0.185393D+03 -0.185382D+03 -0.185362D+03 -0.185339D+03
      2   0.183986D-01 -0.118539D-01 -0.727810D-01  0.129732D+00  0.000000D+00
      3   0.401752D-01 -0.990087D-01 -0.135777D+00 -0.102394D+00  0.000000D+00
      4   0.000000D+00  0.000000D+00  0.000000D+00  0.000000D+00  0.154344D+00
      5  -0.596348D-01  0.437756D-01  0.226761D+00 -0.491121D+00  0.000000D+00
      6  -0.117826D+00  0.331062D+00  0.481670D+00  0.343693D+00  0.000000D+00
      7   0.000000D+00  0.000000D+00  0.000000D+00  0.000000D+00 -0.527946D+00
      8   0.000000D+00  0.000000D+00  0.000000D+00  0.000000D+00  0.144546D+00
      9   0.000000D+00  0.000000D+00  0.000000D+00  0.000000D+00  0.110908D+00
     10  -0.276038D+00  0.712094D-01  0.112528D+00  0.744040D+00  0.000000D+00
     11  -0.740202D+00 -0.707831D+00 -0.250250D+01  0.466127D-01  0.000000D+00
     12  -0.164441D+00 -0.187101D+00 -0.380062D+00  0.117896D+00  0.000000D+00
     13   0.131420D+00  0.417194D+00 -0.551261D-01 -0.297834D-01  0.000000D+00
     14  -0.557952D+00 -0.252448D+00 -0.569412D+00  0.136926D+01  0.000000D+00
     15   0.000000D+00  0.000000D+00  0.000000D+00  0.000000D+00 -0.145667D+00
     16   0.000000D+00  0.000000D+00  0.000000D+00  0.000000D+00  0.122074D+00
               591           592           593           594           595 
      1  -0.185335D+03 -0.185328D+03 -0.185312D+03 -0.185265D+03 -0.185265D+03
      2  -0.302587D-02  0.000000D+00  0.000000D+00  0.127285D-01  0.000000D+00
      3  -0.857299D-01  0.000000D+00  0.000000D+00 -0.147129D-01  0.000000D+00
      4   0.000000D+00 -0.730617D-01 -0.107429D+00  0.000000D+00 -0.500084D-01
      5   0.110140D-01  0.000000D+00  0.000000D+00 -0.621571D-01  0.000000D+00
      6   0.282947D+00  0.000000D+00  0.000000D+00  0.288617D-01  0.000000D+00
      7   0.000000D+00  0.233834D+00  0.377525D+00  0.000000D+00  0.174350D+00
      8   0.000000D+00 -0.837367D-01 -0.386088D+00  0.000000D+00 -0.470252D-01
      9   0.000000D+00  0.206845D+00  0.642827D+00  0.000000D+00 -0.318367D-01
     10   0.270404D+00  0.000000D+00  0.000000D+00  0.163643D+00  0.000000D+00
     11  -0.127486D+00  0.000000D+00  0.000000D+00  0.948613D+00  0.000000D+00
     12   0.667789D+00  0.000000D+00  0.000000D+00  0.313180D+00  0.000000D+00
     13  -0.341657D+00  0.000000D+00  0.000000D+00 -0.183147D+00  0.000000D+00
     14   0.312171D+00  0.000000D+00  0.000000D+00  0.870453D+00  0.000000D+00
     15   0.000000D+00  0.195500D+00 -0.579283D+00  0.000000D+00  0.172689D+00
     16   0.000000D+00  0.194454D+00 -0.397011D+00  0.000000D+00 -0.375957D+00
               596           597           598           599           600 
      1  -0.185243D+03 -0.185238D+03 -0.185221D+03 -0.185216D+03 -0.185187D+03
      2  -0.685113D-01  0.000000D+00  0.138563D+00  0.000000D+00  0.343815D-01
      3   0.187246D-01  0.000000D+00  0.143301D+00  0.000000D+00 -0.147311D-01
      4   0.000000D+00 -0.601591D-01  0.000000D+00  0.438428D-01  0.000000D+00
      5   0.266630D+00  0.000000D+00 -0.533777D+00  0.000000D+00 -0.130975D+00
      6  -0.521310D-01  0.000000D+00 -0.499130D+00  0.000000D+00  0.389170D-01
      7   0.000000D+00  0.193147D+00  0.000000D+00 -0.162499D+00  0.000000D+00
      8   0.000000D+00  0.264671D-01  0.000000D+00  0.386146D+00  0.000000D+00
      9   0.000000D+00 -0.128872D+00  0.000000D+00 -0.135663D+01  0.000000D+00
     10  -0.450230D+00  0.000000D+00 -0.868986D+00  0.000000D+00  0.922424D-02
     11  -0.647556D-01  0.000000D+00 -0.129092D+00  0.000000D+00  0.212182D+00
     12  -0.491278D+00  0.000000D+00 -0.833437D-01  0.000000D+00  0.252788D+00
     13  -0.144536D-02  0.000000D+00  0.100680D-02  0.000000D+00  0.255636D-01
     14  -0.833702D+00  0.000000D+00 -0.687249D+00  0.000000D+00  0.210963D+00
     15   0.000000D+00 -0.330424D-01  0.000000D+00  0.155383D+01  0.000000D+00
     16   0.000000D+00  0.435338D-01  0.000000D+00  0.356405D+00  0.000000D+00
               601           602           603           604           605 
      1  -0.185170D+03 -0.185162D+03 -0.185158D+03 -0.185143D+03 -0.185131D+03
      2   0.000000D+00  0.000000D+00  0.000000D+00  0.806818D-01  0.408246D-01
      3   0.000000D+00  0.000000D+00  0.000000D+00  0.276898D-01  0.717314D-02
      4   0.687771D-02 -0.119393D+00  0.315005D-01  0.000000D+00  0.000000D+00
      5   0.000000D+00  0.000000D+00  0.000000D+00 -0.303046D+00 -0.161538D+00
      6   0.000000D+00  0.000000D+00  0.000000D+00 -0.771960D-01 -0.299133D-01
      7  -0.435278D-01  0.426713D+00 -0.113544D+00  0.000000D+00  0.000000D+00
      8   0.213434D-02 -0.326365D-01 -0.109976D+00  0.000000D+00  0.000000D+00
      9   0.220068D+00 -0.529430D+00  0.595995D+00  0.000000D+00  0.000000D+00
     10   0.000000D+00  0.000000D+00  0.000000D+00 -0.102992D+01  0.289069D+00
     11   0.000000D+00  0.000000D+00  0.000000D+00 -0.301672D+01 -0.137763D+01
     12   0.000000D+00  0.000000D+00  0.000000D+00 -0.567681D-01  0.345962D+00
     13   0.000000D+00  0.000000D+00  0.000000D+00  0.569094D-01  0.113542D-01
     14   0.000000D+00  0.000000D+00  0.000000D+00 -0.150256D+01 -0.166229D+00
     15  -0.285826D+00  0.706254D+00 -0.523014D+00  0.000000D+00  0.000000D+00
     16   0.114409D+00 -0.705620D-01 -0.237920D+00  0.000000D+00  0.000000D+00
               606           607           608           609           610 
      1  -0.185066D+03 -0.185043D+03 -0.185040D+03 -0.185009D+03 -0.185008D+03
      2   0.259451D-02 -0.156407D+00  0.000000D+00  0.126399D-01  0.000000D+00
      3  -0.225077D-01  0.284172D-01  0.000000D+00 -0.497518D-01  0.000000D+00
      4   0.000000D+00  0.000000D+00 -0.635663D-01  0.000000D+00  0.705069D-01
      5  -0.225972D-01  0.594565D+00  0.000000D+00 -0.633296D-01  0.000000D+00
      6   0.915747D-01 -0.996718D-01  0.000000D+00  0.215422D+00  0.000000D+00
      7   0.000000D+00  0.000000D+00  0.257638D+00  0.000000D+00 -0.249370D+00
      8   0.000000D+00  0.000000D+00 -0.255684D+00  0.000000D+00  0.207619D+00
      9   0.000000D+00  0.000000D+00  0.658318D+00  0.000000D+00 -0.225291D+00
     10   0.207902D+00 -0.955696D+00  0.000000D+00  0.300639D+00  0.000000D+00
     11   0.218694D+00  0.270809D+01  0.000000D+00 -0.256891D+01  0.000000D+00
     12   0.446330D-01 -0.298384D+00  0.000000D+00 -0.164046D+00  0.000000D+00
     13   0.438505D-01 -0.140147D+00  0.000000D+00  0.615607D-01  0.000000D+00
     14   0.448041D+00 -0.894990D+00  0.000000D+00 -0.445030D-01  0.000000D+00
     15   0.000000D+00  0.000000D+00 -0.774780D+00  0.000000D+00  0.157500D+00
     16   0.000000D+00  0.000000D+00  0.117327D-01  0.000000D+00  0.243675D+00
               611           612           613           614           615 
      1  -0.185001D+03 -0.184985D+03 -0.184982D+03 -0.184960D+03 -0.184946D+03
      2   0.000000D+00  0.110932D-01 -0.983323D-01 -0.936660D-01  0.327771D-01
      3   0.000000D+00 -0.250669D-01 -0.443351D-01  0.101558D+00  0.131696D-01
      4   0.475845D-01  0.000000D+00  0.000000D+00  0.000000D+00  0.000000D+00
      5   0.000000D+00 -0.665877D-01  0.408184D+00  0.383683D+00 -0.110509D+00
      6   0.000000D+00  0.902262D-01  0.187023D+00 -0.402670D+00 -0.473292D-01
      7  -0.180780D+00  0.000000D+00  0.000000D+00  0.000000D+00  0.000000D+00
      8  -0.354709D-03  0.000000D+00  0.000000D+00  0.000000D+00  0.000000D+00
      9   0.437744D+00  0.000000D+00  0.000000D+00  0.000000D+00  0.000000D+00
     10   0.000000D+00  0.396848D+00 -0.192450D+00 -0.161820D+00 -0.268561D+00
     11   0.000000D+00 -0.691114D+00  0.390341D+00  0.220852D+01 -0.311008D+00
     12   0.000000D+00  0.173546D+00 -0.279927D+00  0.287278D+00  0.209214D+00
     13   0.000000D+00 -0.921002D-01 -0.358619D-01 -0.167757D+00 -0.695867D-02
     14   0.000000D+00  0.311906D+00 -0.618560D+00 -0.133177D+00 -0.367104D+00
     15  -0.417126D+00  0.000000D+00  0.000000D+00  0.000000D+00  0.000000D+00
     16  -0.109563D-01  0.000000D+00  0.000000D+00  0.000000D+00  0.000000D+00
               616           617           618           619           620 
      1  -0.184923D+03 -0.184896D+03 -0.184881D+03 -0.184866D+03 -0.184813D+03
      2   0.116064D-01 -0.617634D-04  0.000000D+00  0.000000D+00 -0.503296D-01
      3  -0.178733D+00 -0.847180D-01  0.000000D+00  0.000000D+00 -0.807059D-03
      4   0.000000D+00  0.000000D+00  0.282279D-01 -0.331651D-01  0.000000D+00
      5  -0.388079D-01  0.286692D-01  0.000000D+00  0.000000D+00  0.161817D+00
      6   0.694121D+00  0.350905D+00  0.000000D+00  0.000000D+00 -0.190720D-01
      7   0.000000D+00  0.000000D+00 -0.980272D-01  0.126725D+00  0.000000D+00
      8   0.000000D+00  0.000000D+00 -0.580313D-01 -0.113189D+00  0.000000D+00
      9   0.000000D+00  0.000000D+00  0.194801D+00  0.233103D+00  0.000000D+00
     10  -0.157447D+01 -0.388325D+00  0.000000D+00  0.000000D+00  0.190000D+00
     11   0.265543D+00 -0.614159D-01  0.000000D+00  0.000000D+00  0.105449D+00
     12  -0.103130D+01 -0.251373D+00  0.000000D+00  0.000000D+00  0.640130D-01
     13  -0.103887D+00 -0.271978D+00  0.000000D+00  0.000000D+00  0.101567D+00
     14  -0.185274D+01 -0.552397D+00  0.000000D+00  0.000000D+00  0.280927D+00
     15   0.000000D+00  0.000000D+00 -0.853560D-01 -0.259548D+00  0.000000D+00
     16   0.000000D+00  0.000000D+00 -0.205336D-01  0.168953D-01  0.000000D+00
               621           622           623           624           625 
      1  -0.184804D+03 -0.184793D+03 -0.184776D+03 -0.184670D+03 -0.184639D+03
      2   0.101203D+00 -0.756901D-01 -0.504851D-01 -0.497056D-01 -0.347970D-01
      3   0.140854D-01  0.816482D-01 -0.520545D-01  0.488119D-01  0.141591D-01
      4   0.000000D+00  0.000000D+00  0.000000D+00  0.000000D+00  0.000000D+00
      5  -0.437303D+00  0.307937D+00  0.208338D+00  0.207053D+00  0.170932D+00
      6  -0.617293D-01 -0.307850D+00  0.228075D+00 -0.181817D+00 -0.532079D-01
      7   0.000000D+00  0.000000D+00  0.000000D+00  0.000000D+00  0.000000D+00
      8   0.000000D+00  0.000000D+00  0.000000D+00  0.000000D+00  0.000000D+00
      9   0.000000D+00  0.000000D+00  0.000000D+00  0.000000D+00  0.000000D+00
     10  -0.329480D-01  0.521076D+00 -0.396426D+00  0.679431D+00  0.409727D+00
     11   0.926014D+00 -0.188739D+01 -0.727208D+00 -0.120622D+01 -0.132673D+00
     12   0.274151D+00  0.444290D+00 -0.451924D+00  0.296391D+00 -0.731903D-01
     13   0.389441D-01  0.108994D+00  0.128971D+00  0.258022D-01  0.113362D+00
     14   0.477088D+00  0.616598D-01 -0.423844D+00  0.238461D+00  0.822772D-03
     15   0.000000D+00  0.000000D+00  0.000000D+00  0.000000D+00  0.000000D+00
     16   0.000000D+00  0.000000D+00  0.000000D+00  0.000000D+00  0.000000D+00
               626           627           628           629           630 
      1  -0.184549D+03 -0.184476D+03 -0.184342D+03 -0.184319D+03 -0.184209D+03
      2   0.383434D-01 -0.485008D-02 -0.153386D-01  0.116944D-01  0.769816D-02
      3  -0.104327D-01  0.330128D-02  0.118256D-01 -0.196111D-01  0.193118D-01
      4   0.000000D+00  0.000000D+00  0.000000D+00  0.000000D+00  0.000000D+00
      5  -0.132562D+00 -0.142211D-01  0.524206D-01 -0.664993D-01 -0.789912D-02
      6   0.485747D-01  0.328142D-02 -0.275705D-01  0.573848D-01 -0.561309D-01
      7   0.000000D+00  0.000000D+00  0.000000D+00  0.000000D+00  0.000000D+00
      8   0.000000D+00  0.000000D+00  0.000000D+00  0.000000D+00  0.000000D+00
      9   0.000000D+00  0.000000D+00  0.000000D+00  0.000000D+00  0.000000D+00
     10  -0.209536D+00  0.221568D-01 -0.554262D-01 -0.167305D+00  0.119579D+00
     11   0.101031D+01 -0.148341D+00 -0.739489D-02  0.562172D-01 -0.199749D+00
     12  -0.442863D-02 -0.178904D+00 -0.906400D-01 -0.519427D-01 -0.105760D+00
     13  -0.171165D+00 -0.633577D-01 -0.801922D-02 -0.689296D-01  0.575300D-01
     14   0.949044D-01 -0.126376D-01  0.192906D+00 -0.219889D+00  0.596635D-01
     15   0.000000D+00  0.000000D+00  0.000000D+00  0.000000D+00  0.000000D+00
     16   0.000000D+00  0.000000D+00  0.000000D+00  0.000000D+00  0.000000D+00
 Unable to Open any file for archive entry.
 1\1\GINC-HEL10\SP\RLC-BLYP TD-FC\Gen\C1H2O2\SABYASACHI\21-Mar-2022\0\\
 #P TD(Nstates=10000) lc-blyp/Gen SCF(maxcycles=100) Int(Grid=ultrafine
 )\\xGDB7_00001_tier4.com\\0,1\O,0,-1.023804,-0.438792,0.\C,0,0.,0.4189
 52,0.\O,0,1.152985,0.109983,0.\H,0,-0.656942,-1.333012,0.\H,0,-0.37649
 9,1.44977,0.\\Version=EM64L-G16RevC.01\State=1-A'\HF=-189.2410246\RMSD
 =9.577e-09\PG=CS [SG(C1H2O2)]\\@
 The archive entry for this job was punched.


 A FOOL CAN ASK MORE QUESTIONS THAN
 A WISE MAN CAN ANSWER.
 Job cpu time:       0 days  0 hours  5 minutes 15.2 seconds.
 Elapsed time:       0 days  0 hours  0 minutes 39.7 seconds.
 File lengths (MBytes):  RWF=    508 Int=      0 D2E=      0 Chk=    107 Scr=      1
 Normal termination of Gaussian 16 at Mon Mar 21 20:19:31 2022.
