 Entering Gaussian System, Link 0=g16
 Input=000025.com
 Output=000025.log
 Initial command:
 /home/sabyasachi/g16/l1.exe "/scratch/sabyasachi/PBS_7976225.helios/Gau-109394.inp" -scrdir="/scratch/sabyasachi/PBS_7976225.helios/"
 Entering Link 1 = /home/sabyasachi/g16/l1.exe PID=    109395.
  
 Copyright (c) 1988-2019, Gaussian, Inc.  All Rights Reserved.
  
 This is part of the Gaussian(R) 16 program.  It is based on
 the Gaussian(R) 09 system (copyright 2009, Gaussian, Inc.),
 the Gaussian(R) 03 system (copyright 2003, Gaussian, Inc.),
 the Gaussian(R) 98 system (copyright 1998, Gaussian, Inc.),
 the Gaussian(R) 94 system (copyright 1995, Gaussian, Inc.),
 the Gaussian 92(TM) system (copyright 1992, Gaussian, Inc.),
 the Gaussian 90(TM) system (copyright 1990, Gaussian, Inc.),
 the Gaussian 88(TM) system (copyright 1988, Gaussian, Inc.),
 the Gaussian 86(TM) system (copyright 1986, Carnegie Mellon
 University), and the Gaussian 82(TM) system (copyright 1983,
 Carnegie Mellon University). Gaussian is a federally registered
 trademark of Gaussian, Inc.
  
 This software contains proprietary and confidential information,
 including trade secrets, belonging to Gaussian, Inc.
  
 This software is provided under written license and may be
 used, copied, transmitted, or stored only in accord with that
 written license.
  
 The following legend is applicable only to US Government
 contracts under FAR:
  
                    RESTRICTED RIGHTS LEGEND
  
 Use, reproduction and disclosure by the US Government is
 subject to restrictions as set forth in subparagraphs (a)
 and (c) of the Commercial Computer Software - Restricted
 Rights clause in FAR 52.227-19.
  
 Gaussian, Inc.
 340 Quinnipiac St., Bldg. 40, Wallingford CT 06492
  
  
 ---------------------------------------------------------------
 Warning -- This program may not be used in any manner that
 competes with the business of Gaussian, Inc. or will provide
 assistance to any competitor of Gaussian, Inc.  The licensee
 of this program is prohibited from giving any competitor of
 Gaussian, Inc. access to this program.  By using this program,
 the user acknowledges that Gaussian, Inc. is engaged in the
 business of creating and licensing software in the field of
 computational chemistry and represents and warrants to the
 licensee that it is not a competitor of Gaussian, Inc. and that
 it will not use this program in any manner prohibited above.
 ---------------------------------------------------------------
  

 Cite this work as:
 Gaussian 16, Revision C.01,
 M. J. Frisch, G. W. Trucks, H. B. Schlegel, G. E. Scuseria, 
 M. A. Robb, J. R. Cheeseman, G. Scalmani, V. Barone, 
 G. A. Petersson, H. Nakatsuji, X. Li, M. Caricato, A. V. Marenich, 
 J. Bloino, B. G. Janesko, R. Gomperts, B. Mennucci, H. P. Hratchian, 
 J. V. Ortiz, A. F. Izmaylov, J. L. Sonnenberg, D. Williams-Young, 
 F. Ding, F. Lipparini, F. Egidi, J. Goings, B. Peng, A. Petrone, 
 T. Henderson, D. Ranasinghe, V. G. Zakrzewski, J. Gao, N. Rega, 
 G. Zheng, W. Liang, M. Hada, M. Ehara, K. Toyota, R. Fukuda, 
 J. Hasegawa, M. Ishida, T. Nakajima, Y. Honda, O. Kitao, H. Nakai, 
 T. Vreven, K. Throssell, J. A. Montgomery, Jr., J. E. Peralta, 
 F. Ogliaro, M. J. Bearpark, J. J. Heyd, E. N. Brothers, K. N. Kudin, 
 V. N. Staroverov, T. A. Keith, R. Kobayashi, J. Normand, 
 K. Raghavachari, A. P. Rendell, J. C. Burant, S. S. Iyengar, 
 J. Tomasi, M. Cossi, J. M. Millam, M. Klene, C. Adamo, R. Cammi, 
 J. W. Ochterski, R. L. Martin, K. Morokuma, O. Farkas, 
 J. B. Foresman, and D. J. Fox, Gaussian, Inc., Wallingford CT, 2019.
 
 ******************************************
 Gaussian 16:  EM64L-G16RevC.01  3-Jul-2019
                21-Mar-2022 
 ******************************************
 %mem=64gb
 %nproc=8
 Will use up to    8 processors via shared memory.
 ----------------------------------------------------------------------
 #P TD(Nstates=10000) lc-blyp/Gen SCF(maxcycles=100) Int(Grid=ultrafine
 )
 ----------------------------------------------------------------------
 1/38=1,172=1/1;
 2/12=2,17=6,18=5,40=1/2;
 3/5=7,11=9,25=1,30=1,74=1000402,75=-5/1,2,3,8;
 4//1;
 5/5=2,7=100,38=5/2;
 8/6=1,10=1,108=10000/1;
 9/41=10000,42=1,70=2/14;
 6/7=2,8=2,9=2,10=2/1;
 99/5=1,9=1/99;
 Leave Link    1 at Mon Mar 21 20:07:48 2022, MaxMem=  8589934592 cpu:               0.4 elap:               0.1
 (Enter /home/sabyasachi/g16/l101.exe)
 ---------------------
 xGDB7_00001_tier4.com
 ---------------------
 Symbolic Z-matrix:
 Charge =  0 Multiplicity = 1
 7                    -1.07847  -0.1569    0. 
 6                     0.16196   0.38494   0. 
 8                     1.18917  -0.24546  0. 
 1                    -1.89843   0.41943  0. 
 1                    -1.17812  -1.15707  -0.00001 
 1                     0.14071   1.48995  -0.00001 
 
 ITRead=  0  0  0  0  0  0
 MicOpt= -1 -1 -1 -1 -1 -1
 NAtoms=      6 NQM=        6 NQMF=       0 NMMI=      0 NMMIF=      0
                NMic=       0 NMicF=      0.
                    Isotopes and Nuclear Properties:
 (Nuclear quadrupole moments (NQMom) in fm**2, nuclear magnetic moments (NMagM)
  in nuclear magnetons)

  Atom         1           2           3           4           5           6
 IAtWgt=          14          12          16           1           1           1
 AtmWgt=  14.0030740  12.0000000  15.9949146   1.0078250   1.0078250   1.0078250
 NucSpn=           2           0           0           1           1           1
 AtZEff=  -0.0000000  -0.0000000  -0.0000000  -0.0000000  -0.0000000  -0.0000000
 NQMom=    2.0440000   0.0000000   0.0000000   0.0000000   0.0000000   0.0000000
 NMagM=    0.4037610   0.0000000   0.0000000   2.7928460   2.7928460   2.7928460
 AtZNuc=   7.0000000   6.0000000   8.0000000   1.0000000   1.0000000   1.0000000
 Leave Link  101 at Mon Mar 21 20:07:48 2022, MaxMem=  8589934592 cpu:               0.7 elap:               0.1
 (Enter /home/sabyasachi/g16/l202.exe)
                          Input orientation:                          
 ---------------------------------------------------------------------
 Center     Atomic      Atomic             Coordinates (Angstroms)
 Number     Number       Type             X           Y           Z
 ---------------------------------------------------------------------
      1          7           0       -1.078471   -0.156900    0.000001
      2          6           0        0.161963    0.384944    0.000002
      3          8           0        1.189170   -0.245458   -0.000001
      4          1           0       -1.898427    0.419427   -0.000004
      5          1           0       -1.178124   -1.157073   -0.000005
      6          1           0        0.140706    1.489948   -0.000007
 ---------------------------------------------------------------------
                    Distance matrix (angstroms):
                    1          2          3          4          5
     1  N    0.000000
     2  C    1.353614   0.000000
     3  O    2.269370   1.205222   0.000000
     4  H    1.002238   2.060679   3.158374   0.000000
     5  H    1.005125   2.042951   2.536754   1.733260   0.000000
     6  H    2.049024   1.105208   2.027538   2.303059   2.957369
                    6
     6  H    0.000000
 Stoichiometry    CH3NO
 Framework group  C1[X(CH3NO)]
 Deg. of freedom    12
 Full point group                 C1      NOp   1
 Largest Abelian subgroup         C1      NOp   1
 Largest concise Abelian subgroup C1      NOp   1
                         Standard orientation:                         
 ---------------------------------------------------------------------
 Center     Atomic      Atomic             Coordinates (Angstroms)
 Number     Number       Type             X           Y           Z
 ---------------------------------------------------------------------
      1          7           0        1.078471   -0.156900   -0.000001
      2          6           0       -0.161963    0.384944   -0.000002
      3          8           0       -1.189170   -0.245458    0.000001
      4          1           0        1.898427    0.419427    0.000004
      5          1           0        1.178124   -1.157073    0.000005
      6          1           0       -0.140706    1.489948    0.000007
 ---------------------------------------------------------------------
 Rotational constants (GHZ):          74.0566602          11.4602930           9.9244769
 Leave Link  202 at Mon Mar 21 20:07:49 2022, MaxMem=  8589934592 cpu:               0.1 elap:               0.0
 (Enter /home/sabyasachi/g16/l301.exe)
 General basis read from cards:  (5D, 7F)
 Centers:       4      5      6
 S 3 1.00
     Exponent=  1.3010701000D+01 Coefficients=  1.9682158000D-02
     Exponent=  1.9622572000D+00 Coefficients=  1.3796524000D-01
     Exponent=  4.4453796000D-01 Coefficients=  4.7831935000D-01
 S 1 1.00
     Exponent=  1.2194962000D-01 Coefficients=  1.0000000000D+00
 P 1 1.00
     Exponent=  8.0000000000D-01 Coefficients=  1.0000000000D+00
 P 1 1.00
     Exponent=  1.1704099050D-01 Coefficients=  1.0000000000D+00
 ****
 Centers:       2
 S 5 1.00
     Exponent=  1.2384016938D+03 Coefficients=  5.4568832082D-03
     Exponent=  1.8629004992D+02 Coefficients=  4.0638409211D-02
     Exponent=  4.2251176346D+01 Coefficients=  1.8025593888D-01
     Exponent=  1.1676557932D+01 Coefficients=  4.6315121755D-01
     Exponent=  3.5930506482D+00 Coefficients=  4.4087173314D-01
 S 1 1.00
     Exponent=  4.0245147363D-01 Coefficients=  1.0000000000D+00
 S 1 1.00
     Exponent=  1.3090182668D-01 Coefficients=  1.0000000000D+00
 S 1 1.00
     Exponent=  6.7053540256D-02 Coefficients=  1.0000000000D+00
 P 3 1.00
     Exponent=  9.4680970621D+00 Coefficients=  3.8387871728D-02
     Exponent=  2.0103545142D+00 Coefficients=  2.1117025112D-01
     Exponent=  5.4771004707D-01 Coefficients=  5.1328172114D-01
 P 1 1.00
     Exponent=  1.5268613795D-01 Coefficients=  1.0000000000D+00
 D 1 1.00
     Exponent=  8.0000000000D-01 Coefficients=  1.0000000000D+00
 D 1 1.00
     Exponent=  1.1713185140D-01 Coefficients=  1.0000000000D+00
 ****
 Centers:       1
 S 5 1.00
     Exponent=  1.7128415853D+03 Coefficients= -5.3934125305D-03
     Exponent=  2.5764812677D+02 Coefficients= -4.0221581118D-02
     Exponent=  5.8458245853D+01 Coefficients= -1.7931144990D-01
     Exponent=  1.6198367905D+01 Coefficients= -4.6376317823D-01
     Exponent=  5.0052600809D+00 Coefficients= -4.4171422662D-01
 S 1 1.00
     Exponent=  5.8731856571D-01 Coefficients=  1.0000000000D+00
 S 1 1.00
     Exponent=  1.8764592253D-01 Coefficients=  1.0000000000D+00
 S 1 1.00
     Exponent=  9.6171241529D-02 Coefficients=  1.0000000000D+00
 P 3 1.00
     Exponent=  1.3571470233D+01 Coefficients= -4.0072398852D-02
     Exponent=  2.9257372874D+00 Coefficients= -2.1807045028D-01
     Exponent=  7.9927750754D-01 Coefficients= -5.1294466049D-01
 P 1 1.00
     Exponent=  2.1954348034D-01 Coefficients=  1.0000000000D+00
 D 1 1.00
     Exponent=  1.0000000000D+00 Coefficients=  1.0000000000D+00
 D 1 1.00
     Exponent=  1.6697708112D-01 Coefficients=  1.0000000000D+00
 ****
 Centers:       3
 S 5 1.00
     Exponent=  2.2661767785D+03 Coefficients= -5.3431809926D-03
     Exponent=  3.4087010191D+02 Coefficients= -3.9890039230D-02
     Exponent=  7.7363135167D+01 Coefficients= -1.7853911985D-01
     Exponent=  2.1479644940D+01 Coefficients= -4.6427684959D-01
     Exponent=  6.6589433124D+00 Coefficients= -4.4309745172D-01
 S 1 1.00
     Exponent=  8.0975975668D-01 Coefficients=  1.0000000000D+00
 S 1 1.00
     Exponent=  2.5530772234D-01 Coefficients=  1.0000000000D+00
 S 1 1.00
     Exponent=  7.6572453250D-02 Coefficients=  1.0000000000D+00
 P 3 1.00
     Exponent=  1.7721504317D+01 Coefficients=  4.3394573193D-02
     Exponent=  3.8635505440D+00 Coefficients=  2.3094120765D-01
     Exponent=  1.0480920883D+00 Coefficients=  5.1375311064D-01
 P 1 1.00
     Exponent=  2.7641544411D-01 Coefficients=  1.0000000000D+00
 P 1 1.00
     Exponent=  6.9002276350D-02 Coefficients=  1.0000000000D+00
 D 1 1.00
     Exponent=  1.2000000000D+00 Coefficients=  1.0000000000D+00
 D 1 1.00
     Exponent=  1.7992024323D-01 Coefficients=  1.0000000000D+00
 ****
 Ernie: Thresh=  0.10000D-02 Tol=  0.10000D-05 Strict=F.
 There are    93 symmetry adapted cartesian basis functions of A   symmetry.
 There are    87 symmetry adapted basis functions of A   symmetry.
    87 basis functions,   129 primitive gaussians,    93 cartesian basis functions
    12 alpha electrons       12 beta electrons
       nuclear repulsion energy        71.5209938297 Hartrees.
 IExCor=10402 DFT=T Ex=LC-B+HF Corr=LYP ExCW=0 ScaHFX=  1.000000
 ScaDFX=  1.000000  1.000000  1.000000  1.000000 ScalE2=  1.000000  1.000000
 IRadAn=      5 IRanWt=     -1 IRanGd=            0 ICorTp=0 IEmpDi=  4
 HFx  wShort=  0.000000 wLong=  0.470000 cFull=  0.000000 cShort=  0.000000 cLong=  1.000000
 DFx  wShort=  0.000000 wLong=  0.470000 cFull=  0.000000 cShort=  0.000000 cLong=  1.000000
 NAtoms=    6 NActive=    6 NUniq=    6 SFac= 1.00D+00 NAtFMM=   60 NAOKFM=F Big=F
 Integral buffers will be    131072 words long.
 Raffenetti 1 integral format.
 Two-electron integral symmetry is turned on.
 Leave Link  301 at Mon Mar 21 20:07:49 2022, MaxMem=  8589934592 cpu:               0.6 elap:               0.1
 (Enter /home/sabyasachi/g16/l302.exe)
 NPDir=0 NMtPBC=     1 NCelOv=     1 NCel=       1 NClECP=     1 NCelD=      1
         NCelK=      1 NCelE2=     1 NClLst=     1 CellRange=     0.0.
 One-electron integrals computed using PRISM.
 One-electron integral symmetry used in STVInt
 NBasis=    87 RedAO= T EigKep=  2.36D-04  NBF=    87
 NBsUse=    87 1.00D-06 EigRej= -1.00D+00 NBFU=    87
 Precomputing XC quadrature grid using
 IXCGrd= 4 IRadAn=           5 IRanWt=          -1 IRanGd=           0 AccXCQ= 0.00D+00.
 Generated NRdTot=       0 NPtTot=           0 NUsed=           0 NTot=          32
 NSgBfM=    93    93    93    93    93 MxSgAt=     6 MxSgA2=     6.
 Leave Link  302 at Mon Mar 21 20:07:49 2022, MaxMem=  8589934592 cpu:               1.0 elap:               0.1
 (Enter /home/sabyasachi/g16/l303.exe)
 DipDrv:  MaxL=1.
 Leave Link  303 at Mon Mar 21 20:07:49 2022, MaxMem=  8589934592 cpu:               0.2 elap:               0.0
 (Enter /home/sabyasachi/g16/l308.exe)
 Leave Link  308 at Mon Mar 21 20:07:49 2022, MaxMem=  8589934592 cpu:               0.2 elap:               0.1
 (Enter /home/sabyasachi/g16/l401.exe)
 ExpMin= 6.71D-02 ExpMax= 2.27D+03 ExpMxC= 3.41D+02 IAcc=3 IRadAn=         5 AccDes= 0.00D+00
 Harris functional with IExCor=10402 and IRadAn=       5 diagonalized for initial guess.
 HarFok:  IExCor=10402 AccDes= 0.00D+00 IRadAn=         5 IDoV= 1 UseB2=F ITyADJ=14
 ICtDFT=  3500011 ScaDFX=  1.000000  1.000000  1.000000  1.000000
 FoFCou: FMM=F IPFlag=           0 FMFlag=      100000 FMFlg1=           0
         NFxFlg=           0 DoJE=T BraDBF=F KetDBF=T FulRan=T
         wScrn=  0.000000 ICntrl=       500 IOpCl=  0 I1Cent=   200000004 NGrid=           0
         NMat0=    1 NMatS0=      1 NMatT0=    0 NMatD0=    1 NMtDS0=    0 NMtDT0=    0
 Petite list used in FoFCou.
 Harris En= -163.929537348720    
 JPrj=0 DoOrth=F DoCkMO=F.
 Leave Link  401 at Mon Mar 21 20:07:49 2022, MaxMem=  8589934592 cpu:               2.4 elap:               0.3
 (Enter /home/sabyasachi/g16/l502.exe)
 Keep R1 ints in memory in canonical form, NReq=22345428.
 FoFCou: FMM=F IPFlag=           0 FMFlag=           0 FMFlg1=           0
         NFxFlg=           0 DoJE=F BraDBF=F KetDBF=F FulRan=T
         wScrn=  0.000000 ICntrl=       600 IOpCl=  0 I1Cent=           0 NGrid=           0
         NMat0=    1 NMatS0=   3828 NMatT0=    0 NMatD0=    1 NMtDS0=    0 NMtDT0=    0
 Symmetry not used in FoFCou.
 Two-electron integral symmetry not used.
 Closed shell SCF:
 Using DIIS extrapolation, IDIIS=  1040.
 NGot=  8589934592 LenX=  8575257978 LenY=  8575248888
 Requested convergence on RMS density matrix=1.00D-08 within 100 cycles.
 Requested convergence on MAX density matrix=1.00D-06.
 Requested convergence on             energy=1.00D-06.
 No special actions if energy rises.
 Integral accuracy reduced to 1.0D-05 until final iterations.

 Cycle   1  Pass 0  IDiag  1:
 E= -169.363228753143    
 DIIS: error= 1.33D-02 at cycle   1 NSaved=   1.
 NSaved= 1 IEnMin= 1 EnMin= -169.363228753143     IErMin= 1 ErrMin= 1.33D-02
 ErrMax= 1.33D-02  0.00D+00 EMaxC= 1.00D-01 BMatC= 2.88D-02 BMatP= 2.88D-02
 IDIUse=3 WtCom= 8.67D-01 WtEn= 1.33D-01
 Coeff-Com:  0.100D+01
 Coeff-En:   0.100D+01
 Coeff:      0.100D+01
 Gap=     0.432 Goal=   None    Shift=    0.000
 GapD=    0.432 DampG=2.000 DampE=0.500 DampFc=1.0000 IDamp=-1.
 RMSDP=4.72D-03 MaxDP=1.17D-01              OVMax= 9.51D-02

 Cycle   2  Pass 0  IDiag  1:
 E= -169.371844602088     Delta-E=       -0.008615848945 Rises=F Damp=F
 DIIS: error= 1.41D-02 at cycle   2 NSaved=   2.
 NSaved= 2 IEnMin= 2 EnMin= -169.371844602088     IErMin= 1 ErrMin= 1.33D-02
 ErrMax= 1.41D-02  0.00D+00 EMaxC= 1.00D-01 BMatC= 2.79D-02 BMatP= 2.88D-02
 IDIUse=3 WtCom= 8.59D-01 WtEn= 1.41D-01
 Coeff-Com:  0.496D+00 0.504D+00
 Coeff-En:   0.369D+00 0.631D+00
 Coeff:      0.478D+00 0.522D+00
 Gap=     0.480 Goal=   None    Shift=    0.000
 RMSDP=2.28D-03 MaxDP=5.33D-02 DE=-8.62D-03 OVMax= 4.12D-02

 Cycle   3  Pass 0  IDiag  1:
 E= -169.391004502318     Delta-E=       -0.019159900230 Rises=F Damp=F
 DIIS: error= 3.41D-03 at cycle   3 NSaved=   3.
 NSaved= 3 IEnMin= 3 EnMin= -169.391004502318     IErMin= 3 ErrMin= 3.41D-03
 ErrMax= 3.41D-03  0.00D+00 EMaxC= 1.00D-01 BMatC= 1.22D-03 BMatP= 2.79D-02
 IDIUse=3 WtCom= 9.66D-01 WtEn= 3.41D-02
 Coeff-Com:  0.283D-01 0.169D+00 0.803D+00
 Coeff-En:   0.000D+00 0.000D+00 0.100D+01
 Coeff:      0.273D-01 0.163D+00 0.810D+00
 Gap=     0.473 Goal=   None    Shift=    0.000
 RMSDP=7.64D-04 MaxDP=1.76D-02 DE=-1.92D-02 OVMax= 1.90D-02

 Cycle   4  Pass 0  IDiag  1:
 E= -169.392023018947     Delta-E=       -0.001018516628 Rises=F Damp=F
 DIIS: error= 1.08D-03 at cycle   4 NSaved=   4.
 NSaved= 4 IEnMin= 4 EnMin= -169.392023018947     IErMin= 4 ErrMin= 1.08D-03
 ErrMax= 1.08D-03  0.00D+00 EMaxC= 1.00D-01 BMatC= 1.82D-04 BMatP= 1.22D-03
 IDIUse=3 WtCom= 9.89D-01 WtEn= 1.08D-02
 Coeff-Com: -0.543D-01 0.811D-02 0.347D+00 0.699D+00
 Coeff-En:   0.000D+00 0.000D+00 0.000D+00 0.100D+01
 Coeff:     -0.537D-01 0.802D-02 0.344D+00 0.702D+00
 Gap=     0.476 Goal=   None    Shift=    0.000
 RMSDP=3.48D-04 MaxDP=8.47D-03 DE=-1.02D-03 OVMax= 4.62D-03

 Cycle   5  Pass 0  IDiag  1:
 E= -169.392211556127     Delta-E=       -0.000188537180 Rises=F Damp=F
 DIIS: error= 3.42D-04 at cycle   5 NSaved=   5.
 NSaved= 5 IEnMin= 5 EnMin= -169.392211556127     IErMin= 5 ErrMin= 3.42D-04
 ErrMax= 3.42D-04  0.00D+00 EMaxC= 1.00D-01 BMatC= 5.93D-06 BMatP= 1.82D-04
 IDIUse=3 WtCom= 9.97D-01 WtEn= 3.42D-03
 Coeff-Com:  0.212D-02-0.139D-01-0.995D-01-0.887D-02 0.112D+01
 Coeff-En:   0.000D+00 0.000D+00 0.000D+00 0.000D+00 0.100D+01
 Coeff:      0.211D-02-0.138D-01-0.992D-01-0.884D-02 0.112D+01
 Gap=     0.476 Goal=   None    Shift=    0.000
 RMSDP=1.48D-04 MaxDP=3.47D-03 DE=-1.89D-04 OVMax= 3.70D-03

 Cycle   6  Pass 0  IDiag  1:
 E= -169.392233040949     Delta-E=       -0.000021484822 Rises=F Damp=F
 DIIS: error= 7.51D-05 at cycle   6 NSaved=   6.
 NSaved= 6 IEnMin= 6 EnMin= -169.392233040949     IErMin= 6 ErrMin= 7.51D-05
 ErrMax= 7.51D-05  0.00D+00 EMaxC= 1.00D-01 BMatC= 8.89D-07 BMatP= 5.93D-06
 IDIUse=1 WtCom= 1.00D+00 WtEn= 0.00D+00
 Coeff-Com:  0.424D-02-0.123D-02-0.144D-01-0.758D-01-0.388D-01 0.113D+01
 Coeff:      0.424D-02-0.123D-02-0.144D-01-0.758D-01-0.388D-01 0.113D+01
 Gap=     0.476 Goal=   None    Shift=    0.000
 RMSDP=3.22D-05 MaxDP=5.96D-04 DE=-2.15D-05 OVMax= 1.05D-03

 Cycle   7  Pass 0  IDiag  1:
 E= -169.392235309776     Delta-E=       -0.000002268827 Rises=F Damp=F
 DIIS: error= 2.91D-05 at cycle   7 NSaved=   7.
 NSaved= 7 IEnMin= 7 EnMin= -169.392235309776     IErMin= 7 ErrMin= 2.91D-05
 ErrMax= 2.91D-05  0.00D+00 EMaxC= 1.00D-01 BMatC= 1.03D-07 BMatP= 8.89D-07
 IDIUse=1 WtCom= 1.00D+00 WtEn= 0.00D+00
 Coeff-Com:  0.739D-03 0.342D-03 0.612D-02-0.196D-01-0.859D-01 0.140D+00
 Coeff-Com:  0.958D+00
 Coeff:      0.739D-03 0.342D-03 0.612D-02-0.196D-01-0.859D-01 0.140D+00
 Coeff:      0.958D+00
 Gap=     0.476 Goal=   None    Shift=    0.000
 RMSDP=8.24D-06 MaxDP=1.12D-04 DE=-2.27D-06 OVMax= 3.05D-04

 Initial convergence to 1.0D-05 achieved.  Increase integral accuracy.
 Cycle   8  Pass 1  IDiag  1:
 E= -169.392233767209     Delta-E=        0.000001542568 Rises=F Damp=F
 DIIS: error= 5.87D-06 at cycle   1 NSaved=   1.
 NSaved= 1 IEnMin= 1 EnMin= -169.392233767209     IErMin= 1 ErrMin= 5.87D-06
 ErrMax= 5.87D-06  0.00D+00 EMaxC= 1.00D-01 BMatC= 7.52D-09 BMatP= 7.52D-09
 IDIUse=1 WtCom= 1.00D+00 WtEn= 0.00D+00
 Coeff-Com:  0.100D+01
 Coeff:      0.100D+01
 Gap=     0.476 Goal=   None    Shift=    0.000
 RMSDP=8.24D-06 MaxDP=1.12D-04 DE= 1.54D-06 OVMax= 4.09D-05

 Cycle   9  Pass 1  IDiag  1:
 E= -169.392233775650     Delta-E=       -0.000000008441 Rises=F Damp=F
 DIIS: error= 6.54D-06 at cycle   2 NSaved=   2.
 NSaved= 2 IEnMin= 2 EnMin= -169.392233775650     IErMin= 1 ErrMin= 5.87D-06
 ErrMax= 6.54D-06  0.00D+00 EMaxC= 1.00D-01 BMatC= 3.29D-09 BMatP= 7.52D-09
 IDIUse=1 WtCom= 1.00D+00 WtEn= 0.00D+00
 Coeff-Com:  0.375D+00 0.625D+00
 Coeff:      0.375D+00 0.625D+00
 Gap=     0.476 Goal=   None    Shift=    0.000
 RMSDP=7.97D-07 MaxDP=1.98D-05 DE=-8.44D-09 OVMax= 3.22D-05

 Cycle  10  Pass 1  IDiag  1:
 E= -169.392233778813     Delta-E=       -0.000000003163 Rises=F Damp=F
 DIIS: error= 2.28D-06 at cycle   3 NSaved=   3.
 NSaved= 3 IEnMin= 3 EnMin= -169.392233778813     IErMin= 3 ErrMin= 2.28D-06
 ErrMax= 2.28D-06  0.00D+00 EMaxC= 1.00D-01 BMatC= 7.35D-10 BMatP= 3.29D-09
 IDIUse=1 WtCom= 1.00D+00 WtEn= 0.00D+00
 Coeff-Com: -0.321D-01 0.259D+00 0.773D+00
 Coeff:     -0.321D-01 0.259D+00 0.773D+00
 Gap=     0.476 Goal=   None    Shift=    0.000
 RMSDP=4.36D-07 MaxDP=6.05D-06 DE=-3.16D-09 OVMax= 1.05D-05

 Cycle  11  Pass 1  IDiag  1:
 E= -169.392233779663     Delta-E=       -0.000000000850 Rises=F Damp=F
 DIIS: error= 9.84D-07 at cycle   4 NSaved=   4.
 NSaved= 4 IEnMin= 4 EnMin= -169.392233779663     IErMin= 4 ErrMin= 9.84D-07
 ErrMax= 9.84D-07  0.00D+00 EMaxC= 1.00D-01 BMatC= 7.43D-11 BMatP= 7.35D-10
 IDIUse=1 WtCom= 1.00D+00 WtEn= 0.00D+00
 Coeff-Com: -0.140D+00-0.722D-01 0.239D+00 0.973D+00
 Coeff:     -0.140D+00-0.722D-01 0.239D+00 0.973D+00
 Gap=     0.476 Goal=   None    Shift=    0.000
 RMSDP=2.71D-07 MaxDP=4.22D-06 DE=-8.50D-10 OVMax= 1.19D-05

 Cycle  12  Pass 1  IDiag  1:
 E= -169.392233779876     Delta-E=       -0.000000000213 Rises=F Damp=F
 DIIS: error= 1.56D-07 at cycle   5 NSaved=   5.
 NSaved= 5 IEnMin= 5 EnMin= -169.392233779876     IErMin= 5 ErrMin= 1.56D-07
 ErrMax= 1.56D-07  0.00D+00 EMaxC= 1.00D-01 BMatC= 1.87D-12 BMatP= 7.43D-11
 IDIUse=1 WtCom= 1.00D+00 WtEn= 0.00D+00
 Coeff-Com:  0.105D-01-0.504D-02-0.489D-01-0.498D-01 0.109D+01
 Coeff:      0.105D-01-0.504D-02-0.489D-01-0.498D-01 0.109D+01
 Gap=     0.476 Goal=   None    Shift=    0.000
 RMSDP=7.85D-08 MaxDP=1.69D-06 DE=-2.13D-10 OVMax= 2.01D-06

 Cycle  13  Pass 1  IDiag  1:
 E= -169.392233779880     Delta-E=       -0.000000000004 Rises=F Damp=F
 DIIS: error= 7.16D-08 at cycle   6 NSaved=   6.
 NSaved= 6 IEnMin= 6 EnMin= -169.392233779880     IErMin= 6 ErrMin= 7.16D-08
 ErrMax= 7.16D-08  0.00D+00 EMaxC= 1.00D-01 BMatC= 6.41D-13 BMatP= 1.87D-12
 IDIUse=1 WtCom= 1.00D+00 WtEn= 0.00D+00
 Coeff-Com:  0.232D-01 0.792D-02-0.540D-01-0.151D+00 0.423D+00 0.750D+00
 Coeff:      0.232D-01 0.792D-02-0.540D-01-0.151D+00 0.423D+00 0.750D+00
 Gap=     0.476 Goal=   None    Shift=    0.000
 RMSDP=2.56D-08 MaxDP=5.99D-07 DE=-4.04D-12 OVMax= 4.91D-07

 Cycle  14  Pass 1  IDiag  1:
 E= -169.392233779880     Delta-E=        0.000000000000 Rises=F Damp=F
 DIIS: error= 1.82D-08 at cycle   7 NSaved=   7.
 NSaved= 7 IEnMin= 6 EnMin= -169.392233779880     IErMin= 7 ErrMin= 1.82D-08
 ErrMax= 1.82D-08  0.00D+00 EMaxC= 1.00D-01 BMatC= 2.08D-14 BMatP= 6.41D-13
 IDIUse=1 WtCom= 1.00D+00 WtEn= 0.00D+00
 Coeff-Com:  0.336D-02 0.218D-02-0.621D-02-0.239D-01-0.264D-01 0.128D+00
 Coeff-Com:  0.923D+00
 Coeff:      0.336D-02 0.218D-02-0.621D-02-0.239D-01-0.264D-01 0.128D+00
 Coeff:      0.923D+00
 Gap=     0.476 Goal=   None    Shift=    0.000
 RMSDP=7.41D-09 MaxDP=1.87D-07 DE= 2.27D-13 OVMax= 1.47D-07

 SCF Done:  E(RLC-B+HF-LYP) =  -169.392233780     A.U. after   14 cycles
            NFock= 14  Conv=0.74D-08     -V/T= 2.0086
 KE= 1.679428084319D+02 PE=-5.399721352796D+02 EE= 1.311160992381D+02
 Leave Link  502 at Mon Mar 21 20:07:51 2022, MaxMem=  8589934592 cpu:              16.2 elap:               2.2
 (Enter /home/sabyasachi/g16/l801.exe)
 DoSCS=F DFT=T ScalE2(SS,OS)=  1.000000  1.000000
 ExpMin= 6.71D-02 ExpMax= 2.27D+03 ExpMxC= 3.41D+02 IAcc=3 IRadAn=         5 AccDes= 0.00D+00
 HarFok:  IExCor=  205 AccDes= 0.00D+00 IRadAn=         5 IDoV=-2 UseB2=F ITyADJ=14
 ICtDFT= 12500011 ScaDFX=  1.000000  1.000000  1.000000  1.000000
 Largest valence mixing into a core orbital is  6.19D-05
 Largest core mixing into a valence orbital is  7.19D-06
 Range of M.O.s used for correlation:     4    87
 NBasis=    87 NAE=    12 NBE=    12 NFC=     3 NFV=     0
 NROrb=     84 NOA=     9 NOB=     9 NVA=    75 NVB=    75

 **** Warning!!: The largest alpha MO coefficient is  0.23276957D+02

 Leave Link  801 at Mon Mar 21 20:07:51 2022, MaxMem=  8589934592 cpu:               0.4 elap:               0.1
 (Enter /home/sabyasachi/g16/l914.exe)
 RHF ground state
 Keep R1, R2, and R3 ints in memory in canonical form, NReq=536003384.
 FoFCou: FMM=F IPFlag=           0 FMFlag=           0 FMFlg1=           0
         NFxFlg=           0 DoJE=F BraDBF=F KetDBF=F FulRan=T
         wScrn=  0.000000 ICntrl=       600 IOpCl=  0 I1Cent=           0 NGrid=           0
         NMat0=    1 NMatS0=   3828 NMatT0=    0 NMatD0=    1 NMtDS0=    0 NMtDT0=    0
 Symmetry not used in FoFCou.
 Two-electron integral symmetry not used.
 MDV=  8589934592 DFT=T DoStab=F Mixed=T DoRPA=T DoScal=F NonHer=T
 Making orbital integer symmetry assigments:
 Orbital symmetries:
       Occupied  (A) (A) (A) (A) (A) (A) (A) (A) (A) (A) (A) (A)
       Virtual   (A) (A) (A) (A) (A) (A) (A) (A) (A) (A) (A) (A)
                 (A) (A) (A) (A) (A) (A) (A) (A) (A) (A) (A) (A)
                 (A) (A) (A) (A) (A) (A) (A) (A) (A) (A) (A) (A)
                 (A) (A) (A) (A) (A) (A) (A) (A) (A) (A) (A) (A)
                 (A) (A) (A) (A) (A) (A) (A) (A) (A) (A) (A) (A)
                 (A) (A) (A) (A) (A) (A) (A) (A) (A) (A) (A) (A)
                 (A) (A) (A)
   675 initial guesses have been made.
 Convergence on wavefunction:    0.001000000000000
 Davidson Disk Diagonalization:  ConvIn= 1.00D-03 SkipCon=T Conv= 1.00D-03.
 Max sub-space:  4050 roots to seek:  1350 dimension of matrix:         1350
 *** WARNING: Number of orthogonal guesses is          675
 Iteration     1 Dimension   675 NMult     0 NNew    675
 CISAX will form   675 AO SS matrices at one time.
 NMat=   675 NSing=   675 JSym2X= 0.
 New state      1 was old state      4
 New state      2 was old state      6
 New state      3 was old state      2
 New state      4 was old state      1
 New state      6 was old state      3
 New state     10 was old state     26
 New state     11 was old state     13
 New state     12 was old state     11
 New state     13 was old state     10
 New state     14 was old state     12
 New state     15 was old state     14
 New state     16 was old state     15
 New state     17 was old state     16
 New state     18 was old state     28
 New state     19 was old state     17
 New state     20 was old state     22
 New state     22 was old state     39
 New state     23 was old state     19
 New state     24 was old state     25
 New state     25 was old state     18
 New state     26 was old state     20
 New state     27 was old state     23
 New state     28 was old state     30
 New state     30 was old state     24
 New state     31 was old state     27
 New state     32 was old state     31
 New state     34 was old state     32
 New state     36 was old state     38
 New state     37 was old state     42
 New state     38 was old state     34
 New state     39 was old state     37
 New state     40 was old state     36
 New state     41 was old state     65
 New state     42 was old state     44
 New state     43 was old state     41
 New state     44 was old state     46
 New state     45 was old state     47
 New state     46 was old state     40
 New state     47 was old state     43
 New state     48 was old state     45
 New state     49 was old state     48
 New state     51 was old state     49
 New state     52 was old state     51
 New state     53 was old state     52
 New state     54 was old state     62
 New state     55 was old state     68
 New state     56 was old state     54
 New state     57 was old state     60
 New state     58 was old state     57
 New state     59 was old state     55
 New state     60 was old state     64
 New state     61 was old state     58
 New state     62 was old state     66
 New state     63 was old state     53
 New state     64 was old state     73
 New state     65 was old state     63
 New state     66 was old state     78
 New state     67 was old state     56
 New state     68 was old state     61
 New state     69 was old state     85
 New state     70 was old state     74
 New state     71 was old state     70
 New state     72 was old state     69
 New state     73 was old state     71
 New state     74 was old state     59
 New state     75 was old state     67
 New state     76 was old state     72
 New state     77 was old state     76
 New state     78 was old state     79
 New state     79 was old state     80
 New state     80 was old state     75
 New state     81 was old state     77
 New state     82 was old state     81
 New state     83 was old state     92
 New state     84 was old state     83
 New state     85 was old state     96
 New state     86 was old state     88
 New state     87 was old state     99
 New state     88 was old state     95
 New state     89 was old state     82
 New state     90 was old state     91
 New state     91 was old state     98
 New state     92 was old state     93
 New state     93 was old state     87
 New state     95 was old state     90
 New state     96 was old state     84
 New state     97 was old state     89
 New state     98 was old state    100
 New state     99 was old state    104
 New state    100 was old state    101
 New state    101 was old state     97
 New state    102 was old state    112
 New state    103 was old state    102
 New state    104 was old state    105
 New state    105 was old state    109
 New state    106 was old state    119
 New state    107 was old state    115
 New state    108 was old state    121
 New state    109 was old state    106
 New state    110 was old state    123
 New state    111 was old state    110
 New state    112 was old state    113
 New state    113 was old state    103
 New state    114 was old state     86
 New state    115 was old state    107
 New state    116 was old state    114
 New state    117 was old state    116
 New state    118 was old state    117
 New state    119 was old state    138
 New state    120 was old state    108
 New state    121 was old state    125
 New state    122 was old state    111
 New state    123 was old state    118
 New state    124 was old state    122
 New state    125 was old state    133
 New state    126 was old state    139
 New state    127 was old state    136
 New state    128 was old state    120
 New state    129 was old state    126
 New state    130 was old state    140
 New state    131 was old state    124
 New state    132 was old state    131
 New state    133 was old state    128
 New state    135 was old state    143
 New state    136 was old state    135
 New state    137 was old state    141
 New state    138 was old state    127
 New state    139 was old state    129
 New state    140 was old state    146
 New state    141 was old state    145
 New state    142 was old state    149
 New state    143 was old state    151
 New state    144 was old state    137
 New state    145 was old state    130
 New state    146 was old state    152
 New state    147 was old state    150
 New state    149 was old state    144
 New state    150 was old state    132
 No map to state    151
 New state    152 was old state    142
 New state    153 was old state    154
 New state    154 was old state    156
 New state    155 was old state    159
 New state    156 was old state    153
 New state    157 was old state    163
 New state    158 was old state    157
 New state    159 was old state    168
 New state    160 was old state    181
 New state    161 was old state    155
 New state    163 was old state    172
 New state    164 was old state    160
 New state    165 was old state    171
 New state    166 was old state    175
 New state    167 was old state    165
 New state    168 was old state    166
 New state    169 was old state    164
 New state    170 was old state    161
 New state    171 was old state    169
 New state    172 was old state    176
 New state    174 was old state    167
 New state    175 was old state    174
 New state    176 was old state    183
 New state    178 was old state    170
 New state    179 was old state    178
 New state    180 was old state    179
 New state    181 was old state    186
 New state    182 was old state    188
 New state    183 was old state    182
 New state    184 was old state    198
 New state    185 was old state    189
 New state    186 was old state    193
 New state    187 was old state    180
 New state    188 was old state    194
 New state    189 was old state    202
 New state    190 was old state    185
 New state    191 was old state    196
 New state    193 was old state    184
 New state    194 was old state    204
 New state    195 was old state    199
 New state    196 was old state    187
 New state    197 was old state    190
 New state    198 was old state    200
 New state    199 was old state    197
 New state    200 was old state    226
 New state    201 was old state    210
 New state    202 was old state    195
 New state    203 was old state    201
 New state    204 was old state    205
 New state    205 was old state    191
 New state    207 was old state    208
 New state    208 was old state    212
 New state    209 was old state    221
 New state    210 was old state    211
 New state    211 was old state    207
 New state    212 was old state    214
 New state    213 was old state    203
 New state    214 was old state    232
 New state    215 was old state    216
 New state    216 was old state    213
 New state    217 was old state    219
 New state    218 was old state    222
 New state    219 was old state    218
 New state    220 was old state    209
 New state    221 was old state    220
 New state    222 was old state    229
 New state    223 was old state    217
 New state    224 was old state    223
 New state    225 was old state    230
 New state    226 was old state    227
 New state    227 was old state    215
 New state    228 was old state    234
 New state    229 was old state    225
 New state    230 was old state    235
 New state    231 was old state    240
 New state    232 was old state    233
 New state    233 was old state    244
 New state    234 was old state    237
 New state    235 was old state    242
 New state    236 was old state    253
 New state    237 was old state    224
 New state    238 was old state    236
 New state    239 was old state    241
 New state    240 was old state    248
 New state    241 was old state    231
 New state    242 was old state    251
 New state    244 was old state    254
 New state    245 was old state    228
 New state    246 was old state    239
 New state    247 was old state    238
 New state    248 was old state    256
 New state    249 was old state    265
 New state    250 was old state    246
 New state    251 was old state    283
 New state    252 was old state    250
 New state    253 was old state    255
 New state    254 was old state    247
 New state    255 was old state    245
 New state    256 was old state    270
 New state    258 was old state    264
 New state    259 was old state    263
 New state    260 was old state    259
 New state    261 was old state    249
 New state    262 was old state    267
 New state    263 was old state    276
 New state    264 was old state    252
 New state    265 was old state    258
 New state    266 was old state    262
 New state    267 was old state    261
 New state    268 was old state    260
 New state    270 was old state    272
 New state    271 was old state    266
 New state    272 was old state    274
 New state    273 was old state    268
 New state    274 was old state    284
 New state    275 was old state    288
 New state    276 was old state    275
 New state    277 was old state    271
 New state    278 was old state    277
 New state    279 was old state    282
 New state    280 was old state    278
 New state    281 was old state    273
 New state    282 was old state    296
 New state    283 was old state    279
 New state    284 was old state    287
 New state    285 was old state    281
 New state    286 was old state    285
 New state    287 was old state    289
 New state    288 was old state    293
 New state    289 was old state    280
 New state    291 was old state    286
 New state    292 was old state    300
 New state    293 was old state    294
 New state    294 was old state    306
 New state    295 was old state    292
 New state    296 was old state    297
 New state    297 was old state    298
 New state    298 was old state    305
 New state    299 was old state    291
 New state    300 was old state    299
 New state    302 was old state    304
 New state    303 was old state    310
 New state    304 was old state    295
 New state    305 was old state    303
 New state    306 was old state    302
 New state    308 was old state    322
 New state    310 was old state    312
 New state    312 was old state    314
 New state    313 was old state    315
 New state    314 was old state    323
 New state    315 was old state    317
 New state    316 was old state    324
 New state    317 was old state    308
 New state    318 was old state    313
 New state    320 was old state    318
 New state    321 was old state    326
 New state    322 was old state    320
 New state    323 was old state    321
 New state    324 was old state    328
 New state    325 was old state    316
 New state    326 was old state    330
 New state    328 was old state    335
 New state    329 was old state    332
 New state    330 was old state    331
 New state    331 was old state    325
 New state    332 was old state    334
 New state    333 was old state    338
 New state    334 was old state    342
 New state    335 was old state    336
 New state    336 was old state    337
 New state    337 was old state    329
 New state    338 was old state    333
 New state    341 was old state    343
 New state    342 was old state    344
 New state    343 was old state    348
 New state    344 was old state    341
 New state    345 was old state    346
 New state    346 was old state    350
 New state    347 was old state    345
 New state    348 was old state    347
 New state    350 was old state    351
 New state    351 was old state    352
 New state    352 was old state    358
 New state    353 was old state    359
 New state    354 was old state    353
 New state    355 was old state    356
 New state    356 was old state    357
 New state    357 was old state    354
 New state    358 was old state    373
 New state    359 was old state    360
 New state    360 was old state    355
 New state    361 was old state    363
 New state    362 was old state    366
 New state    363 was old state    372
 New state    364 was old state    365
 New state    365 was old state    362
 New state    366 was old state    361
 New state    367 was old state    369
 New state    368 was old state    364
 New state    369 was old state    367
 New state    370 was old state    368
 New state    371 was old state    374
 New state    372 was old state    378
 New state    373 was old state    371
 New state    374 was old state    370
 New state    376 was old state    377
 New state    377 was old state    382
 New state    378 was old state    380
 New state    379 was old state    376
 New state    380 was old state    379
 No map to state    382
 New state    384 was old state    385
 New state    385 was old state    387
 New state    386 was old state    384
 New state    387 was old state    395
 New state    388 was old state    389
 New state    389 was old state    386
 New state    390 was old state    392
 New state    392 was old state    388
 New state    393 was old state    396
 New state    394 was old state    393
 New state    395 was old state    398
 New state    396 was old state    394
 New state    397 was old state    390
 New state    398 was old state    397
 New state    399 was old state    400
 New state    400 was old state    404
 New state    401 was old state    402
 New state    402 was old state    401
 New state    404 was old state    406
 New state    406 was old state    411
 New state    408 was old state    410
 New state    410 was old state    418
 New state    411 was old state    408
 New state    412 was old state    422
 New state    413 was old state    415
 New state    414 was old state    412
 New state    415 was old state    419
 New state    416 was old state    414
 New state    417 was old state    426
 New state    418 was old state    413
 New state    419 was old state    416
 New state    420 was old state    417
 New state    421 was old state    420
 New state    422 was old state    423
 New state    423 was old state    421
 New state    424 was old state    427
 New state    425 was old state    428
 New state    426 was old state    430
 New state    427 was old state    435
 New state    428 was old state    424
 New state    430 was old state    432
 New state    432 was old state    433
 New state    433 was old state    425
 New state    434 was old state    445
 New state    435 was old state    436
 New state    436 was old state    441
 New state    438 was old state    434
 New state    441 was old state    443
 New state    442 was old state    438
 New state    443 was old state    448
 New state    445 was old state    442
 New state    446 was old state    451
 New state    448 was old state    446
 New state    449 was old state    450
 New state    450 was old state    456
 New state    451 was old state    452
 New state    452 was old state    457
 New state    453 was old state    459
 New state    454 was old state    460
 New state    455 was old state    458
 New state    456 was old state    449
 New state    457 was old state    454
 New state    458 was old state    466
 New state    459 was old state    453
 New state    460 was old state    463
 New state    461 was old state    464
 New state    462 was old state    455
 New state    463 was old state    465
 New state    464 was old state    469
 New state    465 was old state    470
 New state    466 was old state    462
 New state    467 was old state    471
 New state    469 was old state    467
 New state    470 was old state    461
 New state    471 was old state    473
 New state    473 was old state    476
 New state    475 was old state    480
 New state    476 was old state    481
 New state    477 was old state    482
 New state    478 was old state    475
 New state    479 was old state    477
 New state    480 was old state    484
 New state    481 was old state    478
 New state    482 was old state    483
 New state    483 was old state    479
 New state    484 was old state    485
 No map to state    485
 New state    486 was old state    489
 New state    487 was old state    488
 New state    488 was old state    490
 New state    489 was old state    487
 New state    490 was old state    492
 New state    491 was old state    499
 New state    492 was old state    491
 New state    493 was old state    486
 New state    494 was old state    493
 New state    496 was old state    500
 New state    498 was old state    494
 New state    499 was old state    498
 New state    500 was old state    505
 New state    501 was old state    502
 New state    502 was old state    496
 New state    503 was old state    501
 New state    504 was old state    503
 New state    505 was old state    504
 New state    506 was old state    508
 New state    507 was old state    510
 New state    508 was old state    506
 New state    510 was old state    507
 New state    511 was old state    513
 New state    512 was old state    515
 New state    513 was old state    512
 New state    515 was old state    517
 New state    516 was old state    521
 New state    517 was old state    511
 New state    519 was old state    516
 New state    521 was old state    523
 New state    523 was old state    519
 New state    525 was old state    529
 New state    526 was old state    525
 New state    527 was old state    528
 New state    528 was old state    527
 New state    529 was old state    533
 New state    530 was old state    532
 New state    531 was old state    526
 New state    532 was old state    531
 New state    533 was old state    536
 New state    535 was old state    538
 New state    536 was old state    530
 New state    537 was old state    535
 New state    538 was old state    537
 New state    539 was old state    540
 New state    540 was old state    539
 New state    543 was old state    547
 New state    544 was old state    548
 New state    545 was old state    544
 New state    546 was old state    549
 New state    547 was old state    546
 New state    548 was old state    545
 New state    549 was old state    543
 New state    551 was old state    552
 New state    552 was old state    553
 New state    553 was old state    551
 New state    554 was old state    555
 New state    555 was old state    558
 New state    556 was old state    557
 New state    557 was old state    554
 New state    558 was old state    556
 New state    563 was old state    564
 New state    564 was old state    568
 New state    565 was old state    575
 New state    566 was old state    572
 New state    567 was old state    565
 New state    568 was old state    566
 New state    569 was old state    563
 New state    570 was old state    567
 New state    571 was old state    570
 New state    572 was old state    571
 New state    574 was old state    569
 New state    575 was old state    576
 New state    576 was old state    574
 New state    577 was old state    578
 New state    578 was old state    577
 New state    579 was old state    580
 New state    580 was old state    584
 New state    581 was old state    579
 New state    582 was old state    585
 New state    583 was old state    582
 New state    584 was old state    587
 New state    585 was old state    590
 New state    587 was old state    588
 New state    588 was old state    589
 New state    589 was old state    591
 New state    590 was old state    583
 New state    591 was old state    597
 New state    592 was old state    595
 New state    593 was old state    594
 New state    594 was old state    581
 New state    595 was old state    592
 New state    596 was old state    593
 New state    597 was old state    601
 New state    599 was old state    600
 New state    600 was old state    599
 New state    601 was old state    602
 New state    602 was old state    596
 New state    603 was old state    608
 New state    604 was old state    603
 New state    605 was old state    604
 New state    606 was old state    605
 New state    607 was old state    606
 New state    608 was old state    610
 New state    609 was old state    612
 New state    610 was old state    613
 New state    611 was old state    616
 New state    612 was old state    607
 New state    613 was old state    621
 New state    614 was old state    611
 New state    616 was old state    609
 New state    617 was old state    618
 New state    618 was old state    620
 New state    619 was old state    614
 New state    620 was old state    617
 New state    621 was old state    619
 New state    622 was old state    624
 New state    623 was old state    622
 New state    624 was old state    623
 New state    625 was old state    627
 New state    626 was old state    625
 New state    627 was old state    629
 New state    629 was old state    631
 New state    630 was old state    634
 New state    631 was old state    626
 New state    632 was old state    630
 New state    634 was old state    632
 New state    636 was old state    639
 New state    637 was old state    636
 New state    638 was old state    637
 New state    639 was old state    638
 New state    641 was old state    643
 New state    642 was old state    641
 New state    643 was old state    644
 New state    644 was old state    645
 New state    645 was old state    646
 New state    646 was old state    642
 New state    647 was old state    649
 New state    649 was old state    647
 New state    651 was old state    652
 New state    652 was old state    651
 New state    654 was old state    655
 New state    655 was old state    656
 New state    656 was old state    654
 New state    660 was old state    662
 New state    662 was old state    660
 New state    664 was old state    665
 New state    665 was old state    664
 New state    668 was old state    669
 New state    669 was old state    668
 New state    673 was old state    674
 New state    674 was old state    673
 Excitation Energies [eV] at current iteration:
 Root      1 :     5.681105152401706
 Root      2 :     7.776988114119339
 Root      3 :     7.836504615449374
 Root      4 :     8.242711196980540
 Root      5 :     8.814917813982461
 Root      6 :     8.999129766716088
 Root      7 :     9.578841734289638
 Root      8 :     9.672352558623670
 Root      9 :     9.892584482357620
 Root     10 :    10.354608347711590
 Root     11 :    10.407928562354970
 Root     12 :    10.677329466447110
 Root     13 :    10.788665567846460
 Root     14 :    10.865596825105840
 Root     15 :    10.970976617308270
 Root     16 :    11.129311144496780
 Root     17 :    11.491876644085140
 Root     18 :    11.709050066704930
 Root     19 :    12.102042665934390
 Root     20 :    12.161638709213130
 Root     21 :    12.299580028712410
 Root     22 :    12.358183919901700
 Root     23 :    12.406253207663270
 Root     24 :    12.448833120618500
 Root     25 :    12.529107337976280
 Root     26 :    12.775506876649300
 Root     27 :    12.802984009420070
 Root     28 :    13.135223264452650
 Root     29 :    13.252483999169640
 Root     30 :    13.265109671932970
 Root     31 :    13.313079498766760
 Root     32 :    13.593852905001700
 Root     33 :    14.153564402767300
 Root     34 :    14.290953669897260
 Root     35 :    14.290993299026980
 Root     36 :    14.482594215611490
 Root     37 :    14.574194306531520
 Root     38 :    14.663268533178620
 Root     39 :    14.799593571457630
 Root     40 :    14.815165216385670
 Root     41 :    14.860665535840610
 Root     42 :    14.979363808313840
 Root     43 :    15.003531502753930
 Root     44 :    15.029040707737680
 Root     45 :    15.122421501378220
 Root     46 :    15.170837831655050
 Root     47 :    15.251949632218060
 Root     48 :    15.567468832757660
 Root     49 :    15.583489465619410
 Root     50 :    15.786817191414150
 Root     51 :    15.801214469009150
 Root     52 :    15.981177860826890
 Root     53 :    16.103690952574270
 Root     54 :    16.277690959786560
 Root     55 :    16.389057922335250
 Root     56 :    16.421450573658250
 Root     57 :    16.486366282888760
 Root     58 :    16.501167430197330
 Root     59 :    16.625776486182890
 Root     60 :    16.677969277644030
 Root     61 :    16.764810364934940
 Root     62 :    16.779087190129180
 Root     63 :    16.809362000104830
 Root     64 :    16.891599992860790
 Root     65 :    17.027389228646590
 Root     66 :    17.039028985776010
 Root     67 :    17.076907272053770
 Root     68 :    17.101145304226340
 Root     69 :    17.229590522696030
 Root     70 :    17.294659808937680
 Root     71 :    17.428140417912270
 Root     72 :    17.486973885265300
 Root     73 :    17.599712784377940
 Root     74 :    17.654831054232890
 Root     75 :    17.743923454127880
 Root     76 :    17.770609689154340
 Root     77 :    18.039812493983850
 Root     78 :    18.046483644719100
 Root     79 :    18.066223054411570
 Root     80 :    18.130670683104640
 Root     81 :    18.424428305457810
 Root     82 :    18.467066293370450
 Root     83 :    18.499552860742570
 Root     84 :    18.609681991921110
 Root     85 :    18.809126366469060
 Root     86 :    18.813882744113980
 Root     87 :    18.894647852967030
 Root     88 :    18.983583410398320
 Root     89 :    19.001817604202640
 Root     90 :    19.054080572731620
 Root     91 :    19.139050280290090
 Root     92 :    19.142007469510940
 Root     93 :    19.179947356056080
 Root     94 :    19.283255257824960
 Root     95 :    19.329237084653250
 Root     96 :    19.409591930026210
 Root     97 :    19.463123016438010
 Root     98 :    19.703850167885960
 Root     99 :    19.762643870912060
 Root    100 :    19.770565289846660
 Root    101 :    19.913164999907450
 Root    102 :    19.983220900565650
 Root    103 :    20.189323038611690
 Root    104 :    20.426045075894930
 Root    105 :    20.436799079567720
 Root    106 :    20.546291532830980
 Root    107 :    20.642428291710400
 Root    108 :    20.713843606953140
 Root    109 :    20.742102738009610
 Root    110 :    20.867888203557070
 Root    111 :    20.895143932448530
 Root    112 :    20.932923500115400
 Root    113 :    20.969587158093940
 Root    114 :    21.075462161670470
 Root    115 :    21.133848039820270
 Root    116 :    21.174797098243470
 Root    117 :    21.204649957849900
 Root    118 :    21.236467651515700
 Root    119 :    21.253191745342710
 Root    120 :    21.389007392069710
 Root    121 :    21.485801627554950
 Root    122 :    21.515944503400810
 Root    123 :    21.701422768192390
 Root    124 :    21.848449098994730
 Root    125 :    21.861257227788150
 Root    126 :    22.048500997260010
 Root    127 :    22.098263461395480
 Root    128 :    22.158835525458680
 Root    129 :    22.168508375641950
 Root    130 :    22.271831891244560
 Root    131 :    22.297256569142570
 Root    132 :    22.449192291233950
 Root    133 :    22.526585739321570
 Root    134 :    22.568560987605590
 Root    135 :    22.568642373951090
 Root    136 :    22.640480447847450
 Root    137 :    22.681984498915040
 Root    138 :    22.775820399622180
 Root    139 :    22.780292591965860
 Root    140 :    22.905623387541270
 Root    141 :    22.918224703218420
 Root    142 :    22.936661819696180
 Root    143 :    23.001335850720620
 Root    144 :    23.120126481718860
 Root    145 :    23.138819642416110
 Root    146 :    23.255497301617870
 Root    147 :    23.305013326523430
 Root    148 :    23.396953317216200
 Root    149 :    23.479230022075090
 Root    150 :    23.652399960148710
 Root    151 :    23.743192136687610
 Root    152 :    23.743452027439900
 Root    153 :    23.887699924280870
 Root    154 :    23.975943489859370
 Root    155 :    24.056165353570030
 Root    156 :    24.326908050942570
 Root    157 :    24.388406200629050
 Root    158 :    24.429347039924360
 Root    159 :    24.461101421939740
 Root    160 :    24.586995151252800
 Root    161 :    24.613042069724490
 Root    162 :    24.702577086778720
 Root    163 :    24.785473861665230
 Root    164 :    24.813467783120900
 Root    165 :    24.866446859668400
 Root    166 :    24.883612374911860
 Root    167 :    24.974474527961020
 Root    168 :    25.014839489674920
 Root    169 :    25.039886699196210
 Root    170 :    25.224051272325780
 Root    171 :    25.258245012392410
 Root    172 :    25.336031959702850
 Root    173 :    25.399219728170880
 Root    174 :    25.464643957623530
 Root    175 :    25.536850713554290
 Root    176 :    25.542997243248280
 Root    177 :    25.650932744717160
 Root    178 :    25.732068933141780
 Root    179 :    25.791794434883720
 Root    180 :    25.933430761685040
 Root    181 :    25.979460933500770
 Root    182 :    26.064702026324700
 Root    183 :    26.194578127100360
 Root    184 :    26.303148343936010
 Root    185 :    26.385135360453080
 Root    186 :    26.446512623075390
 Root    187 :    26.464693829050630
 Root    188 :    26.642081554245120
 Root    189 :    26.713794140640310
 Root    190 :    26.812167546003540
 Root    191 :    26.832924977905900
 Root    192 :    26.915853890066690
 Root    193 :    26.953761888208260
 Root    194 :    27.053520593093210
 Root    195 :    27.081509386181080
 Root    196 :    27.135693059550140
 Root    197 :    27.235121174413470
 Root    198 :    27.303145461644950
 Root    199 :    27.397225645838930
 Root    200 :    27.541403754655180
 Root    201 :    27.569568520421640
 Root    202 :    27.629294043972120
 Root    203 :    27.736588311351190
 Root    204 :    27.755106249799100
 Root    205 :    27.813546324479260
 Root    206 :    28.011977237830810
 Root    207 :    28.019240536175370
 Root    208 :    28.137074785355130
 Root    209 :    28.222988367699070
 Root    210 :    28.223004698305100
 Root    211 :    28.406345061873830
 Root    212 :    28.456096166320560
 Root    213 :    28.520850347861070
 Root    214 :    28.549684749233740
 Root    215 :    28.658115127383900
 Root    216 :    28.664460954099650
 Root    217 :    28.758833373425600
 Root    218 :    28.929487181347200
 Root    219 :    29.009431367960190
 Root    220 :    29.024306507454510
 Root    221 :    29.193979109599740
 Root    222 :    29.313730493706500
 Root    223 :    29.382127169049600
 Root    224 :    29.390829411581380
 Root    225 :    29.552282614646400
 Root    226 :    29.729361961101270
 Root    227 :    29.775074697241170
 Root    228 :    29.790115150854080
 Root    229 :    29.809333040246810
 Root    230 :    29.890165394139340
 Root    231 :    29.986790102355990
 Root    232 :    29.995109763240300
 Root    233 :    30.162880717124260
 Root    234 :    30.321769182943960
 Root    235 :    30.381037652755750
 Root    236 :    30.389340349437740
 Root    237 :    30.472014369085820
 Root    238 :    30.546294620801020
 Root    239 :    30.630171451198860
 Root    240 :    30.657717166717380
 Root    241 :    30.807437166644150
 Root    242 :    30.870355628199600
 Root    243 :    30.910385941556620
 Root    244 :    30.942001355887470
 Root    245 :    31.053188208930220
 Root    246 :    31.066159378558340
 Root    247 :    31.222387492316300
 Root    248 :    31.332943216187890
 Root    249 :    31.433084724885240
 Root    250 :    31.475906147588520
 Root    251 :    31.505588206380750
 Root    252 :    31.620430248906860
 Root    253 :    31.789540461287710
 Root    254 :    31.816998927083580
 Root    255 :    31.926044940379160
 Root    256 :    32.034479721608960
 Root    257 :    32.095517077637600
 Root    258 :    32.252721293759830
 Root    259 :    32.263214084238670
 Root    260 :    32.317474304589740
 Root    261 :    32.445104753979410
 Root    262 :    32.576289368220730
 Root    263 :    32.690603188104020
 Root    264 :    32.784063609061020
 Root    265 :    32.805937824382020
 Root    266 :    32.891902792927460
 Root    267 :    32.992339474107760
 Root    268 :    33.057723670245980
 Root    269 :    33.057854572737730
 Root    270 :    33.087751861234780
 Root    271 :    33.222097012230880
 Root    272 :    33.365552473685270
 Root    273 :    33.406412920550330
 Root    274 :    33.507747659945270
 Root    275 :    33.688313092225190
 Root    276 :    33.892403375820830
 Root    277 :    33.921190962043770
 Root    278 :    34.144994656565710
 Root    279 :    34.233978277846930
 Root    280 :    34.265953167582620
 Root    281 :    34.376195896341570
 Root    282 :    34.499431548883490
 Root    283 :    34.553968888410890
 Root    284 :    34.585942385564750
 Root    285 :    34.612552590236180
 Root    286 :    34.764062193747600
 Root    287 :    34.828055262566790
 Root    288 :    35.054852863383860
 Root    289 :    35.105596231527350
 Root    290 :    35.191537852137590
 Root    291 :    35.255175547538760
 Root    292 :    35.337016606156120
 Root    293 :    35.388137310228870
 Root    294 :    35.449460428680860
 Root    295 :    35.773987446656700
 Root    296 :    35.851547996409760
 Root    297 :    35.883825703294580
 Root    298 :    35.920813818065090
 Root    299 :    36.038364122195500
 Root    300 :    36.166816372139480
 Root    301 :    36.353210388989890
 Root    302 :    36.423930363793840
 Root    303 :    36.459189672092440
 Root    304 :    36.508844919980510
 Root    305 :    36.685945226895880
 Root    306 :    36.800625157169460
 Root    307 :    36.918130834908110
 Root    308 :    37.285141210968360
 Root    309 :    37.335163055873300
 Root    310 :    37.348074681799390
 Root    311 :    37.385359625635990
 Root    312 :    37.630668293332350
 Root    313 :    37.645892547443740
 Root    314 :    37.858693871185110
 Root    315 :    37.947362430528860
 Root    316 :    38.036967738223530
 Root    317 :    38.037992243539050
 Root    318 :    38.112431760946020
 Root    319 :    38.183788818470380
 Root    320 :    38.345626835310510
 Root    321 :    38.495463705151740
 Root    322 :    38.838752206556580
 Root    323 :    39.049054321413450
 Root    324 :    39.206523793019380
 Root    325 :    39.370282599395060
 Root    326 :    39.517542543626820
 Root    327 :    39.728752062915350
 Root    328 :    39.916131224651280
 Root    329 :    40.006519372587260
 Root    330 :    40.195018185044700
 Root    331 :    40.266400855627890
 Root    332 :    40.397153021953320
 Root    333 :    40.426870606866840
 Root    334 :    40.464273099803800
 Root    335 :    40.464785131251950
 Root    336 :    40.562400583529170
 Root    337 :    40.647586819473420
 Root    338 :    40.892917250041650
 Root    339 :    41.158542357234970
 Root    340 :    41.206341304118330
 Root    341 :    41.286463730413310
 Root    342 :    41.391273610114300
 Root    343 :    41.465920589548000
 Root    344 :    41.561728932149210
 Root    345 :    41.570534517695130
 Root    346 :    41.999729642253490
 Root    347 :    42.106069218840330
 Root    348 :    42.280505622303220
 Root    349 :    42.436660679360440
 Root    350 :    42.457806124378840
 Root    351 :    42.705508195038700
 Root    352 :    42.865293465382630
 Root    353 :    43.054693848859710
 Root    354 :    43.195324811425290
 Root    355 :    43.203578991582330
 Root    356 :    43.436574408425070
 Root    357 :    43.837785192367450
 Root    358 :    43.926825936390730
 Root    359 :    44.017131348637020
 Root    360 :    44.065351090916760
 Root    361 :    44.196703153115700
 Root    362 :    44.286695179298150
 Root    363 :    44.310419276431220
 Root    364 :    44.391094048468820
 Root    365 :    44.677974785599130
 Root    366 :    44.816111256504480
 Root    367 :    44.931740307825510
 Root    368 :    44.986841775409970
 Root    369 :    45.180125457725660
 Root    370 :    45.614019375408780
 Root    371 :    45.837511517260400
 Root    372 :    45.854397029871270
 Root    373 :    45.987231730191430
 Root    374 :    46.125493150062350
 Root    375 :    46.254799917457020
 Root    376 :    46.304815351981940
 Root    377 :    46.562234220995580
 Root    378 :    46.720110272385110
 Root    379 :    46.741022547613380
 Root    380 :    46.900600958977150
 Root    381 :    47.100268862543790
 Root    382 :    47.487815631402190
 Root    383 :    47.839843032194660
 Root    384 :    48.077482987473760
 Root    385 :    48.313768191899490
 Root    386 :    48.441920653098260
 Root    387 :    48.522126145888070
 Root    388 :    48.668582922127210
 Root    389 :    48.810874530857430
 Root    390 :    48.822867257070000
 Root    391 :    49.047983055258850
 Root    392 :    49.486955180119240
 Root    393 :    49.716114339902300
 Root    394 :    49.974205732125350
 Root    395 :    50.162821432198970
 Root    396 :    50.215007428067760
 Root    397 :    50.452852200020550
 Root    398 :    50.723251173865550
 Root    399 :    51.169545849197060
 Root    400 :    51.356144707268570
 Root    401 :    51.498200399091990
 Root    402 :    51.721538238745320
 Root    403 :    52.025851456383850
 Root    404 :    52.183080934459160
 Root    405 :    52.271407051382870
 Root    406 :    52.562338102751960
 Root    407 :    53.065266236260270
 Root    408 :    53.148635671666090
 Root    409 :    53.309044354660190
 Root    410 :    53.516851257628620
 Root    411 :    53.607699600880710
 Root    412 :    53.728428511171080
 Root    413 :    53.840767168086610
 Root    414 :    53.863680083479420
 Root    415 :    54.014229110670010
 Root    416 :    54.021129314550880
 Root    417 :    54.137872307681460
 Root    418 :    54.285514683962210
 Root    419 :    54.352629156038870
 Root    420 :    54.634336102135650
 Root    421 :    54.689798093258370
 Root    422 :    54.921384607970730
 Root    423 :    55.130941228063290
 Root    424 :    55.384477318067880
 Root    425 :    55.407244705819690
 Root    426 :    55.500512787725430
 Root    427 :    55.859594342587410
 Root    428 :    56.072034962237170
 Root    429 :    56.139709874533620
 Root    430 :    56.172214423591120
 Root    431 :    56.249852273258360
 Root    432 :    56.636174114470920
 Root    433 :    56.700473698886580
 Root    434 :    56.767432957644640
 Root    435 :    57.005243853813720
 Root    436 :    57.128568204676750
 Root    437 :    57.161549060891400
 Root    438 :    57.439101796384880
 Root    439 :    57.639691471633410
 Root    440 :    57.740521852718260
 Root    441 :    58.015392421320930
 Root    442 :    58.240879766606350
 Root    443 :    58.521316277306670
 Root    444 :    58.633871599415660
 Root    445 :    58.756213812984340
 Root    446 :    58.898976681692470
 Root    447 :    58.943360220459230
 Root    448 :    58.974295573120270
 Root    449 :    59.261713606802940
 Root    450 :    59.335378917650130
 Root    451 :    59.510843286384630
 Root    452 :    59.608852971726140
 Root    453 :    59.779793677718980
 Root    454 :    59.843526587266830
 Root    455 :    59.997908380033650
 Root    456 :    60.085788097514370
 Root    457 :    60.138103200207900
 Root    458 :    60.560772401342720
 Root    459 :    60.632273148459740
 Root    460 :    60.723745826205490
 Root    461 :    60.882362167066950
 Root    462 :    61.049883715767320
 Root    463 :    61.341189619008110
 Root    464 :    61.577644402199040
 Root    465 :    61.635703493666310
 Root    466 :    61.691515746798760
 Root    467 :    61.925411930109180
 Root    468 :    62.079754621740950
 Root    469 :    62.105046364416810
 Root    470 :    62.133071676562420
 Root    471 :    62.584602976017680
 Root    472 :    62.984865951460510
 Root    473 :    63.263744651954080
 Root    474 :    63.328798263803550
 Root    475 :    63.453820893986800
 Root    476 :    63.581218676475530
 Root    477 :    63.623133955781320
 Root    478 :    63.843376402345480
 Root    479 :    63.914873222593600
 Root    480 :    64.114809556000250
 Root    481 :    64.125847558514490
 Root    482 :    64.263810913693600
 Root    483 :    64.399608920634440
 Root    484 :    64.613535888147200
 Root    485 :    64.920863162138010
 Root    486 :    65.308952167627450
 Root    487 :    65.499452390936180
 Root    488 :    65.617740584164380
 Root    489 :    65.682436201797420
 Root    490 :    65.920947180405520
 Root    491 :    65.970592458863630
 Root    492 :    66.027045047952480
 Root    493 :    66.216360926116480
 Root    494 :    66.331454685638750
 Root    495 :    66.423460160671750
 Root    496 :    66.654791235922230
 Root    497 :    66.790857194123760
 Root    498 :    66.791825162433910
 Root    499 :    66.901942837699140
 Root    500 :    67.254184770037500
 Root    501 :    67.387574285916170
 Root    502 :    67.479405818807980
 Root    503 :    67.594368768715270
 Root    504 :    67.865659356263240
 Root    505 :    67.940418787476900
 Root    506 :    68.097771200863390
 Root    507 :    68.492300153526760
 Root    508 :    68.807725047510800
 Root    509 :    68.849295451727930
 Root    510 :    68.993633463861940
 Root    511 :    69.173338114148460
 Root    512 :    69.228925599611630
 Root    513 :    69.246635623360500
 Root    514 :    69.558182238547520
 Root    515 :    69.786329855674070
 Root    516 :    70.035585267013520
 Root    517 :    70.108024445113530
 Root    518 :    70.531572808680820
 Root    519 :    70.632013166378970
 Root    520 :    70.859920551698380
 Root    521 :    70.994019603382090
 Root    522 :    71.196957022252380
 Root    523 :    71.429404537291290
 Root    524 :    71.512685199167010
 Root    525 :    72.056713385081010
 Root    526 :    72.090384869269510
 Root    527 :    72.461432481685350
 Root    528 :    72.835388137468000
 Root    529 :    72.857500149669970
 Root    530 :    72.980240763810950
 Root    531 :    73.195024756254480
 Root    532 :    73.270960984491820
 Root    533 :    73.503057897563540
 Root    534 :    74.049134922785810
 Root    535 :    74.229858217622110
 Root    536 :    74.310387738063300
 Root    537 :    74.606865482275640
 Root    538 :    75.220995740013890
 Root    539 :    75.221060498526880
 Root    540 :    75.314477380071640
 Root    541 :    75.634640886081290
 Root    542 :    76.031464891949270
 Root    543 :    77.090536277450250
 Root    544 :    77.133301655719280
 Root    545 :    77.196526918542190
 Root    546 :    77.819824104826470
 Root    547 :    78.027709908284140
 Root    548 :    78.151397672253690
 Root    549 :    78.207594845674930
 Root    550 :    78.489634204578610
 Root    551 :    78.670374685608010
 Root    552 :    79.121047862625670
 Root    553 :    79.256347345876190
 Root    554 :    79.304787671987000
 Root    555 :    79.489126094838410
 Root    556 :    79.592490239201750
 Root    557 :    79.931162681835450
 Root    558 :    80.220064974278000
 Root    559 :    80.492884255127450
 Root    560 :    80.790688413410140
 Root    561 :    81.161532840548790
 Root    562 :    81.190074499630700
 Root    563 :    82.459131056540340
 Root    564 :    82.608743565020760
 Root    565 :    82.939933062968960
 Root    566 :    82.967036023195210
 Root    567 :    83.088519038942690
 Root    568 :    83.201702331483290
 Root    569 :    83.401682135655480
 Root    570 :    83.575396875286460
 Root    571 :    83.706500922619750
 Root    572 :    83.841714092707750
 Root    573 :    84.018998792804230
 Root    574 :    84.137842386212100
 Root    575 :    84.466828151083430
 Root    576 :    84.513527446206550
 Root    577 :    84.955503950511680
 Root    578 :    85.285026462341860
 Root    579 :    85.394169130304320
 Root    580 :    85.509080990988930
 Root    581 :    85.575423293522250
 Root    582 :    85.818878545409080
 Root    583 :    86.000757585000200
 Root    584 :    86.538523929225490
 Root    585 :    87.008018359094650
 Root    586 :    87.535850963329820
 Root    587 :    87.548732359842500
 Root    588 :    87.803311592777790
 Root    589 :    87.851920099305290
 Root    590 :    88.299469618741110
 Root    591 :    88.555103533600600
 Root    592 :    88.941400158539010
 Root    593 :    89.072414197600860
 Root    594 :    89.655373112516540
 Root    595 :    89.661135030610820
 Root    596 :    90.253266187212630
 Root    597 :    90.336142073975860
 Root    598 :    90.377185028407650
 Root    599 :    90.663168060590310
 Root    600 :    91.088997680247050
 Root    601 :    91.533690963341930
 Root    602 :    91.846499700519460
 Root    603 :    92.448671621536460
 Root    604 :    92.480923902841340
 Root    605 :    93.043758841871760
 Root    606 :    93.094183183663330
 Root    607 :    93.761396460523700
 Root    608 :    94.838790420699700
 Root    609 :    94.861863730909390
 Root    610 :    95.153507810387880
 Root    611 :    95.360320372455330
 Root    612 :    95.653510306736930
 Root    613 :    96.010913269637130
 Root    614 :    96.122048377863990
 Root    615 :    96.166239805851660
 Root    616 :    96.508653529564360
 Root    617 :    96.889648958344370
 Root    618 :    97.279313436590470
 Root    619 :    97.409246384593540
 Root    620 :    97.697332131765690
 Root    621 :    97.826395146772300
 Root    622 :    98.716947247991020
 Root    623 :    98.806095153582040
 Root    624 :    98.888574148116220
 Root    625 :   100.279560791633800
 Root    626 :   100.472116828960500
 Root    627 :   100.596926598538500
 Root    628 :   100.735904733227800
 Root    629 :   100.887549867602200
 Root    630 :   101.060337124579700
 Root    631 :   101.346853711381000
 Root    632 :   101.487786839288400
 Root    633 :   101.861671843263600
 Root    634 :   101.925999051372100
 Root    635 :   102.621404777210900
 Root    636 :   103.838524751338000
 Root    637 :   104.092563296579000
 Root    638 :   104.178576182454500
 Root    639 :   105.139414626460800
 Root    640 :   105.327332529173500
 Root    641 :   105.466546942665600
 Root    642 :   105.572587176652300
 Root    643 :   105.895305240616300
 Root    644 :   106.132353736246800
 Root    645 :   106.582720548534300
 Root    646 :   106.626560405645000
 Root    647 :   107.186115855158200
 Root    648 :   107.258458703520400
 Root    649 :   107.729606927276000
 Root    650 :   108.497674214282600
 Root    651 :   108.664161376858900
 Root    652 :   109.341040116962900
 Root    653 :   109.344614992892600
 Root    654 :   110.715245536777400
 Root    655 :   111.187261975260700
 Root    656 :   111.361161369174900
 Root    657 :   112.300216083838800
 Root    658 :   112.531781035047600
 Root    659 :   113.028000752313900
 Root    660 :   113.504583271829300
 Root    661 :   113.819357255617800
 Root    662 :   114.502920714561200
 Root    663 :   115.080866749534400
 Root    664 :   115.142421145106500
 Root    665 :   115.992241710600600
 Root    666 :   116.797562979645700
 Root    667 :   118.029283814296300
 Root    668 :   118.441569737083900
 Root    669 :   119.154927772995800
 Root    670 :   120.556315910473600
 Root    671 :   123.109094702869200
 Root    672 :   124.498397757071700
 Root    673 :   126.901056269965400
 Root    674 :   128.567951607863300
 Root    675 :   130.471273861088100
 Convergence achieved for final wavefunctions.
 ***********************************************************************
 Excited states from <AA,BB:AA,BB> singles matrix:
 ***********************************************************************
 
 1PDM for each excited state written to RWF  633
 Ground to excited state transition densities written to RWF  633
 Ground to excited state transition electric dipole moments (Au):
       state          X           Y           Z        Dip. S.      Osc.
         1         0.0000      0.0000      0.0722      0.0052      0.0007
         2        -0.7257      0.0794     -0.0000      0.5329      0.1015
         3        -0.0001      0.0000      0.2880      0.0830      0.0159
         4         0.8831      0.2094      0.0000      0.8238      0.1664
         5        -0.0000      0.0000      0.1065      0.0114      0.0025
         6         0.4478     -0.6983      0.0000      0.6881      0.1517
         7        -0.4420     -0.4354      0.0000      0.3849      0.0903
         8        -0.0000     -0.0000     -0.2311      0.0534      0.0127
         9        -0.0000     -0.0000      0.1533      0.0235      0.0057
        10        -0.0000      0.0000     -0.1041      0.0108      0.0028
        11        -0.0000      0.0000     -0.0136      0.0002      0.0000
        12        -0.0159      0.1047      0.0000      0.0112      0.0029
        13         0.3056      0.0084      0.0000      0.0935      0.0247
        14         0.0505      0.0001     -0.0000      0.0026      0.0007
        15        -0.0000     -0.0000      0.0815      0.0066      0.0018
        16         0.2962      0.0706      0.0000      0.0927      0.0253
        17         0.0000      0.0000     -0.4333      0.1877      0.0529
        18         0.1457     -0.5944      0.0000      0.3745      0.1074
        19        -0.0000     -0.0000      0.2157      0.0465      0.0138
        20         0.2458      0.1969      0.0000      0.0992      0.0296
        21         0.3526      0.2176     -0.0000      0.1717      0.0517
        22         0.0000     -0.0000     -0.2043      0.0417      0.0126
        23        -0.0000     -0.0000     -0.2869      0.0823      0.0250
        24         0.0000      0.0000      0.1690      0.0286      0.0087
        25        -0.4822     -0.3455      0.0000      0.3519      0.1080
        26        -0.1434      0.2982     -0.0000      0.1095      0.0343
        27        -0.0000      0.0000      0.2031      0.0412      0.0129
        28        -0.2391      0.1614     -0.0000      0.0832      0.0268
        29        -0.0000     -0.0000      0.1373      0.0189      0.0061
        30         0.0414     -0.6150     -0.0000      0.3800      0.1235
        31        -0.0000      0.0001     -0.2514      0.0632      0.0206
        32        -0.1783     -0.0097     -0.0000      0.0319      0.0106
        33        -0.0000     -0.0000     -0.4848      0.2350      0.0815
        34         0.4116      0.3876      0.0177      0.3200      0.1120
        35        -0.0206     -0.0194      0.3534      0.1257      0.0440
        36        -0.0828      0.3574     -0.0000      0.1346      0.0478
        37         0.0000      0.0000      0.5684      0.3231      0.1154
        38        -0.2568     -0.0506      0.0000      0.0685      0.0246
        39         0.0001      0.0000      0.1424      0.0203      0.0074
        40         0.4148      0.1120     -0.0000      0.1846      0.0670
        41        -0.0000      0.0000     -0.0319      0.0010      0.0004
        42         0.3358     -0.2183     -0.0000      0.1604      0.0589
        43        -0.0000     -0.0000     -0.3974      0.1579      0.0581
        44        -0.5646     -0.4673      0.0000      0.5371      0.1978
        45        -0.0000     -0.0001     -0.0013      0.0000      0.0000
        46        -0.1224      0.2771      0.0000      0.0918      0.0341
        47        -0.3791      0.3939      0.0000      0.2988      0.1117
        48        -0.0000      0.0000      0.0059      0.0000      0.0000
        49        -0.1123      0.2180     -0.0000      0.0601      0.0230
        50         0.0000     -0.0000      0.1539      0.0237      0.0092
        51         0.0868     -0.0991     -0.0000      0.0174      0.0067
        52         0.3615      0.2788     -0.0000      0.2084      0.0816
        53         0.0000     -0.0000     -0.0937      0.0088      0.0035
        54        -0.0610     -0.2950     -0.0000      0.0907      0.0362
        55         0.0000     -0.0000      0.0801      0.0064      0.0026
        56         0.0761     -0.0476      0.0000      0.0081      0.0032
        57         0.0000     -0.0000     -0.2718      0.0739      0.0298
        58        -0.1126      0.0204     -0.0001      0.0131      0.0053
        59         0.1639     -0.1175      0.0000      0.0407      0.0166
        60         0.0000      0.0000     -0.1613      0.0260      0.0106
[...]
     14  -0.401681D-05 -0.558009D+00  0.105259D-03 -0.622808D+00 -0.164274D-03
     15  -0.323112D+00  0.209716D-04 -0.262639D+00 -0.538241D-04 -0.344144D+00
     16  -0.149277D-01  0.143766D-05 -0.101999D+00 -0.218688D-04  0.181133D+00
               606           607           608           609           610 
      1  -0.165971D+03 -0.165947D+03 -0.165907D+03 -0.165906D+03 -0.165895D+03
      2   0.118827D+00  0.626034D-01  0.156953D+00  0.618301D-04  0.305242D-01
      3   0.876354D-01  0.104700D+00 -0.117346D-01 -0.590745D-05 -0.128637D+00
      4  -0.192491D-04  0.000000D+00 -0.142090D-04  0.329698D-01  0.000000D+00
      5  -0.353530D+00 -0.184717D+00 -0.491193D+00 -0.193611D-03 -0.110730D+00
      6  -0.246261D+00 -0.300511D+00  0.651140D-01  0.297674D-04  0.411479D+00
      7   0.550018D-04  0.133658D-05  0.390678D-04 -0.905700D-01  0.268025D-05
      8  -0.309929D-04  0.000000D+00 -0.682432D-04  0.171279D+00  0.000000D+00
      9  -0.102658D-03  0.000000D+00  0.117509D-03 -0.294990D+00  0.145634D-05
     10  -0.792581D+00 -0.583751D+00 -0.461700D-01 -0.143217D-04  0.654595D+00
     11  -0.417968D+00 -0.859437D+00 -0.203952D+01 -0.799777D-03 -0.456076D+00
     12   0.430495D+00  0.209179D+00 -0.529640D-01 -0.278597D-04 -0.623963D+00
     13  -0.113213D+00  0.582829D-01  0.142576D+00  0.606180D-04  0.250602D-01
     14  -0.696711D+00 -0.425099D+00  0.332095D+00  0.135578D-03  0.622624D+00
     15   0.724305D-04  0.372469D-05 -0.167686D-03  0.423141D+00 -0.349333D-05
     16  -0.431894D-04  0.000000D+00 -0.697239D-04  0.177122D+00 -0.360032D-05
               611           612           613           614           615 
      1  -0.165888D+03 -0.165877D+03 -0.165864D+03 -0.165860D+03 -0.165858D+03
      2   0.000000D+00 -0.479007D-01  0.000000D+00 -0.515976D-01 -0.580378D-05
      3   0.000000D+00 -0.622295D-01 -0.163474D-05 -0.924873D-01 -0.859157D-05
      4   0.721951D-02  0.125205D-05  0.127686D-01 -0.117691D-04  0.151873D+00
      5   0.000000D+00  0.140241D+00 -0.190894D-05  0.151161D+00  0.171561D-04
      6   0.140657D-05  0.175372D+00  0.475835D-05  0.282048D+00  0.257843D-04
      7  -0.140157D-01 -0.365796D-05 -0.371656D-01  0.364509D-04 -0.470212D+00
      8   0.327115D-01  0.000000D+00  0.308691D-01 -0.995743D-05  0.120541D+00
      9   0.187527D-01  0.480500D-05  0.884613D-01  0.552564D-04 -0.100025D+01
     10  -0.283171D-04  0.150125D+00 -0.326699D-05  0.541828D+00  0.385251D-04
     11   0.386672D-04  0.218483D+00  0.250304D-04  0.846065D+00  0.893374D-04
     12   0.233955D-04  0.173698D+00 -0.487090D-05 -0.371536D+00 -0.275809D-04
     13  -0.905186D-05 -0.137057D-01  0.000000D+00  0.646877D-01  0.000000D+00
     14  -0.282924D-04  0.116721D+00 -0.642127D-05  0.584124D+00  0.342897D-04
     15  -0.549393D-01 -0.384058D-05  0.529759D-02 -0.576361D-04  0.977404D+00
     16  -0.129603D+00 -0.367022D-05 -0.153231D+00 -0.849477D-05  0.823941D-01
               616           617           618           619           620 
      1  -0.165846D+03 -0.165832D+03 -0.165817D+03 -0.165813D+03 -0.165802D+03
      2  -0.119159D-05 -0.476793D-01  0.406800D-01  0.786845D-01  0.112108D-05
      3  -0.371877D-05 -0.552411D-01 -0.739190D-01 -0.463547D-02  0.801495D-05
      4  -0.994943D-01  0.108075D-05 -0.191777D-05  0.000000D+00 -0.502612D-01
      5   0.328085D-05  0.153912D+00 -0.146699D+00 -0.277793D+00 -0.221885D-05
      6   0.110658D-04  0.192613D+00  0.237763D+00  0.397000D-01 -0.253875D-04
      7   0.305742D+00 -0.304152D-05  0.562027D-05 -0.265142D-05  0.155823D+00
      8  -0.116186D+00  0.111707D-05 -0.249693D-05  0.000000D+00 -0.640062D-01
      9   0.615833D+00 -0.166000D-04 -0.894426D-05 -0.280087D-05  0.163203D+00
     10   0.842855D-05  0.422185D-01  0.207079D+00  0.580335D+00 -0.160023D-04
     11   0.222266D-04 -0.237384D+01 -0.798964D+00 -0.122471D+01  0.503589D-04
     12  -0.244288D-05 -0.324829D-02  0.229534D-01 -0.231230D+00  0.167274D-04
     13  -0.277995D-05 -0.131040D+00 -0.140266D+00  0.128597D+00  0.373047D-05
     14   0.946250D-05  0.997788D-01  0.317101D+00  0.844481D+00 -0.326304D-04
     15  -0.483254D+00  0.186972D-04  0.101732D-04  0.372401D-05 -0.529283D-01
     16  -0.155238D+00 -0.724095D-05  0.784382D-05 -0.105053D-04  0.629975D-01
               621           622           623           624           625 
      1  -0.165797D+03 -0.165764D+03 -0.165761D+03 -0.165758D+03 -0.165707D+03
      2   0.204665D-01 -0.369616D-01  0.261753D-05  0.106904D+00  0.224382D-05
      3   0.109336D+00  0.394348D-01  0.000000D+00 -0.594572D-01  0.000000D+00
      4   0.627730D-05 -0.127393D-04  0.262784D+00 -0.945411D-05 -0.977072D-01
      5  -0.437535D-01  0.113677D+00 -0.941317D-05 -0.372866D+00 -0.795100D-05
      6  -0.345442D+00 -0.132678D+00  0.104060D-05  0.185386D+00  0.000000D+00
      7  -0.194406D-04  0.397542D-04 -0.824760D+00  0.294811D-04  0.318836D+00
      8   0.839590D-05 -0.195451D-04  0.443742D+00 -0.132560D-04 -0.170325D+00
      9   0.220154D-05 -0.963931D-04  0.213018D+01 -0.688140D-04  0.677063D-01
     10  -0.280526D+00  0.534055D+00  0.387177D-04  0.543539D+00  0.000000D+00
     11   0.418355D+00  0.625252D+00 -0.320576D-04 -0.911060D+00  0.624583D-05
     12   0.261384D+00  0.145208D-01  0.000000D+00 -0.558299D-01 -0.611352D-05
     13   0.421987D-01 -0.158498D+00 -0.467026D-05 -0.139855D+00 -0.322456D-05
     14  -0.565654D+00  0.623203D+00  0.529991D-04  0.652115D+00  0.140627D-04
     15  -0.131319D-04  0.123133D-03 -0.266986D+01  0.852895D-04  0.292903D-01
     16   0.000000D+00 -0.423948D-04  0.849699D+00 -0.249491D-04 -0.186434D+00
               626           627           628           629           630 
      1  -0.165700D+03 -0.165695D+03 -0.165690D+03 -0.165685D+03 -0.165678D+03
      2   0.291365D-04  0.781528D-01 -0.289852D-05 -0.183430D-02  0.000000D+00
      3   0.104240D-04  0.294780D-01 -0.122270D-05  0.437301D-02  0.175626D-05
      4   0.918425D-01 -0.241897D-04  0.122967D+00  0.704611D-05 -0.625382D-01
      5  -0.104157D-03 -0.282460D+00  0.108672D-04 -0.423715D-02 -0.138734D-05
      6  -0.269838D-04 -0.791622D-01  0.366501D-05 -0.225519D-01 -0.526632D-05
      7  -0.279539D+00  0.724889D-04 -0.394078D+00 -0.221009D-04  0.196241D+00
      8   0.563656D-01 -0.511425D-05  0.163620D+00  0.585048D-05 -0.896558D-01
      9   0.288262D+00 -0.759367D-04  0.238715D+00  0.858744D-05 -0.550274D+00
     10  -0.194526D-04  0.104430D-03 -0.159657D-04  0.423738D+00 -0.277423D-05
     11  -0.135928D-03 -0.143488D+00 -0.551720D-04  0.112792D+01 -0.175482D-04
     12  -0.151845D-04 -0.315465D-01  0.298497D-05  0.206242D-01  0.503659D-05
     13  -0.987485D-04 -0.302727D+00  0.153487D-04 -0.126522D+00 -0.340887D-05
     14   0.184994D-03  0.598595D+00 -0.414674D-04  0.615436D+00  0.000000D+00
     15  -0.459024D+00  0.135484D-03 -0.263264D+00 -0.216965D-04  0.647246D+00
     16  -0.255182D+00  0.115900D-03  0.311662D+00 -0.133560D-04  0.606642D-01
               631           632           633           634           635 
      1  -0.165668D+03 -0.165663D+03 -0.165649D+03 -0.165647D+03 -0.165621D+03
      2  -0.297841D-01 -0.100477D-05  0.309564D-01  0.281511D-01 -0.514853D-01
      3  -0.857289D-01 -0.112990D-05  0.273296D-01  0.403067D-01 -0.858872D-01
      4   0.000000D+00  0.200437D-01 -0.414426D-05  0.000000D+00  0.106371D-05
      5   0.110140D+00  0.303892D-05 -0.109658D+00 -0.824035D-01  0.166475D+00
      6   0.276009D+00  0.521491D-05 -0.587097D-01 -0.105696D+00  0.285361D+00
      7  -0.138571D-05 -0.607032D-01  0.128198D-04  0.131744D-05 -0.335445D-05
      8   0.000000D+00  0.268747D-01 -0.395078D-05  0.000000D+00  0.273242D-05
      9  -0.613572D-05  0.212727D+00 -0.310952D-04  0.000000D+00  0.581117D-05
     10   0.226051D+00  0.467154D-04  0.203481D+00  0.172652D+00  0.804782D+00
     11   0.110355D+01 -0.104319D-03 -0.157801D+01 -0.187978D+01  0.514012D+00
     12  -0.514655D+00 -0.172256D-04 -0.182099D+00  0.137871D-02 -0.719220D+00
     13   0.102202D+00  0.418511D-04  0.171066D+00  0.676699D-02  0.427972D-01
     14   0.113952D+00  0.342514D-04  0.307643D+00  0.283896D+00  0.700838D+00
     15   0.464785D-05 -0.568681D-01  0.188452D-04  0.695221D-05 -0.661250D-05
     16   0.365360D-05  0.165435D+00 -0.175683D-04  0.000000D+00  0.278991D-05
               636           637           638           639           640 
      1  -0.165576D+03 -0.165567D+03 -0.165564D+03 -0.165528D+03 -0.165522D+03
      2   0.241346D-01  0.356278D-05 -0.665533D-01  0.000000D+00 -0.133526D-01
      3   0.163068D-01 -0.626574D-05  0.140779D+00 -0.181650D-05 -0.183193D-01
      4   0.000000D+00  0.168954D-01  0.000000D+00  0.184766D-01 -0.117351D-05
      5  -0.669621D-01 -0.126232D-04  0.233701D+00  0.171399D-05  0.470915D-01
      6  -0.442732D-01  0.209137D-04 -0.471479D+00  0.643702D-05  0.689985D-01
      7   0.000000D+00 -0.579189D-01 -0.150534D-05 -0.565706D-01  0.383595D-05
      8   0.000000D+00 -0.283244D-02  0.000000D+00  0.357818D-02 -0.268657D-05
      9   0.163060D-05  0.811440D-01  0.846105D-05 -0.476068D-01  0.739061D-05
     10  -0.456071D+00 -0.935427D-05  0.376757D+00  0.132710D-04  0.207149D+00
     11   0.462223D-01 -0.447310D-05  0.195591D+00 -0.538723D-05 -0.128275D+00
     12   0.206395D+00 -0.914901D-05  0.207856D+00  0.170693D-04  0.258126D+00
     13  -0.485360D+00  0.142178D-04 -0.248051D+00 -0.139239D-04 -0.171443D+00
     14  -0.365833D+00  0.000000D+00  0.220308D+00  0.185373D-04  0.208399D+00
     15  -0.219745D-05 -0.174256D+00 -0.127822D-04  0.288161D+00 -0.213434D-04
     16   0.000000D+00 -0.712290D-01 -0.790285D-05  0.335105D+00 -0.218529D-04
               641           642           643           644           645 
      1  -0.165516D+03 -0.165513D+03 -0.165501D+03 -0.165492D+03 -0.165475D+03
      2   0.000000D+00  0.000000D+00 -0.297837D-01  0.127496D-01 -0.393727D-05
      3   0.000000D+00  0.000000D+00 -0.682877D-01 -0.743101D-01  0.412957D-05
      4  -0.280115D-01  0.447272D-01  0.000000D+00  0.000000D+00  0.786211D-01
      5  -0.191548D-05  0.000000D+00  0.982242D-01 -0.409157D-01  0.148097D-04
      6   0.000000D+00  0.000000D+00  0.249124D+00  0.259743D+00 -0.133945D-04
      7   0.106088D+00 -0.140206D+00  0.259276D-05  0.176999D-05 -0.272078D+00
      8  -0.119656D+00 -0.151603D-01  0.000000D+00 -0.175959D-05  0.147214D+00
      9  -0.315645D+00  0.483646D+00 -0.681810D-05  0.238444D-05  0.796070D+00
     10  -0.192945D-05 -0.751204D-05  0.580311D+00 -0.193353D+00 -0.621113D-04
     11   0.632838D-05  0.191798D-05 -0.335598D+00  0.365728D+00 -0.293917D-04
     12  -0.444119D-05 -0.320792D-05 -0.283866D+00  0.733251D-01  0.371250D-04
     13   0.000000D+00  0.000000D+00 -0.658659D-01 -0.517321D-01 -0.716177D-05
     14   0.172012D-05 -0.556989D-05  0.707650D+00 -0.278780D+00 -0.807129D-04
     15   0.389969D+00 -0.563010D+00  0.107077D-04 -0.466023D-05 -0.908598D+00
     16  -0.284382D+00  0.713661D-01 -0.226922D-05 -0.193281D-05  0.204901D+00
               646           647           648           649           650 
      1  -0.165474D+03 -0.165453D+03 -0.165451D+03 -0.165433D+03 -0.165405D+03
      2   0.666233D-01 -0.183837D-02  0.000000D+00  0.980262D-01 -0.860177D-01
      3  -0.628371D-01  0.961026D-01 -0.163068D-04 -0.105668D+00 -0.338660D-01
      4   0.587395D-05 -0.150973D-05 -0.643447D-02  0.000000D+00  0.000000D+00
      5  -0.246461D+00  0.408999D-01 -0.527633D-05 -0.365975D+00  0.293060D+00
      6   0.203357D+00 -0.317026D+00  0.537080D-04  0.386844D+00  0.130526D+00
      7  -0.202279D-04  0.538610D-05  0.238986D-01  0.128633D-05  0.000000D+00
      8   0.114256D-04 -0.311809D-05 -0.165737D-01  0.000000D+00  0.000000D+00
      9   0.530569D-04 -0.881559D-05 -0.650610D-01  0.139984D-05  0.255598D-05
     10   0.102056D+01 -0.514888D+00  0.835613D-04 -0.417257D+00  0.546222D+00
     11   0.402733D+00 -0.117933D+00  0.135733D-04 -0.491510D+00 -0.222789D+00
     12  -0.602456D+00 -0.565909D-01  0.765716D-05 -0.539503D+00 -0.440825D+00
     13   0.161477D+00  0.418705D-01 -0.103204D-05 -0.293067D-02  0.102545D+00
     14   0.135432D+01 -0.938531D+00  0.150474D-03 -0.121850D+00  0.411340D+00
     15  -0.635726D-04 -0.604998D-05 -0.436400D-01 -0.184845D-05  0.000000D+00
     16   0.118369D-04 -0.350988D-04 -0.230246D+00  0.221942D-05  0.000000D+00
               651           652           653           654           655 
      1  -0.165399D+03 -0.165374D+03 -0.165374D+03 -0.165324D+03 -0.165306D+03
      2   0.691282D-01 -0.552626D-01 -0.402681D-04 -0.139952D-05 -0.840248D-02
      3   0.139977D+00  0.324577D-03  0.000000D+00  0.000000D+00  0.267314D-01
      4   0.000000D+00  0.730251D-04 -0.996197D-01 -0.188378D-01  0.000000D+00
      5  -0.263630D+00  0.210306D+00  0.153448D-03  0.525902D-05  0.278761D-01
      6  -0.502046D+00 -0.119150D-01 -0.946040D-05  0.000000D+00 -0.880779D-01
      7  -0.194987D-05 -0.251305D-03  0.342919D+00  0.829440D-01 -0.124380D-05
      8   0.157687D-05  0.147289D-03 -0.200078D+00 -0.131296D-01  0.000000D+00
      9  -0.204235D-05  0.619923D-03 -0.832709D+00 -0.321013D+00  0.000000D+00
     10  -0.597391D+00 -0.340203D+00 -0.251753D-03  0.477648D-05  0.586886D+00
     11  -0.945767D-01 -0.126933D+01 -0.932696D-03  0.164394D-04 -0.689613D+00
     12   0.339778D+00 -0.956216D-01 -0.688224D-04 -0.308973D-05 -0.826533D-01
     13   0.978573D-01 -0.643956D-01 -0.505661D-04  0.000000D+00  0.702564D-01
     14  -0.549824D+00 -0.406975D+00 -0.300518D-03  0.000000D+00  0.596529D+00
     15   0.000000D+00 -0.789130D-03  0.106531D+01  0.333544D+00 -0.108830D-05
     16   0.110077D-05  0.233044D-03 -0.314981D+00 -0.608550D-01 -0.188579D-05
               656           657           658           659           660 
      1  -0.165300D+03 -0.165265D+03 -0.165257D+03 -0.165239D+03 -0.165221D+03
      2  -0.178883D+00 -0.429215D-01  0.854143D-02  0.000000D+00 -0.298477D-01
      3  -0.684386D-02 -0.983900D-02 -0.117696D-01  0.000000D+00 -0.913051D-02
      4   0.000000D+00 -0.112081D-05  0.000000D+00 -0.441903D-01 -0.105922D-05
      5   0.673789D+00  0.122516D+00 -0.460029D-01 -0.116658D-05  0.101141D+00
      6  -0.415716D-02  0.354887D-01  0.293646D-01  0.000000D+00  0.325848D-01
      7  -0.275997D-05  0.410846D-05 -0.285621D-05  0.166801D+00  0.385716D-05
      8   0.263727D-05 -0.116114D-05  0.109229D-05 -0.115879D+00 -0.183688D-05
      9   0.763152D-05 -0.110764D-04  0.292618D-05 -0.491315D+00  0.000000D+00
     10   0.879974D+00  0.336771D+00  0.352583D+00 -0.296922D-05 -0.118651D+00
     11   0.333339D+01  0.387934D+00  0.150779D+01  0.126336D-04 -0.184065D+00
     12  -0.461353D+00 -0.815481D-01  0.891193D-01  0.113538D-05  0.691371D-01
     13  -0.119012D+00  0.925244D-03 -0.674017D-01  0.127800D-05 -0.261047D+00
     14   0.138199D+00  0.327923D+00 -0.565721D-02 -0.855068D-05 -0.129230D+00
     15  -0.125199D-04  0.998893D-05 -0.747631D-05  0.432968D+00  0.204378D-05
     16   0.000000D+00  0.000000D+00  0.115646D-05 -0.802769D-01  0.000000D+00
               661           662           663           664           665 
      1  -0.165209D+03 -0.165184D+03 -0.165163D+03 -0.165161D+03 -0.165130D+03
      2   0.000000D+00  0.139968D+00  0.550000D-01  0.000000D+00  0.669611D-01
      3  -0.114101D-05 -0.123204D+00 -0.317347D-01  0.000000D+00  0.246154D-01
      4  -0.380985D-01  0.000000D+00  0.000000D+00  0.650093D-01  0.000000D+00
      5  -0.177623D-05 -0.560828D+00 -0.210739D+00 -0.355021D-05 -0.276336D+00
      6   0.443854D-05  0.473054D+00  0.123705D+00  0.350116D-05 -0.872183D-01
      7   0.137101D+00  0.131801D-05  0.000000D+00 -0.222662D+00  0.000000D+00
      8  -0.128059D+00  0.125749D-05  0.000000D+00  0.507884D-01 -0.104412D-05
      9  -0.273775D+00 -0.185892D-05 -0.736808D-05  0.392945D+00 -0.278550D-05
     10   0.112858D-04  0.107827D+01 -0.196365D+00 -0.366244D-05  0.323506D+00
     11  -0.981260D-05 -0.274477D+01  0.957028D+00 -0.420616D-05 -0.142939D+01
     12  -0.781626D-05 -0.667178D+00 -0.358529D+00 -0.524036D-05  0.212994D+00
     13  -0.145275D-05  0.104093D+00  0.857417D-01  0.000000D+00  0.531890D-01
     14   0.123786D-04  0.187003D+01  0.259594D-01  0.256681D-05  0.764298D+00
     15   0.333953D+00  0.355287D-05  0.429097D-05 -0.301339D+00  0.580544D-05
     16  -0.188369D+00 -0.163991D-05  0.000000D+00  0.187696D-02 -0.213740D-05
               666           667           668           669           670 
      1  -0.165100D+03 -0.165055D+03 -0.165040D+03 -0.165013D+03 -0.164962D+03
      2   0.960741D-02 -0.195776D-01 -0.150095D-01  0.243836D-01 -0.326549D-01
      3  -0.440780D-01 -0.579191D-01  0.485458D-01 -0.334014D-01 -0.206916D-01
      4   0.000000D+00  0.000000D+00  0.000000D+00  0.000000D+00  0.000000D+00
      5  -0.293972D-01  0.744639D-01  0.609381D-01 -0.110028D+00  0.115541D+00
      6   0.183229D+00  0.216059D+00 -0.169641D+00  0.120745D+00  0.908903D-01
      7   0.000000D+00  0.000000D+00 -0.145944D-05  0.000000D+00  0.000000D+00
      8   0.000000D+00  0.000000D+00  0.000000D+00  0.000000D+00  0.000000D+00
      9   0.000000D+00  0.404622D-05  0.000000D+00 -0.120668D-05  0.000000D+00
     10   0.901167D-01  0.244667D-01  0.536525D+00 -0.750442D-01 -0.324597D+00
     11  -0.926989D+00 -0.390363D-01  0.326062D+00  0.316561D+00 -0.400179D+00
     12  -0.544809D-01 -0.149548D+00 -0.212239D-01 -0.272896D+00 -0.229060D+00
     13   0.369714D-01 -0.102969D+00  0.119937D-01  0.591427D-01  0.123147D+00
     14   0.236655D+00 -0.139793D+00  0.509821D+00  0.103327D+00  0.170676D-01
     15   0.171398D-05 -0.361834D-05  0.000000D+00  0.000000D+00  0.160891D-05
     16   0.000000D+00  0.132050D-05 -0.217316D-05  0.000000D+00  0.000000D+00
               671           672           673           674           675 
      1  -0.164868D+03 -0.164817D+03 -0.164729D+03 -0.164667D+03 -0.164598D+03
      2   0.158689D-01  0.268746D-01  0.143356D-01 -0.368211D-02 -0.159720D-01
      3   0.118031D-01 -0.500497D-02 -0.454449D-02 -0.138596D-02  0.862549D-02
      4   0.000000D+00  0.000000D+00  0.000000D+00  0.000000D+00  0.000000D+00
      5  -0.694027D-01 -0.105181D+00 -0.123725D-01  0.239214D-01  0.359772D-01
      6  -0.232861D-01  0.249416D-01  0.102463D-01 -0.394058D-02 -0.956593D-02
      7   0.000000D+00  0.000000D+00  0.000000D+00  0.000000D+00  0.000000D+00
      8   0.000000D+00  0.000000D+00  0.000000D+00  0.000000D+00  0.000000D+00
      9   0.000000D+00  0.000000D+00  0.000000D+00  0.000000D+00  0.000000D+00
     10   0.238497D+00 -0.146749D+00  0.449155D-01 -0.100756D+00 -0.797715D-01
     11  -0.587136D+00  0.322651D+00  0.682799D+00 -0.982600D-01  0.447973D-01
     12  -0.203601D+00 -0.399238D-01 -0.495968D-01  0.299754D-01 -0.215733D+00
     13   0.385398D-01 -0.206259D-01  0.379716D-01  0.414615D-01 -0.260184D-01
     14   0.324231D+00  0.888004D-01 -0.110515D+00  0.443334D-01  0.370514D-01
     15   0.000000D+00  0.000000D+00 -0.169970D-05  0.000000D+00  0.000000D+00
     16  -0.140106D-05  0.000000D+00  0.000000D+00  0.000000D+00  0.000000D+00
 Unable to Open any file for archive entry.
 1\1\GINC-HEL23\SP\RLC-BLYP TD-FC\Gen\C1H3N1O1\SABYASACHI\21-Mar-2022\0
 \\#P TD(Nstates=10000) lc-blyp/Gen SCF(maxcycles=100) Int(Grid=ultrafi
 ne)\\xGDB7_00001_tier4.com\\0,1\N,0,-1.078471,-0.1569,0.000001\C,0,0.1
 61963,0.384944,0.000002\O,0,1.18917,-0.245458,-0.000001\H,0,-1.898427,
 0.419427,-0.000004\H,0,-1.178124,-1.157073,-0.000005\H,0,0.140706,1.48
 9948,-0.000007\\Version=EM64L-G16RevC.01\State=1-A\HF=-169.3922338\RMS
 D=7.407e-09\PG=C01 [X(C1H3N1O1)]\\@
 The archive entry for this job was punched.


 EVERY WORD THAT YOU WRITE IS A BLOW THAT SMITES THE DEVIL.
     -- ST. BERNARD OF CLAIRVAUX
 Job cpu time:       0 days  0 hours  8 minutes  9.6 seconds.
 Elapsed time:       0 days  0 hours  1 minutes  1.6 seconds.
 File lengths (MBytes):  RWF=    584 Int=      0 D2E=      0 Chk=    127 Scr=      1
 Normal termination of Gaussian 16 at Mon Mar 21 20:08:50 2022.
