 Entering Gaussian System, Link 0=g16
 Input=000020.com
 Output=000020.log
 Initial command:
 /home/sabyasachi/g16/l1.exe "/scratch/sabyasachi/PBS_7976220.helios/Gau-157127.inp" -scrdir="/scratch/sabyasachi/PBS_7976220.helios/"
 Entering Link 1 = /home/sabyasachi/g16/l1.exe PID=    157128.
  
 Copyright (c) 1988-2019, Gaussian, Inc.  All Rights Reserved.
  
 This is part of the Gaussian(R) 16 program.  It is based on
 the Gaussian(R) 09 system (copyright 2009, Gaussian, Inc.),
 the Gaussian(R) 03 system (copyright 2003, Gaussian, Inc.),
 the Gaussian(R) 98 system (copyright 1998, Gaussian, Inc.),
 the Gaussian(R) 94 system (copyright 1995, Gaussian, Inc.),
 the Gaussian 92(TM) system (copyright 1992, Gaussian, Inc.),
 the Gaussian 90(TM) system (copyright 1990, Gaussian, Inc.),
 the Gaussian 88(TM) system (copyright 1988, Gaussian, Inc.),
 the Gaussian 86(TM) system (copyright 1986, Carnegie Mellon
 University), and the Gaussian 82(TM) system (copyright 1983,
 Carnegie Mellon University). Gaussian is a federally registered
 trademark of Gaussian, Inc.
  
 This software contains proprietary and confidential information,
 including trade secrets, belonging to Gaussian, Inc.
  
 This software is provided under written license and may be
 used, copied, transmitted, or stored only in accord with that
 written license.
  
 The following legend is applicable only to US Government
 contracts under FAR:
  
                    RESTRICTED RIGHTS LEGEND
  
 Use, reproduction and disclosure by the US Government is
 subject to restrictions as set forth in subparagraphs (a)
 and (c) of the Commercial Computer Software - Restricted
 Rights clause in FAR 52.227-19.
  
 Gaussian, Inc.
 340 Quinnipiac St., Bldg. 40, Wallingford CT 06492
  
  
 ---------------------------------------------------------------
 Warning -- This program may not be used in any manner that
 competes with the business of Gaussian, Inc. or will provide
 assistance to any competitor of Gaussian, Inc.  The licensee
 of this program is prohibited from giving any competitor of
 Gaussian, Inc. access to this program.  By using this program,
 the user acknowledges that Gaussian, Inc. is engaged in the
 business of creating and licensing software in the field of
 computational chemistry and represents and warrants to the
 licensee that it is not a competitor of Gaussian, Inc. and that
 it will not use this program in any manner prohibited above.
 ---------------------------------------------------------------
  

 Cite this work as:
 Gaussian 16, Revision C.01,
 M. J. Frisch, G. W. Trucks, H. B. Schlegel, G. E. Scuseria, 
 M. A. Robb, J. R. Cheeseman, G. Scalmani, V. Barone, 
 G. A. Petersson, H. Nakatsuji, X. Li, M. Caricato, A. V. Marenich, 
 J. Bloino, B. G. Janesko, R. Gomperts, B. Mennucci, H. P. Hratchian, 
 J. V. Ortiz, A. F. Izmaylov, J. L. Sonnenberg, D. Williams-Young, 
 F. Ding, F. Lipparini, F. Egidi, J. Goings, B. Peng, A. Petrone, 
 T. Henderson, D. Ranasinghe, V. G. Zakrzewski, J. Gao, N. Rega, 
 G. Zheng, W. Liang, M. Hada, M. Ehara, K. Toyota, R. Fukuda, 
 J. Hasegawa, M. Ishida, T. Nakajima, Y. Honda, O. Kitao, H. Nakai, 
 T. Vreven, K. Throssell, J. A. Montgomery, Jr., J. E. Peralta, 
 F. Ogliaro, M. J. Bearpark, J. J. Heyd, E. N. Brothers, K. N. Kudin, 
 V. N. Staroverov, T. A. Keith, R. Kobayashi, J. Normand, 
 K. Raghavachari, A. P. Rendell, J. C. Burant, S. S. Iyengar, 
 J. Tomasi, M. Cossi, J. M. Millam, M. Klene, C. Adamo, R. Cammi, 
 J. W. Ochterski, R. L. Martin, K. Morokuma, O. Farkas, 
 J. B. Foresman, and D. J. Fox, Gaussian, Inc., Wallingford CT, 2019.
 
 ******************************************
 Gaussian 16:  EM64L-G16RevC.01  3-Jul-2019
                21-Mar-2022 
 ******************************************
 %mem=64gb
 %nproc=8
 Will use up to    8 processors via shared memory.
 ----------------------------------------------------------------------
 #P TD(Nstates=10000) lc-blyp/Gen SCF(maxcycles=100) Int(Grid=ultrafine
 )
 ----------------------------------------------------------------------
 1/38=1,172=1/1;
 2/12=2,17=6,18=5,40=1/2;
 3/5=7,11=9,25=1,30=1,74=1000402,75=-5/1,2,3,8;
 4//1;
 5/5=2,7=100,38=5/2;
 8/6=1,10=1,108=10000/1;
 9/41=10000,42=1,70=2/14;
 6/7=2,8=2,9=2,10=2/1;
 99/5=1,9=1/99;
 Leave Link    1 at Mon Mar 21 20:15:28 2022, MaxMem=  8589934592 cpu:               0.4 elap:               0.1
 (Enter /home/sabyasachi/g16/l101.exe)
 ---------------------
 xGDB7_00001_tier4.com
 ---------------------
 Symbolic Z-matrix:
 Charge =  0 Multiplicity = 1
 6                     0.        1.16389  -0.19314 
 8                     0.        0.        0.58545 
 6                     0.       -1.16389  -0.19314 
 1                     0.        2.01548   0.48583 
 1                    -0.89039   1.2192   -0.8344 
 1                     0.89039   1.2192   -0.8344 
 1                     0.       -2.01548   0.48583 
 1                     0.89039  -1.2192   -0.8344 
 1                    -0.89039  -1.2192   -0.8344 
 
 ITRead=  0  0  0  0  0  0  0  0  0
 MicOpt= -1 -1 -1 -1 -1 -1 -1 -1 -1
 NAtoms=      9 NQM=        9 NQMF=       0 NMMI=      0 NMMIF=      0
                NMic=       0 NMicF=      0.
                    Isotopes and Nuclear Properties:
 (Nuclear quadrupole moments (NQMom) in fm**2, nuclear magnetic moments (NMagM)
  in nuclear magnetons)

  Atom         1           2           3           4           5           6           7           8           9
 IAtWgt=          12          16          12           1           1           1           1           1           1
 AtmWgt=  12.0000000  15.9949146  12.0000000   1.0078250   1.0078250   1.0078250   1.0078250   1.0078250   1.0078250
 NucSpn=           0           0           0           1           1           1           1           1           1
 AtZEff=  -0.0000000  -0.0000000  -0.0000000  -0.0000000  -0.0000000  -0.0000000  -0.0000000  -0.0000000  -0.0000000
 NQMom=    0.0000000   0.0000000   0.0000000   0.0000000   0.0000000   0.0000000   0.0000000   0.0000000   0.0000000
 NMagM=    0.0000000   0.0000000   0.0000000   2.7928460   2.7928460   2.7928460   2.7928460   2.7928460   2.7928460
 AtZNuc=   6.0000000   8.0000000   6.0000000   1.0000000   1.0000000   1.0000000   1.0000000   1.0000000   1.0000000
 Leave Link  101 at Mon Mar 21 20:15:28 2022, MaxMem=  8589934592 cpu:               0.6 elap:               0.1
 (Enter /home/sabyasachi/g16/l202.exe)
                          Input orientation:                          
 ---------------------------------------------------------------------
 Center     Atomic      Atomic             Coordinates (Angstroms)
 Number     Number       Type             X           Y           Z
 ---------------------------------------------------------------------
      1          6           0        0.000000    1.163894   -0.193136
      2          8           0        0.000000    0.000000    0.585449
      3          6           0        0.000000   -1.163894   -0.193136
      4          1           0        0.000000    2.015478    0.485827
      5          1           0       -0.890390    1.219204   -0.834404
      6          1           0        0.890390    1.219204   -0.834404
      7          1           0        0.000000   -2.015478    0.485827
      8          1           0        0.890390   -1.219204   -0.834404
      9          1           0       -0.890390   -1.219204   -0.834404
 ---------------------------------------------------------------------
                    Distance matrix (angstroms):
                    1          2          3          4          5
     1  C    0.000000
     2  O    1.400301   0.000000
     3  C    2.327788   1.400301   0.000000
     4  H    1.089122   2.017939   3.251061   0.000000
     5  H    1.098671   2.072495   2.623581   1.780409   0.000000
     6  H    1.098671   2.072495   2.623581   1.780409   1.780780
     7  H    3.251061   2.017939   1.089122   4.030956   3.605409
     8  H    2.623581   2.072495   1.098671   3.605409   3.019439
     9  H    2.623581   2.072495   1.098671   3.605409   2.438408
                    6          7          8          9
     6  H    0.000000
     7  H    3.605409   0.000000
     8  H    2.438408   1.780409   0.000000
     9  H    3.019439   1.780409   1.780780   0.000000
 Stoichiometry    C2H6O
 Framework group  C2V[C2(O),SGV(C2H2),X(H4)]
 Deg. of freedom     7
 Full point group                 C2V     NOp   4
 Largest Abelian subgroup         C2V     NOp   4
 Largest concise Abelian subgroup C2V     NOp   4
                         Standard orientation:                         
 ---------------------------------------------------------------------
 Center     Atomic      Atomic             Coordinates (Angstroms)
 Number     Number       Type             X           Y           Z
 ---------------------------------------------------------------------
      1          6           0        0.000000    1.163894   -0.193136
      2          8           0       -0.000000   -0.000000    0.585449
      3          6           0       -0.000000   -1.163894   -0.193136
      4          1           0        0.000000    2.015478    0.485827
      5          1           0       -0.890390    1.219204   -0.834404
      6          1           0        0.890390    1.219204   -0.834404
      7          1           0       -0.000000   -2.015478    0.485827
      8          1           0        0.890390   -1.219204   -0.834404
      9          1           0       -0.890390   -1.219204   -0.834404
 ---------------------------------------------------------------------
 Rotational constants (GHZ):          39.6793505          10.1303106           8.9873277
 Leave Link  202 at Mon Mar 21 20:15:28 2022, MaxMem=  8589934592 cpu:               0.1 elap:               0.0
 (Enter /home/sabyasachi/g16/l301.exe)
 General basis read from cards:  (5D, 7F)
 Centers:       4      5      6      7      8      9
 S 3 1.00
     Exponent=  1.3010701000D+01 Coefficients=  1.9682158000D-02
     Exponent=  1.9622572000D+00 Coefficients=  1.3796524000D-01
     Exponent=  4.4453796000D-01 Coefficients=  4.7831935000D-01
 S 1 1.00
     Exponent=  1.2194962000D-01 Coefficients=  1.0000000000D+00
 P 1 1.00
     Exponent=  8.0000000000D-01 Coefficients=  1.0000000000D+00
 P 1 1.00
     Exponent=  1.1704099050D-01 Coefficients=  1.0000000000D+00
 ****
 Centers:       1      3
 S 5 1.00
     Exponent=  1.2384016938D+03 Coefficients=  5.4568832082D-03
     Exponent=  1.8629004992D+02 Coefficients=  4.0638409211D-02
     Exponent=  4.2251176346D+01 Coefficients=  1.8025593888D-01
     Exponent=  1.1676557932D+01 Coefficients=  4.6315121755D-01
     Exponent=  3.5930506482D+00 Coefficients=  4.4087173314D-01
 S 1 1.00
     Exponent=  4.0245147363D-01 Coefficients=  1.0000000000D+00
 S 1 1.00
     Exponent=  1.3090182668D-01 Coefficients=  1.0000000000D+00
 S 1 1.00
     Exponent=  6.7053540256D-02 Coefficients=  1.0000000000D+00
 P 3 1.00
     Exponent=  9.4680970621D+00 Coefficients=  3.8387871728D-02
     Exponent=  2.0103545142D+00 Coefficients=  2.1117025112D-01
     Exponent=  5.4771004707D-01 Coefficients=  5.1328172114D-01
 P 1 1.00
     Exponent=  1.5268613795D-01 Coefficients=  1.0000000000D+00
 D 1 1.00
     Exponent=  8.0000000000D-01 Coefficients=  1.0000000000D+00
 D 1 1.00
     Exponent=  1.1713185140D-01 Coefficients=  1.0000000000D+00
 ****
 Centers:       2
 S 5 1.00
     Exponent=  2.2661767785D+03 Coefficients= -5.3431809926D-03
     Exponent=  3.4087010191D+02 Coefficients= -3.9890039230D-02
     Exponent=  7.7363135167D+01 Coefficients= -1.7853911985D-01
     Exponent=  2.1479644940D+01 Coefficients= -4.6427684959D-01
     Exponent=  6.6589433124D+00 Coefficients= -4.4309745172D-01
 S 1 1.00
     Exponent=  8.0975975668D-01 Coefficients=  1.0000000000D+00
 S 1 1.00
     Exponent=  2.5530772234D-01 Coefficients=  1.0000000000D+00
 S 1 1.00
     Exponent=  7.6572453250D-02 Coefficients=  1.0000000000D+00
 P 3 1.00
     Exponent=  1.7721504317D+01 Coefficients=  4.3394573193D-02
     Exponent=  3.8635505440D+00 Coefficients=  2.3094120765D-01
     Exponent=  1.0480920883D+00 Coefficients=  5.1375311064D-01
 P 1 1.00
     Exponent=  2.7641544411D-01 Coefficients=  1.0000000000D+00
 P 1 1.00
     Exponent=  6.9002276350D-02 Coefficients=  1.0000000000D+00
 D 1 1.00
     Exponent=  1.2000000000D+00 Coefficients=  1.0000000000D+00
 D 1 1.00
     Exponent=  1.7992024323D-01 Coefficients=  1.0000000000D+00
 ****
 Ernie: Thresh=  0.10000D-02 Tol=  0.10000D-05 Strict=F.
 There are    43 symmetry adapted cartesian basis functions of A1  symmetry.
 There are    18 symmetry adapted cartesian basis functions of A2  symmetry.
 There are    21 symmetry adapted cartesian basis functions of B1  symmetry.
 There are    35 symmetry adapted cartesian basis functions of B2  symmetry.
 There are    39 symmetry adapted basis functions of A1  symmetry.
 There are    18 symmetry adapted basis functions of A2  symmetry.
 There are    21 symmetry adapted basis functions of B1  symmetry.
 There are    33 symmetry adapted basis functions of B2  symmetry.
   111 basis functions,   159 primitive gaussians,   117 cartesian basis functions
    13 alpha electrons       13 beta electrons
       nuclear repulsion energy        84.2993183068 Hartrees.
 IExCor=10402 DFT=T Ex=LC-B+HF Corr=LYP ExCW=0 ScaHFX=  1.000000
 ScaDFX=  1.000000  1.000000  1.000000  1.000000 ScalE2=  1.000000  1.000000
 IRadAn=      5 IRanWt=     -1 IRanGd=            0 ICorTp=0 IEmpDi=  4
 HFx  wShort=  0.000000 wLong=  0.470000 cFull=  0.000000 cShort=  0.000000 cLong=  1.000000
 DFx  wShort=  0.000000 wLong=  0.470000 cFull=  0.000000 cShort=  0.000000 cLong=  1.000000
 NAtoms=    9 NActive=    9 NUniq=    4 SFac= 4.00D+00 NAtFMM=   60 NAOKFM=F Big=F
 Integral buffers will be    131072 words long.
 Raffenetti 1 integral format.
 Two-electron integral symmetry is turned on.
 Leave Link  301 at Mon Mar 21 20:15:28 2022, MaxMem=  8589934592 cpu:               0.6 elap:               0.1
 (Enter /home/sabyasachi/g16/l302.exe)
 NPDir=0 NMtPBC=     1 NCelOv=     1 NCel=       1 NClECP=     1 NCelD=      1
         NCelK=      1 NCelE2=     1 NClLst=     1 CellRange=     0.0.
 One-electron integrals computed using PRISM.
 One-electron integral symmetry used in STVInt
 NBasis=   111 RedAO= T EigKep=  3.93D-04  NBF=    39    18    21    33
 NBsUse=   111 1.00D-06 EigRej= -1.00D+00 NBFU=    39    18    21    33
 Precomputing XC quadrature grid using
 IXCGrd= 4 IRadAn=           5 IRanWt=          -1 IRanGd=           0 AccXCQ= 0.00D+00.
 Generated NRdTot=       0 NPtTot=           0 NUsed=           0 NTot=          32
 NSgBfM=   117   117   117   117   117 MxSgAt=     9 MxSgA2=     9.
 Leave Link  302 at Mon Mar 21 20:15:29 2022, MaxMem=  8589934592 cpu:               1.1 elap:               0.2
 (Enter /home/sabyasachi/g16/l303.exe)
 DipDrv:  MaxL=1.
 Leave Link  303 at Mon Mar 21 20:15:29 2022, MaxMem=  8589934592 cpu:               0.2 elap:               0.0
 (Enter /home/sabyasachi/g16/l308.exe)
 Leave Link  308 at Mon Mar 21 20:15:29 2022, MaxMem=  8589934592 cpu:               0.2 elap:               0.1
 (Enter /home/sabyasachi/g16/l401.exe)
 ExpMin= 6.71D-02 ExpMax= 2.27D+03 ExpMxC= 3.41D+02 IAcc=3 IRadAn=         5 AccDes= 0.00D+00
 Harris functional with IExCor=10402 and IRadAn=       5 diagonalized for initial guess.
 HarFok:  IExCor=10402 AccDes= 0.00D+00 IRadAn=         5 IDoV= 1 UseB2=F ITyADJ=14
 ICtDFT=  3500011 ScaDFX=  1.000000  1.000000  1.000000  1.000000
 FoFCou: FMM=F IPFlag=           0 FMFlag=      100000 FMFlg1=           0
         NFxFlg=           0 DoJE=T BraDBF=F KetDBF=T FulRan=T
         wScrn=  0.000000 ICntrl=       500 IOpCl=  0 I1Cent=   200000004 NGrid=           0
         NMat0=    1 NMatS0=      1 NMatT0=    0 NMatD0=    1 NMtDS0=    0 NMtDT0=    0
 Petite list used in FoFCou.
 Harris En= -148.717218379148    
 JPrj=0 DoOrth=F DoCkMO=F.
 Initial guess orbital symmetries:
       Occupied  (A1) (B2) (A1) (A1) (B2) (A1) (B2) (A1) (B1) (A2)
                 (B2) (A1) (B1)
       Virtual   (A1) (B2) (A1) (B1) (A1) (B2) (B1) (A1) (A2) (A1)
                 (B2) (A2) (B2) (B1) (B2) (A1) (A1) (B1) (A1) (B2)
                 (A1) (A1) (B1) (B1) (A2) (B2) (A2) (B2) (B2) (A2)
                 (A1) (B1) (B2) (A1) (A1) (A2) (B2) (B1) (A1) (B2)
                 (A2) (B2) (A1) (B1) (B2) (A1) (A2) (A1) (A1) (B1)
                 (B2) (B2) (A1) (A2) (A1) (B1) (B2) (A1) (A2) (B2)
                 (B2) (A1) (B1) (A2) (B2) (B1) (B1) (A2) (A1) (B2)
                 (A1) (B1) (A1) (A2) (B2) (A1) (B2) (A2) (B1) (A1)
                 (B2) (B2) (A1) (B1) (A2) (A1) (B2) (A1) (B2) (A1)
                 (A2) (B1) (B2) (B1) (A2) (A1) (A1) (B2)
 The electronic state of the initial guess is 1-A1.
 Leave Link  401 at Mon Mar 21 20:15:29 2022, MaxMem=  8589934592 cpu:               1.8 elap:               0.2
 (Enter /home/sabyasachi/g16/l502.exe)
 Keep R1 ints in memory in symmetry-blocked form, NReq=48420512.
 FoFCou: FMM=F IPFlag=           0 FMFlag=           0 FMFlg1=           0
         NFxFlg=           0 DoJE=F BraDBF=F KetDBF=F FulRan=T
         wScrn=  0.000000 ICntrl=       600 IOpCl=  0 I1Cent=           0 NGrid=           0
         NMat0=    1 NMatS0=   6216 NMatT0=    0 NMatD0=    1 NMtDS0=    0 NMtDT0=    0
 Petite list used in FoFCou.
 Closed shell SCF:
 Using DIIS extrapolation, IDIIS=  1040.
 NGot=  8589934592 LenX=  8585009726 LenY=  8584995596
 Requested convergence on RMS density matrix=1.00D-08 within 100 cycles.
 Requested convergence on MAX density matrix=1.00D-06.
 Requested convergence on             energy=1.00D-06.
 No special actions if energy rises.
 Integral accuracy reduced to 1.0D-05 until final iterations.

 Cycle   1  Pass 0  IDiag  1:
 E= -154.491890013017    
 DIIS: error= 1.41D-02 at cycle   1 NSaved=   1.
 NSaved= 1 IEnMin= 1 EnMin= -154.491890013017     IErMin= 1 ErrMin= 1.41D-02
 ErrMax= 1.41D-02  0.00D+00 EMaxC= 1.00D-01 BMatC= 2.58D-02 BMatP= 2.58D-02
 IDIUse=3 WtCom= 8.59D-01 WtEn= 1.41D-01
 Coeff-Com:  0.100D+01
 Coeff-En:   0.100D+01
 Coeff:      0.100D+01
 Gap=     0.466 Goal=   None    Shift=    0.000
 GapD=    0.466 DampG=2.000 DampE=0.500 DampFc=1.0000 IDamp=-1.
 RMSDP=3.77D-03 MaxDP=8.41D-02              OVMax= 5.10D-02

 Cycle   2  Pass 0  IDiag  1:
 E= -154.513211103925     Delta-E=       -0.021321090908 Rises=F Damp=F
 DIIS: error= 8.43D-03 at cycle   2 NSaved=   2.
 NSaved= 2 IEnMin= 2 EnMin= -154.513211103925     IErMin= 2 ErrMin= 8.43D-03
 ErrMax= 8.43D-03  0.00D+00 EMaxC= 1.00D-01 BMatC= 8.05D-03 BMatP= 2.58D-02
 IDIUse=3 WtCom= 9.16D-01 WtEn= 8.43D-02
 Coeff-Com:  0.335D+00 0.665D+00
 Coeff-En:   0.000D+00 0.100D+01
 Coeff:      0.307D+00 0.693D+00
 Gap=     0.466 Goal=   None    Shift=    0.000
 RMSDP=1.30D-03 MaxDP=2.60D-02 DE=-2.13D-02 OVMax= 1.92D-02

 Cycle   3  Pass 0  IDiag  1:
 E= -154.519787436788     Delta-E=       -0.006576332863 Rises=F Damp=F
 DIIS: error= 2.10D-03 at cycle   3 NSaved=   3.
 NSaved= 3 IEnMin= 3 EnMin= -154.519787436788     IErMin= 3 ErrMin= 2.10D-03
 ErrMax= 2.10D-03  0.00D+00 EMaxC= 1.00D-01 BMatC= 5.15D-04 BMatP= 8.05D-03
 IDIUse=3 WtCom= 9.79D-01 WtEn= 2.10D-02
 Coeff-Com:  0.372D-01 0.201D+00 0.762D+00
 Coeff-En:   0.000D+00 0.000D+00 0.100D+01
 Coeff:      0.365D-01 0.196D+00 0.767D+00
 Gap=     0.472 Goal=   None    Shift=    0.000
 RMSDP=2.85D-04 MaxDP=6.12D-03 DE=-6.58D-03 OVMax= 6.38D-03

 Cycle   4  Pass 0  IDiag  1:
 E= -154.520187139077     Delta-E=       -0.000399702289 Rises=F Damp=F
 DIIS: error= 8.86D-04 at cycle   4 NSaved=   4.
 NSaved= 4 IEnMin= 4 EnMin= -154.520187139077     IErMin= 4 ErrMin= 8.86D-04
 ErrMax= 8.86D-04  0.00D+00 EMaxC= 1.00D-01 BMatC= 1.01D-04 BMatP= 5.15D-04
 IDIUse=3 WtCom= 9.91D-01 WtEn= 8.86D-03
 Coeff-Com: -0.226D-01-0.243D-02 0.316D+00 0.709D+00
 Coeff-En:   0.000D+00 0.000D+00 0.000D+00 0.100D+01
 Coeff:     -0.224D-01-0.240D-02 0.313D+00 0.712D+00
 Gap=     0.468 Goal=   None    Shift=    0.000
 RMSDP=1.31D-04 MaxDP=2.76D-03 DE=-4.00D-04 OVMax= 1.91D-03

 Cycle   5  Pass 0  IDiag  1:
 E= -154.520260854408     Delta-E=       -0.000073715331 Rises=F Damp=F
 DIIS: error= 2.15D-04 at cycle   5 NSaved=   5.
 NSaved= 5 IEnMin= 5 EnMin= -154.520260854408     IErMin= 5 ErrMin= 2.15D-04
 ErrMax= 2.15D-04  0.00D+00 EMaxC= 1.00D-01 BMatC= 2.78D-06 BMatP= 1.01D-04
 IDIUse=3 WtCom= 9.98D-01 WtEn= 2.15D-03
 Coeff-Com: -0.886D-02-0.198D-01 0.116D-01 0.168D+00 0.849D+00
 Coeff-En:   0.000D+00 0.000D+00 0.000D+00 0.000D+00 0.100D+01
 Coeff:     -0.884D-02-0.198D-01 0.116D-01 0.167D+00 0.850D+00
 Gap=     0.469 Goal=   None    Shift=    0.000
 RMSDP=4.95D-05 MaxDP=7.17D-04 DE=-7.37D-05 OVMax= 7.13D-04

 Cycle   6  Pass 0  IDiag  1:
 E= -154.520264415004     Delta-E=       -0.000003560597 Rises=F Damp=F
 DIIS: error= 2.12D-05 at cycle   6 NSaved=   6.
 NSaved= 6 IEnMin= 6 EnMin= -154.520264415004     IErMin= 6 ErrMin= 2.12D-05
 ErrMax= 2.12D-05  0.00D+00 EMaxC= 1.00D-01 BMatC= 5.47D-08 BMatP= 2.78D-06
 IDIUse=1 WtCom= 1.00D+00 WtEn= 0.00D+00
 Coeff-Com:  0.102D-02 0.199D-03-0.116D-01-0.349D-01-0.143D-01 0.106D+01
 Coeff:      0.102D-02 0.199D-03-0.116D-01-0.349D-01-0.143D-01 0.106D+01
 Gap=     0.469 Goal=   None    Shift=    0.000
 RMSDP=1.10D-05 MaxDP=2.36D-04 DE=-3.56D-06 OVMax= 1.68D-04

 Cycle   7  Pass 0  IDiag  1:
 E= -154.520264527432     Delta-E=       -0.000000112428 Rises=F Damp=F
 DIIS: error= 3.88D-06 at cycle   7 NSaved=   7.
 NSaved= 7 IEnMin= 7 EnMin= -154.520264527432     IErMin= 7 ErrMin= 3.88D-06
 ErrMax= 3.88D-06  0.00D+00 EMaxC= 1.00D-01 BMatC= 1.61D-09 BMatP= 5.47D-08
 IDIUse=1 WtCom= 1.00D+00 WtEn= 0.00D+00
 Coeff-Com:  0.149D-03 0.401D-03 0.935D-03-0.610D-03-0.182D-01-0.138D+00
 Coeff-Com:  0.116D+01
 Coeff:      0.149D-03 0.401D-03 0.935D-03-0.610D-03-0.182D-01-0.138D+00
 Coeff:      0.116D+01
 Gap=     0.469 Goal=   None    Shift=    0.000
 RMSDP=1.51D-06 MaxDP=4.34D-05 DE=-1.12D-07 OVMax= 4.25D-05

 Initial convergence to 1.0D-05 achieved.  Increase integral accuracy.
 Cycle   8  Pass 1  IDiag  1:
 E= -154.520267378160     Delta-E=       -0.000002850728 Rises=F Damp=F
 DIIS: error= 9.33D-07 at cycle   1 NSaved=   1.
 NSaved= 1 IEnMin= 1 EnMin= -154.520267378160     IErMin= 1 ErrMin= 9.33D-07
 ErrMax= 9.33D-07  0.00D+00 EMaxC= 1.00D-01 BMatC= 1.79D-10 BMatP= 1.79D-10
 IDIUse=1 WtCom= 1.00D+00 WtEn= 0.00D+00
 Coeff-Com:  0.100D+01
 Coeff:      0.100D+01
 Gap=     0.469 Goal=   None    Shift=    0.000
 RMSDP=1.51D-06 MaxDP=4.34D-05 DE=-2.85D-06 OVMax= 8.56D-06

 Cycle   9  Pass 1  IDiag  1:
 E= -154.520267378504     Delta-E=       -0.000000000344 Rises=F Damp=F
 DIIS: error= 4.58D-07 at cycle   2 NSaved=   2.
 NSaved= 2 IEnMin= 2 EnMin= -154.520267378504     IErMin= 2 ErrMin= 4.58D-07
 ErrMax= 4.58D-07  0.00D+00 EMaxC= 1.00D-01 BMatC= 1.90D-11 BMatP= 1.79D-10
 IDIUse=1 WtCom= 1.00D+00 WtEn= 0.00D+00
 Coeff-Com: -0.742D-01 0.107D+01
 Coeff:     -0.742D-01 0.107D+01
 Gap=     0.469 Goal=   None    Shift=    0.000
 RMSDP=1.50D-07 MaxDP=2.05D-06 DE=-3.44D-10 OVMax= 3.38D-06

 Cycle  10  Pass 1  IDiag  1:
 E= -154.520267378532     Delta-E=       -0.000000000029 Rises=F Damp=F
 DIIS: error= 3.69D-07 at cycle   3 NSaved=   3.
 NSaved= 3 IEnMin= 3 EnMin= -154.520267378532     IErMin= 3 ErrMin= 3.69D-07
 ErrMax= 3.69D-07  0.00D+00 EMaxC= 1.00D-01 BMatC= 1.21D-11 BMatP= 1.90D-11
 IDIUse=1 WtCom= 1.00D+00 WtEn= 0.00D+00
 Coeff-Com: -0.126D+00 0.514D+00 0.611D+00
 Coeff:     -0.126D+00 0.514D+00 0.611D+00
 Gap=     0.469 Goal=   None    Shift=    0.000
 RMSDP=3.35D-08 MaxDP=9.24D-07 DE=-2.86D-11 OVMax= 1.26D-06

 Cycle  11  Pass 1  IDiag  1:
 E= -154.520267378543     Delta-E=       -0.000000000011 Rises=F Damp=F
 DIIS: error= 6.23D-08 at cycle   4 NSaved=   4.
 NSaved= 4 IEnMin= 4 EnMin= -154.520267378543     IErMin= 4 ErrMin= 6.23D-08
 ErrMax= 6.23D-08  0.00D+00 EMaxC= 1.00D-01 BMatC= 4.23D-13 BMatP= 1.21D-11
 IDIUse=1 WtCom= 1.00D+00 WtEn= 0.00D+00
 Coeff-Com: -0.120D-01-0.668D-01 0.709D-01 0.101D+01
 Coeff:     -0.120D-01-0.668D-01 0.709D-01 0.101D+01
 Gap=     0.469 Goal=   None    Shift=    0.000
 RMSDP=1.47D-08 MaxDP=4.55D-07 DE=-1.05D-11 OVMax= 6.17D-07

 Cycle  12  Pass 1  IDiag  1:
 E= -154.520267378544     Delta-E=       -0.000000000001 Rises=F Damp=F
 DIIS: error= 1.93D-08 at cycle   5 NSaved=   5.
 NSaved= 5 IEnMin= 5 EnMin= -154.520267378544     IErMin= 5 ErrMin= 1.93D-08
 ErrMax= 1.93D-08  0.00D+00 EMaxC= 1.00D-01 BMatC= 2.12D-14 BMatP= 4.23D-13
 IDIUse=1 WtCom= 1.00D+00 WtEn= 0.00D+00
 Coeff-Com:  0.932D-02-0.460D-01-0.355D-01 0.772D-01 0.995D+00
 Coeff:      0.932D-02-0.460D-01-0.355D-01 0.772D-01 0.995D+00
 Gap=     0.469 Goal=   None    Shift=    0.000
 RMSDP=4.72D-09 MaxDP=1.37D-07 DE=-9.38D-13 OVMax= 1.83D-07

 SCF Done:  E(RLC-B+HF-LYP) =  -154.520267379     A.U. after   12 cycles
            NFock= 12  Conv=0.47D-08     -V/T= 2.0099
 KE= 1.530066394159D+02 PE=-5.292163009834D+02 EE= 1.373900758821D+02
 Leave Link  502 at Mon Mar 21 20:15:30 2022, MaxMem=  8589934592 cpu:              10.6 elap:               1.4
 (Enter /home/sabyasachi/g16/l801.exe)
 DoSCS=F DFT=T ScalE2(SS,OS)=  1.000000  1.000000
 ExpMin= 6.71D-02 ExpMax= 2.27D+03 ExpMxC= 3.41D+02 IAcc=3 IRadAn=         5 AccDes= 0.00D+00
 HarFok:  IExCor=  205 AccDes= 0.00D+00 IRadAn=         5 IDoV=-2 UseB2=F ITyADJ=14
 ICtDFT= 12500011 ScaDFX=  1.000000  1.000000  1.000000  1.000000
 Largest valence mixing into a core orbital is  6.69D-05
 Largest core mixing into a valence orbital is  7.05D-06
 Range of M.O.s used for correlation:     4   111
 NBasis=   111 NAE=    13 NBE=    13 NFC=     3 NFV=     0
 NROrb=    108 NOA=    10 NOB=    10 NVA=    98 NVB=    98

 **** Warning!!: The largest alpha MO coefficient is  0.14500481D+02

 Leave Link  801 at Mon Mar 21 20:15:30 2022, MaxMem=  8589934592 cpu:               0.6 elap:               0.1
 (Enter /home/sabyasachi/g16/l914.exe)
 RHF ground state
 Keep R1, R2, and R3 ints in memory in symmetry-blocked form, NReq=1109062584.
 FoFCou: FMM=F IPFlag=           0 FMFlag=           0 FMFlg1=           0
         NFxFlg=           0 DoJE=F BraDBF=F KetDBF=F FulRan=T
         wScrn=  0.000000 ICntrl=       600 IOpCl=  0 I1Cent=           0 NGrid=           0
         NMat0=    1 NMatS0=   6216 NMatT0=    0 NMatD0=    1 NMtDS0=    0 NMtDT0=    0
 Petite list used in FoFCou.
 MDV=  8589934592 DFT=T DoStab=F Mixed=T DoRPA=T DoScal=F NonHer=T
 Making orbital integer symmetry assigments:
 Orbital symmetries:
       Occupied  (A1) (B2) (A1) (A1) (B2) (A1) (B1) (A1) (B2) (A2)
                 (B2) (A1) (B1)
       Virtual   (A1) (B2) (A1) (B1) (A1) (B2) (B1) (A1) (A2) (A1)
                 (B2) (A2) (B1) (B2) (B2) (A1) (B1) (A1) (A1) (B2)
                 (A1) (B1) (A2) (A1) (B2) (B1) (A2) (B2) (A2) (A1)
                 (B2) (B1) (B2) (A1) (A1) (A2) (B2) (B1) (B2) (A1)
                 (A2) (B2) (B1) (A1) (B2) (A1) (A2) (A1) (A1) (B1)
                 (B2) (B2) (A1) (A2) (A1) (B1) (B2) (A1) (A2) (B2)
                 (B2) (A1) (B1) (A2) (B2) (B1) (B1) (A2) (A1) (B2)
                 (A1) (B1) (A1) (A2) (B2) (A1) (B2) (B1) (A2) (A1)
                 (B2) (B2) (A1) (B1) (A2) (A1) (B2) (A1) (B2) (A2)
                 (A1) (B1) (B2) (B1) (A1) (A2) (A1) (B2)
   980 initial guesses have been made.
 Convergence on wavefunction:    0.001000000000000
 Davidson Disk Diagonalization:  ConvIn= 1.00D-03 SkipCon=T Conv= 1.00D-03.
 Max sub-space:  5880 roots to seek:  1960 dimension of matrix:         1960
 *** WARNING: Number of orthogonal guesses is          980
 Iteration     1 Dimension   980 NMult     0 NNew    980
 CISAX will form   980 AO SS matrices at one time.
 NMat=   980 NSing=   980 JSym2X=-1.
 New state      2 was old state      3
 New state      3 was old state      2
 New state      5 was old state      6
 New state      6 was old state      5
 New state      7 was old state      8
 New state      8 was old state      7
 New state      9 was old state     10
 New state     10 was old state     11
 New state     11 was old state      9
 New state     12 was old state     13
 New state     13 was old state     15
 New state     14 was old state     12
 New state     15 was old state     14
 New state     17 was old state     18
 New state     18 was old state     19
 New state     19 was old state     20
 New state     20 was old state     22
 New state     21 was old state     24
 New state     22 was old state     17
 New state     23 was old state     31
 New state     24 was old state     25
 New state     25 was old state     26
 New state     26 was old state     21
 New state     27 was old state     29
 New state     28 was old state     30
 New state     29 was old state     23
 New state     30 was old state     28
 New state     31 was old state     39
 New state     32 was old state     27
 New state     33 was old state     32
 New state     34 was old state     33
 New state     36 was old state     43
 New state     37 was old state     48
 New state     38 was old state     40
 New state     39 was old state     36
 New state     40 was old state     34
 New state     41 was old state     44
 New state     42 was old state     37
 New state     43 was old state     42
 New state     44 was old state     38
 New state     45 was old state     62
 New state     46 was old state     41
 New state     47 was old state     51
 New state     48 was old state     47
 New state     49 was old state     46
 New state     50 was old state     53
 New state     51 was old state     45
 New state     52 was old state     56
 New state     53 was old state     60
 New state     55 was old state     57
 New state     56 was old state     61
 New state     57 was old state     49
 New state     58 was old state     55
 New state     59 was old state     74
 New state     60 was old state     69
 New state     61 was old state     50
 New state     62 was old state     52
 New state     64 was old state     58
 New state     65 was old state     67
 New state     66 was old state     59
 New state     67 was old state     70
 New state     68 was old state     72
 New state     69 was old state     65
 New state     70 was old state     73
 New state     71 was old state     77
 New state     72 was old state     76
 New state     73 was old state     64
 New state     74 was old state     94
 New state     76 was old state     66
 New state     77 was old state     92
 New state     78 was old state     82
 New state     79 was old state     81
 New state     80 was old state     71
 New state     81 was old state     89
 New state     82 was old state     86
 New state     83 was old state     87
 New state     84 was old state     68
 New state     85 was old state     78
 New state     86 was old state     79
 New state     87 was old state     84
 New state     88 was old state     80
 New state     89 was old state     83
 New state     90 was old state    100
 New state     91 was old state     85
 New state     92 was old state     93
 New state     93 was old state     88
 New state     94 was old state     95
 New state     95 was old state     90
 New state     96 was old state    101
 New state     97 was old state     99
 New state     98 was old state     91
 New state     99 was old state     98
 New state    100 was old state    102
 New state    101 was old state     96
 New state    102 was old state    104
 New state    103 was old state    117
 New state    104 was old state    140
 New state    105 was old state    103
 New state    106 was old state    110
 New state    107 was old state    141
 New state    108 was old state    112
 New state    109 was old state    106
 New state    110 was old state    107
 New state    111 was old state    105
 New state    112 was old state    115
 New state    113 was old state    114
 New state    114 was old state    109
 New state    115 was old state    127
 New state    116 was old state    122
 New state    117 was old state    125
 New state    118 was old state    120
 New state    119 was old state    108
 New state    120 was old state    111
 New state    121 was old state    116
 New state    122 was old state    121
 New state    123 was old state    126
 New state    124 was old state    135
 New state    125 was old state    118
 New state    126 was old state    136
 New state    127 was old state    139
 New state    128 was old state    131
 New state    129 was old state    119
 New state    130 was old state    113
 New state    131 was old state    123
 New state    132 was old state    130
 New state    133 was old state    137
 New state    134 was old state    128
 New state    135 was old state    129
 New state    136 was old state    151
 New state    137 was old state    134
 New state    139 was old state    132
 New state    140 was old state    166
 New state    141 was old state    146
 New state    142 was old state    144
 New state    143 was old state    147
 New state    144 was old state    143
 New state    145 was old state    133
 New state    146 was old state    155
 New state    147 was old state    148
 New state    148 was old state    145
 New state    149 was old state    153
 New state    150 was old state    149
 New state    151 was old state    170
 New state    152 was old state    142
 New state    153 was old state    160
 New state    154 was old state    165
 New state    155 was old state    159
 New state    156 was old state    187
 New state    157 was old state    164
 New state    158 was old state    150
 New state    159 was old state    162
 New state    160 was old state    157
 New state    162 was old state    158
 New state    163 was old state    207
 New state    164 was old state    175
 New state    165 was old state    156
 New state    166 was old state    152
 New state    167 was old state    154
 New state    168 was old state    190
 New state    169 was old state    168
 New state    170 was old state    171
 New state    171 was old state    163
 New state    172 was old state    173
 New state    173 was old state    174
 New state    174 was old state    223
 New state    175 was old state    178
 New state    176 was old state    179
 New state    177 was old state    167
 New state    178 was old state    172
 New state    179 was old state    176
 New state    180 was old state    177
 New state    182 was old state    197
 New state    183 was old state    193
 New state    184 was old state    194
 New state    186 was old state    183
 New state    187 was old state    169
 New state    188 was old state    180
 New state    189 was old state    186
 New state    190 was old state    218
 New state    192 was old state    204
 New state    193 was old state    198
 New state    194 was old state    195
 New state    195 was old state    210
 New state    196 was old state    214
 New state    197 was old state    212
 New state    198 was old state    202
 New state    199 was old state    203
 New state    200 was old state    196
 New state    201 was old state    184
 New state    202 was old state    199
 New state    203 was old state    208
 New state    204 was old state    200
 New state    205 was old state    224
 New state    206 was old state    189
 New state    207 was old state    205
 New state    208 was old state    201
 New state    209 was old state    217
 New state    210 was old state    182
 New state    211 was old state    230
 New state    212 was old state    236
 New state    213 was old state    220
 New state    214 was old state    216
 New state    215 was old state    227
 New state    216 was old state    226
 New state    217 was old state    192
 New state    218 was old state    206
 New state    219 was old state    242
 New state    220 was old state    211
 New state    221 was old state    228
 New state    222 was old state    209
 New state    223 was old state    219
 New state    224 was old state    225
 New state    225 was old state    240
 New state    226 was old state    222
 New state    227 was old state    221
 New state    228 was old state    231
 New state    229 was old state    213
 New state    230 was old state    237
 New state    231 was old state    215
 New state    232 was old state    239
 New state    233 was old state    241
 New state    234 was old state    244
 New state    235 was old state    233
 New state    236 was old state    232
 New state    237 was old state    243
 New state    238 was old state    247
 New state    239 was old state    229
 New state    240 was old state    235
 New state    241 was old state    255
 New state    242 was old state    238
 New state    243 was old state    251
 New state    244 was old state    253
 New state    245 was old state    234
 New state    246 was old state    252
 New state    247 was old state    254
 New state    249 was old state    260
 New state    251 was old state    245
 New state    252 was old state    258
 New state    253 was old state    279
 New state    254 was old state    246
 New state    255 was old state    266
 New state    256 was old state    277
 New state    257 was old state    270
 New state    258 was old state    249
 New state    259 was old state    284
 New state    260 was old state    256
 New state    261 was old state    275
 New state    262 was old state    273
 New state    263 was old state    264
 New state    264 was old state    262
 New state    265 was old state    285
 New state    266 was old state    274
 New state    267 was old state    265
 New state    268 was old state    269
 New state    269 was old state    263
 New state    270 was old state    257
 New state    271 was old state    261
 New state    272 was old state    294
 New state    273 was old state    271
 New state    274 was old state    259
 New state    275 was old state    286
 New state    276 was old state    281
 New state    277 was old state    272
 New state    278 was old state    267
 New state    279 was old state    276
 New state    280 was old state    304
 New state    281 was old state    287
 New state    282 was old state    278
 New state    283 was old state    292
 New state    284 was old state    283
 New state    285 was old state    280
 New state    286 was old state    268
 New state    287 was old state    282
 New state    288 was old state    293
 New state    289 was old state    315
 New state    290 was old state    289
 New state    291 was old state    288
 New state    292 was old state    314
 New state    293 was old state    302
 New state    294 was old state    295
 New state    295 was old state    303
 New state    296 was old state    305
 New state    297 was old state    299
 New state    298 was old state    340
 New state    299 was old state    291
 New state    301 was old state    296
 New state    302 was old state    297
 No map to state    303
 New state    304 was old state    290
 New state    305 was old state    301
 New state    306 was old state    298
 New state    307 was old state    306
 New state    308 was old state    313
 New state    309 was old state    307
 New state    310 was old state    309
 New state    311 was old state    317
 New state    312 was old state    311
 New state    313 was old state    308
 New state    314 was old state    310
 New state    315 was old state    325
 New state    316 was old state    326
 New state    317 was old state    312
 New state    318 was old state    332
 New state    320 was old state    316
 New state    321 was old state    323
 New state    322 was old state    327
 New state    323 was old state    320
 New state    324 was old state    322
 New state    325 was old state    328
 New state    326 was old state    318
 New state    327 was old state    329
 New state    328 was old state    324
 New state    329 was old state    321
 New state    330 was old state    331
 New state    331 was old state    334
 New state    332 was old state    339
 New state    334 was old state    371
 New state    335 was old state    342
 New state    336 was old state    335
 New state    337 was old state    344
 New state    338 was old state    330
 New state    339 was old state    337
 New state    340 was old state    357
 New state    341 was old state    349
 New state    342 was old state    341
 New state    343 was old state    338
 New state    344 was old state    343
 New state    347 was old state    353
 New state    348 was old state    356
 New state    349 was old state    359
 New state    352 was old state    348
 New state    353 was old state    362
 New state    355 was old state    358
 New state    356 was old state    352
 New state    357 was old state    347
 New state    358 was old state    355
 New state    359 was old state    370
 New state    360 was old state    361
 New state    361 was old state    369
 New state    362 was old state    384
 New state    366 was old state    382
 New state    367 was old state    377
 New state    369 was old state    380
 New state    370 was old state    372
 New state    371 was old state    395
 New state    372 was old state    366
 New state    373 was old state    381
 New state    374 was old state    385
 New state    375 was old state    360
 New state    376 was old state    374
 New state    377 was old state    383
 New state    378 was old state    367
 New state    379 was old state    373
 New state    380 was old state    375
 New state    381 was old state    386
 New state    382 was old state    379
 New state    383 was old state    390
 New state    384 was old state    389
 New state    385 was old state    394
 New state    386 was old state    391
 New state    387 was old state    378
 New state    388 was old state    404
 New state    389 was old state    393
 New state    390 was old state    401
 New state    391 was old state    376
 New state    392 was old state    403
 New state    393 was old state    388
 New state    394 was old state    396
 New state    395 was old state    392
 New state    396 was old state    406
 New state    397 was old state    408
 New state    398 was old state    387
 New state    400 was old state    409
 New state    401 was old state    398
 New state    402 was old state    410
 New state    403 was old state    415
 New state    404 was old state    397
 New state    405 was old state    400
 New state    406 was old state    419
 New state    407 was old state    412
 New state    408 was old state    417
 New state    409 was old state    402
 New state    410 was old state    420
 New state    411 was old state    407
 New state    412 was old state    405
 New state    414 was old state    411
 New state    415 was old state    421
 New state    417 was old state    414
 New state    418 was old state    431
 New state    419 was old state    425
 New state    420 was old state    432
 New state    421 was old state    424
 New state    422 was old state    428
 New state    423 was old state    429
 New state    424 was old state    427
 New state    425 was old state    435
 New state    426 was old state    434
 New state    427 was old state    418
 New state    428 was old state    423
 New state    429 was old state    433
 New state    430 was old state    436
 New state    431 was old state    430
 New state    432 was old state    422
 New state    433 was old state    444
 New state    434 was old state    426
 New state    435 was old state    446
 New state    436 was old state    456
 New state    437 was old state    453
 New state    438 was old state    439
 New state    439 was old state    441
 New state    440 was old state    438
 New state    441 was old state    450
 New state    442 was old state    448
 New state    443 was old state    455
 New state    444 was old state    442
 New state    445 was old state    443
 New state    446 was old state    440
 New state    447 was old state    452
 New state    448 was old state    437
 New state    449 was old state    445
 New state    450 was old state    451
 New state    451 was old state    468
 New state    452 was old state    463
 New state    453 was old state    459
 New state    454 was old state    490
 New state    455 was old state    454
 New state    456 was old state    449
 New state    457 was old state    470
 New state    458 was old state    447
 New state    459 was old state    458
 New state    460 was old state    472
 New state    461 was old state    466
 New state    462 was old state    467
 New state    463 was old state    457
 New state    464 was old state    462
 New state    465 was old state    481
 New state    466 was old state    471
 New state    467 was old state    480
 New state    468 was old state    461
 New state    470 was old state    460
 New state    471 was old state    476
 New state    472 was old state    464
 New state    473 was old state    474
 New state    474 was old state    465
 New state    475 was old state    483
 New state    476 was old state    486
 New state    477 was old state    485
 New state    478 was old state    482
 New state    479 was old state    484
 New state    480 was old state    494
 New state    481 was old state    492
 New state    482 was old state    497
 New state    483 was old state    493
 New state    484 was old state    479
 New state    485 was old state    473
 New state    486 was old state    496
 New state    487 was old state    475
 New state    489 was old state    477
 New state    490 was old state    503
 New state    491 was old state    495
 New state    492 was old state    478
 New state    493 was old state    491
 New state    494 was old state    499
 New state    495 was old state    533
 New state    496 was old state    532
 New state    497 was old state    489
 New state    498 was old state    487
 New state    499 was old state    504
 New state    500 was old state    511
 New state    501 was old state    500
 New state    502 was old state    505
 New state    503 was old state    498
 New state    504 was old state    501
 New state    505 was old state    518
 New state    506 was old state    509
 New state    507 was old state    521
 New state    509 was old state    510
 New state    510 was old state    507
 New state    511 was old state    502
 New state    512 was old state    513
 New state    513 was old state    525
 New state    514 was old state    506
 New state    515 was old state    523
 New state    516 was old state    524
 New state    518 was old state    512
 New state    519 was old state    520
 New state    520 was old state    514
 New state    521 was old state    519
 New state    523 was old state    526
 New state    524 was old state    540
 New state    525 was old state    528
 New state    526 was old state    530
 New state    527 was old state    516
 New state    528 was old state    515
 New state    529 was old state    534
 New state    530 was old state    527
 New state    531 was old state    538
 New state    532 was old state    531
 New state    533 was old state    536
 New state    534 was old state    535
 New state    535 was old state    529
 New state    536 was old state    539
 New state    537 was old state    557
 New state    538 was old state    543
 No map to state    539
 New state    540 was old state    551
 New state    541 was old state    537
 New state    543 was old state    541
 New state    545 was old state    550
 New state    546 was old state    547
 New state    547 was old state    546
 New state    548 was old state    552
 New state    549 was old state    565
 New state    550 was old state    549
 New state    551 was old state    554
 New state    552 was old state    545
 New state    554 was old state    555
 New state    555 was old state    559
 New state    557 was old state    548
 New state    558 was old state    560
 New state    559 was old state    564
 New state    560 was old state    558
 New state    561 was old state    562
 New state    562 was old state    570
 New state    563 was old state    576
 New state    564 was old state    569
 New state    565 was old state    567
 New state    566 was old state    568
 New state    567 was old state    571
 New state    568 was old state    566
 New state    569 was old state    561
 New state    570 was old state    563
 New state    571 was old state    582
 New state    572 was old state    580
 New state    573 was old state    574
 New state    574 was old state    577
 New state    575 was old state    573
 New state    576 was old state    572
 New state    577 was old state    575
 New state    578 was old state    592
 New state    580 was old state    584
 New state    581 was old state    586
 New state    582 was old state    578
 New state    583 was old state    596
 New state    584 was old state    581
 New state    585 was old state    583
 New state    586 was old state    585
 New state    587 was old state    594
 New state    590 was old state    587
 New state    591 was old state    593
 New state    592 was old state    591
 New state    593 was old state    590
 New state    594 was old state    595
 New state    595 was old state    597
 New state    596 was old state    598
 New state    597 was old state    599
 New state    598 was old state    605
 New state    599 was old state    611
 New state    605 was old state    606
 New state    606 was old state    618
 New state    607 was old state    610
 New state    608 was old state    609
 New state    609 was old state    607
 New state    610 was old state    613
 New state    611 was old state    608
 New state    613 was old state    622
 New state    614 was old state    617
 New state    615 was old state    614
 New state    617 was old state    615
 New state    618 was old state    624
 No map to state    619
 New state    620 was old state    623
 New state    621 was old state    619
 New state    622 was old state    621
 New state    623 was old state    620
 New state    624 was old state    629
 New state    625 was old state    626
 New state    626 was old state    628
 New state    628 was old state    631
 New state    629 was old state    643
 New state    630 was old state    636
 New state    631 was old state    637
 New state    632 was old state    625
 New state    635 was old state    632
 New state    636 was old state    642
 New state    637 was old state    638
 New state    638 was old state    640
 New state    639 was old state    635
 New state    640 was old state    639
 New state    641 was old state    644
 New state    642 was old state    662
 New state    643 was old state    641
 New state    644 was old state    630
 New state    645 was old state    648
 New state    646 was old state    645
 New state    647 was old state    646
 New state    648 was old state    650
 New state    649 was old state    651
 New state    650 was old state    647
 New state    651 was old state    656
 New state    653 was old state    649
 New state    654 was old state    657
 New state    655 was old state    654
 New state    656 was old state    660
 New state    657 was old state    658
 New state    658 was old state    653
 New state    660 was old state    655
 New state    661 was old state    663
 New state    662 was old state    661
 New state    663 was old state    682
 New state    664 was old state    670
 New state    665 was old state    664
 New state    666 was old state    672
 New state    668 was old state    676
 New state    669 was old state    674
 New state    670 was old state    677
 New state    671 was old state    675
 New state    672 was old state    673
 New state    673 was old state    665
 New state    674 was old state    668
 New state    675 was old state    666
 New state    676 was old state    669
 New state    677 was old state    671
 New state    678 was old state    680
 New state    679 was old state    678
 New state    680 was old state    679
 New state    681 was old state    687
 New state    682 was old state    685
 New state    683 was old state    684
 New state    684 was old state    681
 New state    685 was old state    683
 New state    686 was old state    697
 New state    687 was old state    692
 New state    689 was old state    690
 New state    690 was old state    696
 New state    691 was old state    689
 New state    692 was old state    704
 New state    693 was old state    699
 New state    694 was old state    686
 New state    695 was old state    694
 New state    696 was old state    691
 New state    697 was old state    700
 New state    698 was old state    695
 New state    699 was old state    698
 New state    700 was old state    693
 New state    701 was old state    705
 New state    704 was old state    709
 New state    705 was old state    701
 New state    707 was old state    710
 New state    708 was old state    713
 New state    709 was old state    712
 New state    710 was old state    707
 New state    711 was old state    714
 New state    712 was old state    708
 New state    713 was old state    715
 New state    714 was old state    717
 New state    715 was old state    711
 New state    716 was old state    719
 New state    717 was old state    722
 New state    718 was old state    723
 New state    719 was old state    716
 New state    720 was old state    721
 New state    721 was old state    728
 New state    722 was old state    729
 New state    723 was old state    720
 New state    724 was old state    725
 New state    725 was old state    718
 New state    726 was old state    727
 New state    727 was old state    731
 New state    728 was old state    732
 New state    729 was old state    724
 New state    731 was old state    736
 New state    732 was old state    738
 New state    733 was old state    734
 New state    734 was old state    740
 New state    735 was old state    739
 New state    736 was old state    756
 New state    737 was old state    735
 New state    738 was old state    745
 New state    739 was old state    726
 New state    740 was old state    742
 New state    741 was old state    733
 New state    742 was old state    754
 New state    743 was old state    744
 New state    744 was old state    743
 New state    745 was old state    741
 New state    746 was old state    750
 New state    747 was old state    737
 New state    748 was old state    746
 New state    750 was old state    757
 New state    751 was old state    752
 New state    752 was old state    748
 New state    753 was old state    747
 New state    754 was old state    755
 New state    755 was old state    753
 New state    756 was old state    751
 New state    757 was old state    764
 New state    758 was old state    759
 New state    759 was old state    769
 New state    760 was old state    758
 New state    763 was old state    768
 New state    764 was old state    766
 New state    765 was old state    760
 New state    766 was old state    765
 New state    767 was old state    763
 New state    768 was old state    767
 New state    769 was old state    770
 New state    770 was old state    775
 New state    771 was old state    772
 New state    772 was old state    773
 New state    773 was old state    774
 New state    774 was old state    771
 New state    775 was old state    803
 New state    776 was old state    779
 New state    777 was old state    778
 New state    778 was old state    777
 New state    779 was old state    776
 New state    781 was old state    783
 New state    782 was old state    781
 New state    783 was old state    784
 New state    784 was old state    785
 New state    785 was old state    787
 New state    786 was old state    792
 New state    787 was old state    791
 New state    788 was old state    794
 New state    789 was old state    786
 New state    790 was old state    788
 New state    791 was old state    789
 New state    792 was old state    790
 New state    793 was old state    796
 New state    794 was old state    782
 New state    795 was old state    793
 New state    796 was old state    798
 New state    798 was old state    795
 New state    799 was old state    804
 New state    800 was old state    805
 New state    801 was old state    799
 New state    802 was old state    801
 New state    803 was old state    800
 New state    804 was old state    802
 New state    805 was old state    806
 New state    806 was old state    828
 New state    807 was old state    809
 New state    808 was old state    807
 New state    809 was old state    822
 New state    810 was old state    811
 New state    811 was old state    819
 New state    812 was old state    815
 New state    815 was old state    810
 New state    816 was old state    820
 New state    817 was old state    812
 New state    818 was old state    808
 New state    819 was old state    818
 New state    820 was old state    821
 New state    821 was old state    823
 New state    822 was old state    816
 New state    823 was old state    817
 New state    825 was old state    826
 New state    826 was old state    825
 New state    827 was old state    838
 New state    828 was old state    839
 New state    829 was old state    827
 New state    831 was old state    834
 New state    832 was old state    829
 New state    833 was old state    837
 New state    834 was old state    841
 New state    835 was old state    831
 New state    836 was old state    840
 New state    837 was old state    833
 New state    838 was old state    835
 New state    839 was old state    836
 New state    840 was old state    842
 New state    841 was old state    844
 New state    842 was old state    832
 New state    843 was old state    845
 New state    844 was old state    843
 New state    845 was old state    852
 New state    846 was old state    847
 New state    847 was old state    850
 New state    848 was old state    846
 New state    849 was old state    851
 New state    850 was old state    848
 New state    851 was old state    849
 New state    852 was old state    853
 New state    853 was old state    855
 New state    855 was old state    857
 New state    856 was old state    859
 New state    857 was old state    858
 New state    858 was old state    862
 New state    859 was old state    856
 New state    860 was old state    861
 New state    861 was old state    865
 New state    862 was old state    860
 No map to state    864
 New state    865 was old state    864
 New state    868 was old state    873
 New state    869 was old state    871
 New state    870 was old state    868
 New state    871 was old state    872
 New state    872 was old state    869
 New state    873 was old state    876
 New state    874 was old state    877
 New state    875 was old state    882
 New state    876 was old state    870
 New state    877 was old state    883
 New state    878 was old state    880
 New state    879 was old state    875
 New state    880 was old state    874
 New state    881 was old state    879
 New state    882 was old state    878
 New state    883 was old state    884
 New state    884 was old state    885
 New state    885 was old state    881
 New state    886 was old state    888
 New state    887 was old state    886
 New state    888 was old state    887
 New state    889 was old state    890
 New state    890 was old state    894
 New state    891 was old state    892
 New state    892 was old state    895
 New state    893 was old state    891
 New state    894 was old state    893
 New state    895 was old state    889
 New state    896 was old state    900
 New state    899 was old state    896
 New state    900 was old state    899
 New state    902 was old state    904
 New state    903 was old state    902
 New state    904 was old state    909
 New state    905 was old state    908
 New state    906 was old state    912
 New state    907 was old state    913
 New state    908 was old state    903
 New state    909 was old state    910
 New state    910 was old state    911
 New state    911 was old state    905
 New state    912 was old state    906
 New state    913 was old state    915
 New state    914 was old state    907
 New state    915 was old state    919
 New state    917 was old state    918
 New state    918 was old state    923
 New state    919 was old state    920
 New state    920 was old state    924
 New state    922 was old state    914
 New state    923 was old state    926
 New state    924 was old state    925
 New state    925 was old state    917
 New state    926 was old state    922
 New state    928 was old state    935
 New state    929 was old state    928
 New state    930 was old state    929
 New state    931 was old state    932
 New state    932 was old state    933
 New state    933 was old state    931
 New state    934 was old state    930
 New state    935 was old state    936
 New state    936 was old state    934
 New state    937 was old state    947
 New state    938 was old state    940
 New state    939 was old state    941
 New state    940 was old state    942
 New state    941 was old state    937
 New state    942 was old state    938
 New state    943 was old state    945
 New state    944 was old state    946
 New state    945 was old state    939
 New state    946 was old state    944
 New state    947 was old state    943
 New state    950 was old state    954
 New state    951 was old state    950
 New state    952 was old state    953
 New state    953 was old state    951
 New state    954 was old state    952
 New state    955 was old state    957
 New state    956 was old state    958
 New state    957 was old state    956
 New state    958 was old state    959
 New state    959 was old state    955
 New state    960 was old state    961
 New state    961 was old state    962
 New state    962 was old state    960
 New state    963 was old state    965
 New state    964 was old state    966
 New state    965 was old state    963
 New state    966 was old state    964
 New state    968 was old state    973
 New state    969 was old state    968
 New state    970 was old state    972
 New state    972 was old state    969
 New state    973 was old state    970
 New state    975 was old state    977
 New state    977 was old state    975
 Excitation Energies [eV] at current iteration:
 Root      1 :     7.619035599264187
 Root      2 :     8.700684600498754
 Root      3 :     8.847616390958688
 Root      4 :     9.261562988889777
 Root      5 :     9.351663471481864
 Root      6 :     9.355009844917751
 Root      7 :    10.079219155247180
 Root      8 :    10.261431208366290
 Root      9 :    10.273509355752080
 Root     10 :    10.309749308965720
 Root     11 :    10.612061562705940
 Root     12 :    10.988440596115500
 Root     13 :    11.070542746624600
 Root     14 :    11.136696018163790
 Root     15 :    11.201120717353880
 Root     16 :    11.221106599881720
 Root     17 :    11.552224616934880
 Root     18 :    11.582673575503680
 Root     19 :    11.812464737387030
 Root     20 :    11.938817390365350
 Root     21 :    12.018310039686610
 Root     22 :    12.037782004356580
 Root     23 :    12.245083606777100
 Root     24 :    12.279544440821130
 Root     25 :    12.369506559115920
 Root     26 :    12.387122667727830
 Root     27 :    12.395841824885640
 Root     28 :    12.638976618045290
 Root     29 :    12.843437745600750
 Root     30 :    12.888145969740660
 Root     31 :    13.049936330675310
 Root     32 :    13.252946246961920
 Root     33 :    13.346462387353670
 Root     34 :    13.360920581094680
 Root     35 :    13.448880820851860
 Root     36 :    13.584302807897160
 Root     37 :    13.607762625448630
 Root     38 :    13.752615492182200
 Root     39 :    13.769502380098610
 Root     40 :    13.819694493804510
 Root     41 :    13.839493721636770
 Root     42 :    14.044360708494080
 Root     43 :    14.081807853790510
 Root     44 :    14.142596672937760
 Root     45 :    14.150139872650830
 Root     46 :    14.294662251360770
 Root     47 :    14.324459019688250
 Root     48 :    14.338613345448270
 Root     49 :    14.526373455206480
 Root     50 :    14.564695174600410
 Root     51 :    14.735032719860640
 Root     52 :    14.798730935161590
 Root     53 :    15.009558509686230
 Root     54 :    15.036920367273340
 Root     55 :    15.058803522606360
 Root     56 :    15.203434682821530
 Root     57 :    15.278486353770270
 Root     58 :    15.290670962443880
 Root     59 :    15.295754152051820
 Root     60 :    15.371060836633640
 Root     61 :    15.420550920043690
 Root     62 :    15.509935317981170
 Root     63 :    15.569637421653650
 Root     64 :    15.572007190313740
 Root     65 :    15.591613914161920
 Root     66 :    15.746112986920080
 Root     67 :    15.782177737561330
 Root     68 :    15.786642541180930
 Root     69 :    15.858652547597720
 Root     70 :    15.899376341234700
 Root     71 :    15.931948738234150
 Root     72 :    15.934642022816170
 Root     73 :    15.936489090597130
 Root     74 :    16.038464815994300
 Root     75 :    16.040146788228350
 Root     76 :    16.059226435765840
 Root     77 :    16.247120449621260
 Root     78 :    16.325430352544410
 Root     79 :    16.362205396552600
 Root     80 :    16.395174546417390
 Root     81 :    16.473591961532300
 Root     82 :    16.534544762335760
 Root     83 :    16.545730374603350
 Root     84 :    16.598242829869670
 Root     85 :    16.613225771429990
 Root     86 :    16.699259161977580
 Root     87 :    16.823798780755880
 Root     88 :    16.892288238701610
 Root     89 :    16.931279152568750
 Root     90 :    16.974197140252660
 Root     91 :    17.028872525776870
 Root     92 :    17.083750063255980
 Root     93 :    17.180604354077990
 Root     94 :    17.222103070050730
 Root     95 :    17.239258087861710
 Root     96 :    17.261188826719640
 Root     97 :    17.362655482615790
 Root     98 :    17.367540522809640
 Root     99 :    17.457337498325260
 Root    100 :    17.603913141329900
 Root    101 :    17.642186919747760
 Root    102 :    17.651983061240890
 Root    103 :    17.736302103413480
 Root    104 :    17.801963898529520
 Root    105 :    17.937145199569320
 Root    106 :    17.980012638233410
 Root    107 :    18.009779200076070
 Root    108 :    18.018949782511510
 Root    109 :    18.124102797769820
 Root    110 :    18.141331251136900
 Root    111 :    18.164564183976000
 Root    112 :    18.167339100913690
 Root    113 :    18.220860764003650
 Root    114 :    18.228880268180950
 Root    115 :    18.231186172605480
 Root    116 :    18.290902699157630
 Root    117 :    18.303490973320270
 Root    118 :    18.347705172949690
 Root    119 :    18.379275324024500
 Root    120 :    18.418453232723430
 Root    121 :    18.565189071150780
 Root    122 :    18.610474248070250
 Root    123 :    18.668946649988480
 Root    124 :    18.684747757788850
 Root    125 :    18.714039063601800
 Root    126 :    18.720456821934170
 Root    127 :    18.728251674154360
 Root    128 :    18.802381413060280
 Root    129 :    18.821744884590010
 Root    130 :    18.867103078041240
 Root    131 :    18.929899222941690
 Root    132 :    19.010866153043880
 Root    133 :    19.044290208975260
 Root    134 :    19.121142353901260
 Root    135 :    19.177321717231360
 Root    136 :    19.192022678556350
 Root    137 :    19.226165074896270
 Root    138 :    19.361397493120080
 Root    139 :    19.418967001416450
 Root    140 :    19.474554814764620
 Root    141 :    19.503034829681850
 Root    142 :    19.530625837481880
 Root    143 :    19.562048895601850
 Root    144 :    19.641262151472300
 Root    145 :    19.705101270224100
 Root    146 :    19.726632909211610
 Root    147 :    19.776369825974480
 Root    148 :    19.915743988969200
 Root    149 :    19.929471873065490
 Root    150 :    19.963988892625530
 Root    151 :    20.079668257138550
 Root    152 :    20.080260186582030
 Root    153 :    20.115614930252710
 Root    154 :    20.136843119306410
 Root    155 :    20.357932240188860
 Root    156 :    20.366212855056410
 Root    157 :    20.384538752082810
 Root    158 :    20.410296971480430
 Root    159 :    20.422416463051210
 Root    160 :    20.441874563385880
 Root    161 :    20.451936203772040
 Root    162 :    20.531061181170530
 Root    163 :    20.547714167263270
 Root    164 :    20.551875349110420
 Root    165 :    20.604587037810790
 Root    166 :    20.608851683863770
 Root    167 :    20.617596862234690
 Root    168 :    20.632995798284860
 Root    169 :    20.694414051337970
 Root    170 :    20.842566781631670
 Root    171 :    20.843247698152010
 Root    172 :    20.857596228473150
 Root    173 :    20.931158626292570
 Root    174 :    20.968588580948760
 Root    175 :    21.080971546726320
 Root    176 :    21.088909342491800
 Root    177 :    21.151131879493510
 Root    178 :    21.234765793830490
 Root    179 :    21.283698573957610
 Root    180 :    21.308420521272260
 Root    181 :    21.398768062082490
 Root    182 :    21.447862930861590
 Root    183 :    21.501177732916310
 Root    184 :    21.504840451816200
 Root    185 :    21.509982551785840
 Root    186 :    21.518976116940320
 Root    187 :    21.531060696110710
 Root    188 :    21.572869051226800
 Root    189 :    21.601507123040840
 Root    190 :    21.710753523205420
 Root    191 :    21.723856273423430
 Root    192 :    21.760230743817720
 Root    193 :    21.766517158183630
 Root    194 :    21.790739585513660
 Root    195 :    21.849451570884910
 Root    196 :    21.851855399145820
 Root    197 :    21.888758989348310
 Root    198 :    22.031941476131660
 Root    199 :    22.033522162698540
 Root    200 :    22.055512747479360
 Root    201 :    22.103568595757340
 Root    202 :    22.106159219692670
 Root    203 :    22.110242985762110
 Root    204 :    22.216584282064770
 Root    205 :    22.352111131225830
 Root    206 :    22.387885588921730
 Root    207 :    22.482433039832070
 Root    208 :    22.496182640484170
 Root    209 :    22.520205927847400
 Root    210 :    22.576787865074620
 Root    211 :    22.641822132468170
 Root    212 :    22.646026729010390
 Root    213 :    22.679978854022100
 Root    214 :    22.695757645158200
 Root    215 :    22.750300133191400
 Root    216 :    22.836073955016500
 Root    217 :    22.867401329658650
 Root    218 :    22.868826786247350
 Root    219 :    22.931764785876340
 Root    220 :    22.956583072451140
 Root    221 :    22.970960497202930
 Root    222 :    23.023858097732890
 Root    223 :    23.062935128926170
 Root    224 :    23.063420832713120
 Root    225 :    23.128236110239440
 Root    226 :    23.138765396355510
 Root    227 :    23.159657933250020
 Root    228 :    23.318912315512720
 Root    229 :    23.319638858090660
 Root    230 :    23.372155827760100
 Root    231 :    23.409024226156350
 Root    232 :    23.421897746215560
 Root    233 :    23.479540423697870
 Root    234 :    23.515025960581450
 Root    235 :    23.526294832945670
 Root    236 :    23.528080938294480
 Root    237 :    23.581002671486800
 Root    238 :    23.581974029348450
 Root    239 :    23.625828287283820
 Root    240 :    23.742953474838040
 Root    241 :    23.773817872650020
 Root    242 :    23.823036334999500
 Root    243 :    23.848900635059930
 Root    244 :    23.885400757450630
 Root    245 :    23.923396696136200
 Root    246 :    23.982099593046160
 Root    247 :    23.989604963351680
 Root    248 :    24.059207396928500
 Root    249 :    24.063392485724110
 Root    250 :    24.099429111680460
 Root    251 :    24.107437868841500
 Root    252 :    24.130048182506370
 Root    253 :    24.132573092531570
 Root    254 :    24.214463129680660
 Root    255 :    24.225693233259120
 Root    256 :    24.251134800292380
 Root    257 :    24.320436929832890
 Root    258 :    24.376623520619180
 Root    259 :    24.399281185417330
 Root    260 :    24.504799229897960
 Root    261 :    24.511531566957250
 Root    262 :    24.512106556684260
 Root    263 :    24.652758717492940
 Root    264 :    24.684605316287650
 Root    265 :    24.687369926464540
 Root    266 :    24.739600707990010
 Root    267 :    24.851009719618790
 Root    268 :    24.875833405162710
 Root    269 :    24.900519173832090
 Root    270 :    24.958989951883910
 Root    271 :    24.963768751813150
 Root    272 :    24.999154434788310
 Root    273 :    25.006133770498580
 Root    274 :    25.052144944092840
 Root    275 :    25.145710945255780
 Root    276 :    25.149492881126210
 Root    277 :    25.164884186703750
 Root    278 :    25.199775902568160
 Root    279 :    25.217166979887650
 Root    280 :    25.224765675745310
 Root    281 :    25.356578590270730
 Root    282 :    25.429037394000120
 Root    283 :    25.528290393648910
 Root    284 :    25.568652481982340
 Root    285 :    25.642850295470290
 Root    286 :    25.650396849158550
 Root    287 :    25.711063545062020
 Root    288 :    25.779618349935780
 Root    289 :    25.827124603894310
 Root    290 :    25.871127707824210
 Root    291 :    25.873917840911220
 Root    292 :    25.900912066718390
 Root    293 :    25.926797188174450
 Root    294 :    26.065264351535610
 Root    295 :    26.071966326026350
 Root    296 :    26.087347029474530
 Root    297 :    26.232776079750480
 Root    298 :    26.238659777666260
 Root    299 :    26.267790485907120
 Root    300 :    26.282258752248570
 Root    301 :    26.290964276463970
 Root    302 :    26.300544629672030
 Root    303 :    26.313702062748060
 Root    304 :    26.456470785353840
 Root    305 :    26.542344828374220
 Root    306 :    26.595568491647640
 Root    307 :    26.727258116643950
 Root    308 :    26.805448114411680
 Root    309 :    26.830015742691100
 Root    310 :    26.881270154360210
 Root    311 :    26.899477542679350
 Root    312 :    26.950658041132310
 Root    313 :    26.982546632771370
 Root    314 :    27.027607804645640
 Root    315 :    27.106443757725490
 Root    316 :    27.177543850548000
 Root    317 :    27.241333796011450
 Root    318 :    27.391016634818250
 Root    319 :    27.538072999949080
 Root    320 :    27.605023939767200
 Root    321 :    27.689932338670550
 Root    322 :    27.699205700361910
 Root    323 :    27.711610511809660
 Root    324 :    27.753175360063490
 Root    325 :    27.830758389363550
 Root    326 :    27.853056935675990
 Root    327 :    27.885935964581410
 Root    328 :    27.892493825990910
 Root    329 :    27.928536112230240
 Root    330 :    28.030453468189060
 Root    331 :    28.052114099744570
 Root    332 :    28.068306994840400
 Root    333 :    28.130921120570430
 Root    334 :    28.177591379770350
 Root    335 :    28.371151575684850
 Root    336 :    28.412282390772890
 Root    337 :    28.497086006337810
 Root    338 :    28.505963446541060
 Root    339 :    28.516018010448090
 Root    340 :    28.528580551062450
 Root    341 :    28.661235156219830
 Root    342 :    28.725361611773970
 Root    343 :    28.800151120826330
 Root    344 :    28.837964495357710
 Root    345 :    28.898931839480160
 Root    346 :    28.950395250685500
 Root    347 :    28.967075084820640
 Root    348 :    29.049477644550090
 Root    349 :    29.140303900130340
 Root    350 :    29.197398851417100
 Root    351 :    29.235090153917920
 Root    352 :    29.274746837971630
 Root    353 :    29.401810279026060
 Root    354 :    29.459669684263190
 Root    355 :    29.520606062195390
 Root    356 :    29.534150984458640
 Root    357 :    29.616058629051980
 Root    358 :    29.706029190033050
 Root    359 :    29.748043849331160
 Root    360 :    29.851171451791910
 Root    361 :    29.877423640102630
 Root    362 :    29.901310919096470
 Root    363 :    30.028179295314790
 Root    364 :    30.246764873731420
 Root    365 :    30.264680362702540
 Root    366 :    30.311379115820860
 Root    367 :    30.392303627256610
 Root    368 :    30.570501918001770
 Root    369 :    30.570552360362020
 Root    370 :    30.610964683005320
 Root    371 :    30.711457416696140
 Root    372 :    30.714536024493050
 Root    373 :    30.753065954736000
 Root    374 :    30.764337083237640
 Root    375 :    30.800758988996420
 Root    376 :    30.805028797990450
 Root    377 :    30.839746776883130
 Root    378 :    30.908602671199950
 Root    379 :    30.918165018108040
 Root    380 :    30.961496800457170
 Root    381 :    31.011767599757900
 Root    382 :    31.034969574668160
 Root    383 :    31.043109864180100
 Root    384 :    31.227428461978420
 Root    385 :    31.307262491771640
 Root    386 :    31.330369363562330
 Root    387 :    31.368059806872000
 Root    388 :    31.383173063664690
 Root    389 :    31.398981072702950
 Root    390 :    31.530781922900310
 Root    391 :    31.588551865784910
 Root    392 :    31.596921849128090
 Root    393 :    31.722155701763610
 Root    394 :    31.903611363826710
 Root    395 :    31.954651513651630
 Root    396 :    31.974142678301700
 Root    397 :    31.975647424036260
 Root    398 :    32.014277096227860
 Root    399 :    32.055109137615360
 Root    400 :    32.087032080686130
 Root    401 :    32.141579403976460
 Root    402 :    32.195320131642280
 Root    403 :    32.216877923119990
 Root    404 :    32.303271859690500
 Root    405 :    32.386321155109530
 Root    406 :    32.728841370198040
 Root    407 :    32.752969823054430
 Root    408 :    32.941344957908840
 Root    409 :    32.979254100927360
 Root    410 :    33.043149944998420
 Root    411 :    33.113905399467000
 Root    412 :    33.194139673606750
 Root    413 :    33.455187484463920
 Root    414 :    33.510543837118570
 Root    415 :    33.572427773013850
 Root    416 :    33.587996021883640
 Root    417 :    33.641270640745300
 Root    418 :    33.686600892529440
 Root    419 :    33.714639955858460
 Root    420 :    33.756899604506020
 Root    421 :    33.768026604229850
 Root    422 :    33.800403788403320
 Root    423 :    33.829826595552040
 Root    424 :    33.950112017714100
 Root    425 :    34.146445020845900
 Root    426 :    34.185001073686420
 Root    427 :    34.215143458778390
 Root    428 :    34.352868709750770
 Root    429 :    34.356759639439180
 Root    430 :    34.482999753628280
 Root    431 :    34.560376393962090
 Root    432 :    34.679136152975030
 Root    433 :    34.802946723261930
 Root    434 :    34.835965965618380
 Root    435 :    34.869872064493660
 Root    436 :    34.942149647137210
 Root    437 :    35.017196619192940
 Root    438 :    35.267092454383620
 Root    439 :    35.297834595054050
 Root    440 :    35.437449716806260
 Root    441 :    35.488866626829770
 Root    442 :    35.567603057757050
 Root    443 :    35.580568921816340
 Root    444 :    35.585235906669550
 Root    445 :    35.658021288810920
 Root    446 :    35.716780820658580
 Root    447 :    35.747759625643730
 Root    448 :    35.791685725929660
 Root    449 :    35.888789820517750
 Root    450 :    35.900225055145950
 Root    451 :    35.902216215924800
 Root    452 :    35.955545001771990
 Root    453 :    36.056622122486460
 Root    454 :    36.073751802405310
 Root    455 :    36.085474321470320
 Root    456 :    36.249341207955460
 Root    457 :    36.466710840809310
 Root    458 :    36.534199606725390
 Root    459 :    36.565613091431960
 Root    460 :    36.630541347643460
 Root    461 :    36.730370222278140
 Root    462 :    36.781036711600250
 Root    463 :    36.900603536152860
 Root    464 :    36.919802332168370
 Root    465 :    36.983725420383680
 Root    466 :    37.071441567037960
 Root    467 :    37.139618589620310
 Root    468 :    37.198875513275530
 Root    469 :    37.301441459954060
 Root    470 :    37.353285028521300
 Root    471 :    37.386167222094420
 Root    472 :    37.423846838563850
 Root    473 :    37.485693250049090
 Root    474 :    37.521487149572730
[...]
     16   0.000000D+00  0.675723D+00  0.000000D+00  0.000000D+00  0.000000D+00
               911           912           913           914           915 
      1  -0.151019D+03 -0.151016D+03 -0.151015D+03 -0.151012D+03 -0.151001D+03
      2   0.000000D+00  0.000000D+00  0.941550D-02 -0.111366D+00  0.000000D+00
      3   0.000000D+00 -0.311895D-01  0.000000D+00  0.000000D+00  0.000000D+00
      4   0.122207D+00  0.000000D+00  0.000000D+00  0.000000D+00  0.259718D-01
      5   0.000000D+00  0.000000D+00 -0.104466D-01  0.310562D+00  0.000000D+00
      6   0.000000D+00  0.934665D-01  0.000000D+00  0.000000D+00  0.000000D+00
      7  -0.360762D+00  0.000000D+00  0.000000D+00  0.000000D+00 -0.109754D+00
      8   0.000000D+00 -0.112421D+00  0.000000D+00  0.000000D+00  0.000000D+00
      9   0.000000D+00  0.000000D+00  0.136289D+00  0.307643D+00  0.000000D+00
     10   0.000000D+00  0.000000D+00  0.000000D+00  0.000000D+00  0.000000D+00
     11   0.135159D+00  0.000000D+00  0.000000D+00  0.000000D+00  0.295202D+00
     12   0.383072D+00  0.000000D+00  0.000000D+00  0.000000D+00 -0.207522D+00
     13  -0.533639D+00  0.000000D+00  0.000000D+00  0.000000D+00 -0.102308D+01
     14   0.000000D+00  0.000000D+00  0.000000D+00  0.000000D+00  0.000000D+00
     15   0.000000D+00  0.000000D+00  0.361029D+00  0.144667D+00  0.000000D+00
     16   0.000000D+00  0.132395D+00  0.000000D+00  0.000000D+00  0.000000D+00
               916           917           918           919           920 
      1  -0.150999D+03 -0.150999D+03 -0.150989D+03 -0.150985D+03 -0.150985D+03
      2   0.000000D+00  0.000000D+00  0.000000D+00  0.000000D+00  0.000000D+00
      3   0.000000D+00  0.000000D+00  0.000000D+00  0.990204D-01  0.000000D+00
      4   0.000000D+00 -0.136035D+00  0.000000D+00  0.000000D+00  0.000000D+00
      5   0.000000D+00  0.000000D+00  0.000000D+00  0.000000D+00  0.000000D+00
      6   0.000000D+00  0.000000D+00  0.000000D+00 -0.296118D+00  0.000000D+00
      7   0.000000D+00  0.386549D+00  0.000000D+00  0.000000D+00  0.000000D+00
      8   0.000000D+00  0.000000D+00  0.000000D+00 -0.170358D+00  0.000000D+00
      9   0.000000D+00  0.000000D+00  0.000000D+00  0.000000D+00  0.000000D+00
     10   0.152042D+00  0.000000D+00 -0.148871D+00  0.000000D+00 -0.101035D+00
     11   0.000000D+00  0.418302D-01  0.000000D+00  0.000000D+00  0.000000D+00
     12   0.000000D+00  0.418488D+00  0.000000D+00  0.000000D+00  0.000000D+00
     13   0.000000D+00  0.658740D+00  0.000000D+00  0.000000D+00  0.000000D+00
     14  -0.187573D+00  0.000000D+00  0.332456D+00  0.000000D+00  0.227363D-01
     15   0.000000D+00  0.000000D+00  0.000000D+00  0.000000D+00  0.000000D+00
     16   0.000000D+00  0.000000D+00  0.000000D+00  0.154309D-01  0.000000D+00
               921           922           923           924           925 
      1  -0.150979D+03 -0.150976D+03 -0.150968D+03 -0.150962D+03 -0.150962D+03
      2   0.000000D+00  0.000000D+00  0.000000D+00 -0.843827D-02  0.000000D+00
      3   0.000000D+00  0.423818D-02  0.000000D+00  0.000000D+00  0.000000D+00
      4   0.000000D+00  0.000000D+00 -0.388212D-02  0.000000D+00  0.206293D-01
      5   0.000000D+00  0.000000D+00  0.000000D+00  0.125711D-01  0.000000D+00
      6   0.000000D+00 -0.210061D-01  0.000000D+00  0.000000D+00  0.000000D+00
      7   0.000000D+00  0.000000D+00 -0.163287D-01  0.000000D+00 -0.658800D-01
      8   0.000000D+00  0.219793D+00  0.000000D+00  0.000000D+00  0.000000D+00
      9   0.000000D+00  0.000000D+00  0.000000D+00  0.179633D+00  0.000000D+00
     10  -0.540890D+00  0.000000D+00  0.000000D+00  0.000000D+00  0.000000D+00
     11   0.000000D+00  0.000000D+00  0.152082D+00  0.000000D+00  0.383827D-01
     12   0.000000D+00  0.000000D+00  0.117242D+00  0.000000D+00 -0.106703D+00
     13   0.000000D+00  0.000000D+00 -0.203757D+00  0.000000D+00 -0.192395D+00
     14   0.517168D+00  0.000000D+00  0.000000D+00  0.000000D+00  0.000000D+00
     15   0.000000D+00  0.000000D+00  0.000000D+00  0.231567D+00  0.000000D+00
     16   0.000000D+00 -0.324524D-01  0.000000D+00  0.000000D+00  0.000000D+00
               926           927           928           929           930 
      1  -0.150935D+03 -0.150915D+03 -0.150914D+03 -0.150892D+03 -0.150886D+03
      2   0.000000D+00  0.000000D+00  0.401970D-02  0.000000D+00 -0.364475D-01
      3   0.000000D+00  0.657375D-03  0.000000D+00 -0.120893D-01  0.000000D+00
      4  -0.178124D+00  0.000000D+00  0.000000D+00  0.000000D+00  0.000000D+00
      5   0.000000D+00  0.000000D+00 -0.746642D-02  0.000000D+00  0.759310D-01
      6   0.000000D+00 -0.236843D-01  0.000000D+00  0.211456D-01  0.000000D+00
      7   0.579078D+00  0.000000D+00  0.000000D+00  0.000000D+00  0.000000D+00
      8   0.000000D+00  0.156716D+00  0.000000D+00 -0.113462D+00  0.000000D+00
      9   0.000000D+00  0.000000D+00 -0.828235D-02  0.000000D+00 -0.108293D+00
     10   0.000000D+00  0.000000D+00  0.000000D+00  0.000000D+00  0.000000D+00
     11  -0.171822D+00  0.000000D+00  0.000000D+00  0.000000D+00  0.000000D+00
     12  -0.142967D+00  0.000000D+00  0.000000D+00  0.000000D+00  0.000000D+00
     13   0.180282D+01  0.000000D+00  0.000000D+00  0.000000D+00  0.000000D+00
     14   0.000000D+00  0.000000D+00  0.000000D+00  0.000000D+00  0.000000D+00
     15   0.000000D+00  0.000000D+00 -0.211945D+00  0.000000D+00 -0.401547D-01
     16   0.000000D+00  0.747999D-01  0.000000D+00  0.928001D-01  0.000000D+00
               931           932           933           934           935 
      1  -0.150883D+03 -0.150874D+03 -0.150870D+03 -0.150867D+03 -0.150863D+03
      2   0.000000D+00  0.000000D+00  0.000000D+00  0.000000D+00  0.000000D+00
      3   0.000000D+00  0.000000D+00  0.000000D+00  0.000000D+00 -0.818877D-01
      4   0.000000D+00 -0.592222D-01  0.692996D-01  0.000000D+00  0.000000D+00
      5   0.000000D+00  0.000000D+00  0.000000D+00  0.000000D+00  0.000000D+00
      6   0.000000D+00  0.000000D+00  0.000000D+00  0.000000D+00  0.250206D+00
      7   0.000000D+00  0.156096D+00 -0.219422D+00  0.000000D+00  0.000000D+00
      8   0.000000D+00  0.000000D+00  0.000000D+00  0.000000D+00  0.328580D+00
      9   0.000000D+00  0.000000D+00  0.000000D+00  0.000000D+00  0.000000D+00
     10   0.655080D+00  0.000000D+00  0.000000D+00 -0.212025D+00  0.000000D+00
     11   0.000000D+00 -0.416008D-01 -0.515669D-01  0.000000D+00  0.000000D+00
     12   0.000000D+00  0.786935D+00  0.129437D+00  0.000000D+00  0.000000D+00
     13   0.000000D+00  0.113633D+00  0.300800D-01  0.000000D+00  0.000000D+00
     14  -0.521605D+00  0.000000D+00  0.000000D+00  0.145117D+00  0.000000D+00
     15   0.000000D+00  0.000000D+00  0.000000D+00  0.000000D+00  0.000000D+00
     16   0.000000D+00  0.000000D+00  0.000000D+00  0.000000D+00  0.467969D-01
               936           937           938           939           940 
      1  -0.150844D+03 -0.150828D+03 -0.150810D+03 -0.150808D+03 -0.150803D+03
      2  -0.268518D+00  0.000000D+00  0.000000D+00 -0.351130D-01  0.000000D+00
      3   0.000000D+00  0.000000D+00  0.000000D+00  0.000000D+00 -0.712220D-01
      4   0.000000D+00 -0.723330D-01  0.000000D+00  0.000000D+00  0.000000D+00
      5   0.841650D+00  0.000000D+00  0.000000D+00  0.105986D+00  0.000000D+00
      6   0.000000D+00  0.000000D+00  0.000000D+00  0.000000D+00  0.228463D+00
      7   0.000000D+00  0.225966D+00  0.000000D+00  0.000000D+00  0.000000D+00
      8   0.000000D+00  0.000000D+00  0.000000D+00  0.000000D+00 -0.142448D+00
      9   0.599847D+00  0.000000D+00  0.000000D+00  0.986074D-01  0.000000D+00
     10   0.000000D+00  0.000000D+00  0.296577D+00  0.000000D+00  0.000000D+00
     11   0.000000D+00  0.948029D-01  0.000000D+00  0.000000D+00  0.000000D+00
     12   0.000000D+00  0.193532D+00  0.000000D+00  0.000000D+00  0.000000D+00
     13   0.000000D+00  0.914155D+00  0.000000D+00  0.000000D+00  0.000000D+00
     14   0.000000D+00  0.000000D+00 -0.199349D+00  0.000000D+00  0.000000D+00
     15   0.748007D+00  0.000000D+00  0.000000D+00  0.105005D+00  0.000000D+00
     16   0.000000D+00  0.000000D+00  0.000000D+00  0.000000D+00  0.556038D-01
               941           942           943           944           945 
      1  -0.150796D+03 -0.150796D+03 -0.150793D+03 -0.150766D+03 -0.150764D+03
      2   0.000000D+00  0.000000D+00  0.562196D-01  0.000000D+00  0.147541D+00
      3  -0.215226D-01  0.000000D+00  0.000000D+00  0.000000D+00  0.000000D+00
      4   0.000000D+00 -0.109818D+00  0.000000D+00  0.000000D+00  0.000000D+00
      5   0.000000D+00  0.000000D+00 -0.139752D+00  0.000000D+00 -0.484206D+00
      6   0.321251D-01  0.000000D+00  0.000000D+00  0.000000D+00  0.000000D+00
      7   0.000000D+00  0.377168D+00  0.000000D+00  0.000000D+00  0.000000D+00
      8   0.699110D+00  0.000000D+00  0.000000D+00  0.000000D+00  0.000000D+00
      9   0.000000D+00  0.000000D+00  0.275493D+00  0.000000D+00 -0.627441D+00
     10   0.000000D+00  0.000000D+00  0.000000D+00  0.413798D+00  0.000000D+00
     11   0.000000D+00  0.214181D-01  0.000000D+00  0.000000D+00  0.000000D+00
     12   0.000000D+00 -0.812566D+00  0.000000D+00  0.000000D+00  0.000000D+00
     13   0.000000D+00  0.828323D+00  0.000000D+00  0.000000D+00  0.000000D+00
     14   0.000000D+00  0.000000D+00  0.000000D+00 -0.639283D+00  0.000000D+00
     15   0.000000D+00  0.000000D+00  0.988163D-01  0.000000D+00 -0.891900D+00
     16   0.431939D+00  0.000000D+00  0.000000D+00  0.000000D+00  0.000000D+00
               946           947           948           949           950 
      1  -0.150757D+03 -0.150749D+03 -0.150721D+03 -0.150717D+03 -0.150709D+03
      2   0.000000D+00  0.292109D+00  0.000000D+00  0.000000D+00  0.000000D+00
      3   0.257517D-01  0.000000D+00  0.000000D+00 -0.486170D-01  0.000000D+00
      4   0.000000D+00  0.000000D+00 -0.629463D-01  0.000000D+00  0.000000D+00
      5   0.000000D+00 -0.936129D+00  0.000000D+00  0.000000D+00  0.000000D+00
      6  -0.783032D-01  0.000000D+00  0.000000D+00  0.176213D+00  0.000000D+00
      7   0.000000D+00  0.000000D+00  0.177651D+00  0.000000D+00  0.000000D+00
      8   0.817667D-01  0.000000D+00  0.000000D+00 -0.491340D+00  0.000000D+00
      9   0.000000D+00 -0.941633D+00  0.000000D+00  0.000000D+00  0.000000D+00
     10   0.000000D+00  0.000000D+00  0.000000D+00  0.000000D+00  0.145918D+00
     11   0.000000D+00  0.000000D+00  0.325534D+00  0.000000D+00  0.000000D+00
     12   0.000000D+00  0.000000D+00  0.285954D+00  0.000000D+00  0.000000D+00
     13   0.000000D+00  0.000000D+00 -0.481329D+00  0.000000D+00  0.000000D+00
     14   0.000000D+00  0.000000D+00  0.000000D+00  0.000000D+00 -0.387196D-01
     15   0.000000D+00 -0.110116D+01  0.000000D+00  0.000000D+00  0.000000D+00
     16   0.157615D+00  0.000000D+00  0.000000D+00  0.155950D+00  0.000000D+00
               951           952           953           954           955 
      1  -0.150705D+03 -0.150703D+03 -0.150687D+03 -0.150680D+03 -0.150640D+03
      2   0.000000D+00  0.000000D+00  0.000000D+00  0.000000D+00  0.000000D+00
      3   0.000000D+00  0.000000D+00  0.000000D+00  0.218163D-01  0.315266D-01
      4  -0.171786D-01  0.000000D+00  0.000000D+00  0.000000D+00  0.000000D+00
      5   0.000000D+00  0.000000D+00  0.000000D+00  0.000000D+00  0.000000D+00
      6   0.000000D+00  0.000000D+00  0.000000D+00 -0.775821D-01 -0.118541D+00
      7   0.640338D-01  0.000000D+00  0.000000D+00  0.000000D+00  0.000000D+00
      8   0.000000D+00  0.000000D+00  0.000000D+00  0.103270D+00  0.178601D+00
      9   0.000000D+00  0.000000D+00  0.000000D+00  0.000000D+00  0.000000D+00
     10   0.000000D+00  0.252684D+00  0.260679D+00  0.000000D+00  0.000000D+00
     11   0.370098D-01  0.000000D+00  0.000000D+00  0.000000D+00  0.000000D+00
     12  -0.116312D+00  0.000000D+00  0.000000D+00  0.000000D+00  0.000000D+00
     13   0.872119D-01  0.000000D+00  0.000000D+00  0.000000D+00  0.000000D+00
     14   0.000000D+00 -0.196598D+00 -0.457943D+00  0.000000D+00  0.000000D+00
     15   0.000000D+00  0.000000D+00  0.000000D+00  0.000000D+00  0.000000D+00
     16   0.000000D+00  0.000000D+00  0.000000D+00 -0.539572D-01  0.146161D+00
               956           957           958           959           960 
      1  -0.150627D+03 -0.150615D+03 -0.150615D+03 -0.150610D+03 -0.150554D+03
      2   0.000000D+00  0.000000D+00 -0.105990D+00  0.000000D+00  0.000000D+00
      3   0.000000D+00  0.000000D+00  0.000000D+00  0.000000D+00 -0.223528D+00
      4   0.213172D-01  0.000000D+00  0.000000D+00 -0.272248D-02  0.000000D+00
      5   0.000000D+00  0.000000D+00  0.353657D+00  0.000000D+00  0.000000D+00
      6   0.000000D+00  0.000000D+00  0.000000D+00  0.000000D+00  0.831829D+00
      7  -0.559794D-01  0.000000D+00  0.000000D+00  0.694972D-02  0.000000D+00
      8   0.000000D+00  0.000000D+00  0.000000D+00  0.000000D+00 -0.508503D+00
      9   0.000000D+00  0.000000D+00  0.456119D+00  0.000000D+00  0.000000D+00
     10   0.000000D+00 -0.497339D-01  0.000000D+00  0.000000D+00  0.000000D+00
     11  -0.505331D-01  0.000000D+00  0.000000D+00  0.118739D+00  0.000000D+00
     12  -0.309502D+00  0.000000D+00  0.000000D+00 -0.291980D+00  0.000000D+00
     13   0.298127D+00  0.000000D+00  0.000000D+00 -0.625695D-01  0.000000D+00
     14   0.000000D+00 -0.536816D-01  0.000000D+00  0.000000D+00  0.000000D+00
     15   0.000000D+00  0.000000D+00  0.645145D+00  0.000000D+00  0.000000D+00
     16   0.000000D+00  0.000000D+00  0.000000D+00  0.000000D+00  0.107307D+01
               961           962           963           964           965 
      1  -0.150548D+03 -0.150547D+03 -0.150515D+03 -0.150514D+03 -0.150508D+03
      2  -0.498360D-01  0.000000D+00  0.000000D+00  0.000000D+00  0.000000D+00
      3   0.000000D+00  0.205717D+00  0.000000D+00  0.000000D+00  0.000000D+00
      4   0.000000D+00  0.000000D+00  0.000000D+00  0.285310D-01 -0.146525D+00
      5   0.182414D+00  0.000000D+00  0.000000D+00  0.000000D+00  0.000000D+00
      6   0.000000D+00 -0.745133D+00  0.000000D+00  0.000000D+00  0.000000D+00
      7   0.000000D+00  0.000000D+00  0.000000D+00 -0.114111D+00  0.528594D+00
      8   0.000000D+00  0.100388D+01  0.000000D+00  0.000000D+00  0.000000D+00
      9   0.476339D+00  0.000000D+00  0.000000D+00  0.000000D+00  0.000000D+00
     10   0.000000D+00  0.000000D+00  0.205199D+00  0.000000D+00  0.000000D+00
     11   0.000000D+00  0.000000D+00  0.000000D+00  0.223732D+00  0.188989D+00
     12   0.000000D+00  0.000000D+00  0.000000D+00  0.175839D+00  0.385273D+00
     13   0.000000D+00  0.000000D+00  0.000000D+00 -0.444456D+00  0.565562D+00
     14   0.000000D+00  0.000000D+00 -0.456947D+00  0.000000D+00  0.000000D+00
     15   0.410042D+00  0.000000D+00  0.000000D+00  0.000000D+00  0.000000D+00
     16   0.000000D+00 -0.562700D+00  0.000000D+00  0.000000D+00  0.000000D+00
               966           967           968           969           970 
      1  -0.150490D+03 -0.150474D+03 -0.150438D+03 -0.150435D+03 -0.150425D+03
      2  -0.355654D-01  0.156607D-01  0.981723D-01  0.000000D+00  0.000000D+00
      3   0.000000D+00  0.000000D+00  0.000000D+00  0.000000D+00  0.000000D+00
      4   0.000000D+00  0.000000D+00  0.000000D+00  0.107159D+00  0.000000D+00
      5   0.121119D+00 -0.432878D-01 -0.334768D+00  0.000000D+00  0.000000D+00
      6   0.000000D+00  0.000000D+00  0.000000D+00  0.000000D+00  0.000000D+00
      7   0.000000D+00  0.000000D+00  0.000000D+00 -0.372883D+00  0.000000D+00
      8   0.000000D+00  0.000000D+00  0.000000D+00  0.000000D+00  0.000000D+00
      9   0.822069D-02  0.735763D-01 -0.252002D+00  0.000000D+00  0.000000D+00
     10   0.000000D+00  0.000000D+00  0.000000D+00  0.000000D+00 -0.157135D+00
     11   0.000000D+00  0.000000D+00  0.000000D+00 -0.138184D+00  0.000000D+00
     12   0.000000D+00  0.000000D+00  0.000000D+00  0.111092D+01  0.000000D+00
     13   0.000000D+00  0.000000D+00  0.000000D+00 -0.563975D+00  0.000000D+00
     14   0.000000D+00  0.000000D+00  0.000000D+00  0.000000D+00  0.311240D+00
     15   0.461159D-01 -0.210064D+00 -0.264298D-01  0.000000D+00  0.000000D+00
     16   0.000000D+00  0.000000D+00  0.000000D+00  0.000000D+00  0.000000D+00
               971           972           973           974           975 
      1  -0.150418D+03 -0.150412D+03 -0.150411D+03 -0.150346D+03 -0.150279D+03
      2   0.000000D+00  0.000000D+00  0.000000D+00  0.000000D+00  0.000000D+00
      3   0.109323D+00 -0.334444D-01  0.000000D+00  0.884034D-01  0.000000D+00
      4   0.000000D+00  0.000000D+00  0.169056D+00  0.000000D+00  0.000000D+00
      5   0.000000D+00  0.000000D+00  0.000000D+00  0.000000D+00  0.000000D+00
      6  -0.403801D+00  0.116632D+00  0.000000D+00 -0.391287D+00  0.000000D+00
      7   0.000000D+00  0.000000D+00 -0.638847D+00  0.000000D+00  0.000000D+00
      8   0.712776D+00  0.208895D+00  0.000000D+00  0.399599D+00  0.000000D+00
      9   0.000000D+00  0.000000D+00  0.000000D+00  0.000000D+00  0.000000D+00
     10   0.000000D+00  0.000000D+00  0.000000D+00  0.000000D+00  0.234956D+00
     11   0.000000D+00  0.000000D+00  0.135337D+00  0.000000D+00  0.000000D+00
     12   0.000000D+00  0.000000D+00  0.258747D+00  0.000000D+00  0.000000D+00
     13   0.000000D+00  0.000000D+00 -0.161299D+01  0.000000D+00  0.000000D+00
     14   0.000000D+00  0.000000D+00  0.000000D+00  0.000000D+00 -0.626846D-01
     15   0.000000D+00  0.000000D+00  0.000000D+00  0.000000D+00  0.000000D+00
     16  -0.822238D-01  0.153953D+00  0.000000D+00 -0.956316D+00  0.000000D+00
               976           977           978           979           980 
      1  -0.150275D+03 -0.150234D+03 -0.150158D+03 -0.150106D+03 -0.149907D+03
      2   0.000000D+00  0.000000D+00  0.000000D+00  0.000000D+00  0.000000D+00
      3   0.000000D+00  0.476306D-01  0.000000D+00  0.000000D+00  0.522399D-02
      4   0.634679D-02  0.000000D+00  0.332817D-01  0.510232D-01  0.000000D+00
      5   0.000000D+00  0.000000D+00  0.000000D+00  0.000000D+00  0.000000D+00
      6   0.000000D+00 -0.154170D+00  0.000000D+00  0.000000D+00  0.727794D-01
      7  -0.547498D-01  0.000000D+00 -0.172573D+00 -0.164147D+00  0.000000D+00
      8   0.000000D+00  0.100845D+00  0.000000D+00  0.000000D+00 -0.118921D+00
      9   0.000000D+00  0.000000D+00  0.000000D+00  0.000000D+00  0.000000D+00
     10   0.000000D+00  0.000000D+00  0.000000D+00  0.000000D+00  0.000000D+00
     11  -0.870480D-01  0.000000D+00  0.283840D-02  0.271959D+00  0.000000D+00
     12   0.242318D+00  0.000000D+00 -0.750005D+00 -0.211464D+00  0.000000D+00
     13  -0.302615D+00  0.000000D+00 -0.760069D+00 -0.375665D+00  0.000000D+00
     14   0.000000D+00  0.000000D+00  0.000000D+00  0.000000D+00  0.000000D+00
     15   0.000000D+00  0.000000D+00  0.000000D+00  0.000000D+00  0.000000D+00
     16   0.000000D+00  0.528058D+00  0.000000D+00  0.000000D+00 -0.179545D-01
 Unable to Open any file for archive entry.
 1\1\GINC-HEL24\SP\RLC-BLYP TD-FC\Gen\C2H6O1\SABYASACHI\21-Mar-2022\0\\
 #P TD(Nstates=10000) lc-blyp/Gen SCF(maxcycles=100) Int(Grid=ultrafine
 )\\xGDB7_00001_tier4.com\\0,1\C,0,0.,1.163894,-0.193136\O,0,0.,0.,0.58
 5449\C,0,0.,-1.163894,-0.193136\H,0,0.,2.015478,0.485827\H,0,-0.89039,
 1.219204,-0.834404\H,0,0.89039,1.219204,-0.834404\H,0,0.,-2.015478,0.4
 85827\H,0,0.89039,-1.219204,-0.834404\H,0,-0.89039,-1.219204,-0.834404
 \\Version=EM64L-G16RevC.01\State=1-A1\HF=-154.5202674\RMSD=4.723e-09\P
 G=C02V [C2(O1),SGV(C2H2),X(H4)]\\@
 The archive entry for this job was punched.


 AS FAR AS THE LAWS OF MATHEMATICS REFER TO REALITY,
 THEY ARE NOT CERTAIN; AND AS FAR AS THEY ARE CERTAIN,
 THEY DO NOT REFER TO REALITY.

                                         -- ALBERT EINSTEIN
 Job cpu time:       0 days  0 hours  7 minutes  2.6 seconds.
 Elapsed time:       0 days  0 hours  0 minutes 53.1 seconds.
 File lengths (MBytes):  RWF=   1237 Int=      0 D2E=      0 Chk=    291 Scr=      1
 Normal termination of Gaussian 16 at Mon Mar 21 20:16:21 2022.
