 Entering Gaussian System, Link 0=g16
 Input=000033.com
 Output=000033.log
 Initial command:
 /home/sabyasachi/g16/l1.exe "/scratch/sabyasachi/PBS_7976233.helios/Gau-157289.inp" -scrdir="/scratch/sabyasachi/PBS_7976233.helios/"
 Entering Link 1 = /home/sabyasachi/g16/l1.exe PID=    157290.
  
 Copyright (c) 1988-2019, Gaussian, Inc.  All Rights Reserved.
  
 This is part of the Gaussian(R) 16 program.  It is based on
 the Gaussian(R) 09 system (copyright 2009, Gaussian, Inc.),
 the Gaussian(R) 03 system (copyright 2003, Gaussian, Inc.),
 the Gaussian(R) 98 system (copyright 1998, Gaussian, Inc.),
 the Gaussian(R) 94 system (copyright 1995, Gaussian, Inc.),
 the Gaussian 92(TM) system (copyright 1992, Gaussian, Inc.),
 the Gaussian 90(TM) system (copyright 1990, Gaussian, Inc.),
 the Gaussian 88(TM) system (copyright 1988, Gaussian, Inc.),
 the Gaussian 86(TM) system (copyright 1986, Carnegie Mellon
 University), and the Gaussian 82(TM) system (copyright 1983,
 Carnegie Mellon University). Gaussian is a federally registered
 trademark of Gaussian, Inc.
  
 This software contains proprietary and confidential information,
 including trade secrets, belonging to Gaussian, Inc.
  
 This software is provided under written license and may be
 used, copied, transmitted, or stored only in accord with that
 written license.
  
 The following legend is applicable only to US Government
 contracts under FAR:
  
                    RESTRICTED RIGHTS LEGEND
  
 Use, reproduction and disclosure by the US Government is
 subject to restrictions as set forth in subparagraphs (a)
 and (c) of the Commercial Computer Software - Restricted
 Rights clause in FAR 52.227-19.
  
 Gaussian, Inc.
 340 Quinnipiac St., Bldg. 40, Wallingford CT 06492
  
  
 ---------------------------------------------------------------
 Warning -- This program may not be used in any manner that
 competes with the business of Gaussian, Inc. or will provide
 assistance to any competitor of Gaussian, Inc.  The licensee
 of this program is prohibited from giving any competitor of
 Gaussian, Inc. access to this program.  By using this program,
 the user acknowledges that Gaussian, Inc. is engaged in the
 business of creating and licensing software in the field of
 computational chemistry and represents and warrants to the
 licensee that it is not a competitor of Gaussian, Inc. and that
 it will not use this program in any manner prohibited above.
 ---------------------------------------------------------------
  

 Cite this work as:
 Gaussian 16, Revision C.01,
 M. J. Frisch, G. W. Trucks, H. B. Schlegel, G. E. Scuseria, 
 M. A. Robb, J. R. Cheeseman, G. Scalmani, V. Barone, 
 G. A. Petersson, H. Nakatsuji, X. Li, M. Caricato, A. V. Marenich, 
 J. Bloino, B. G. Janesko, R. Gomperts, B. Mennucci, H. P. Hratchian, 
 J. V. Ortiz, A. F. Izmaylov, J. L. Sonnenberg, D. Williams-Young, 
 F. Ding, F. Lipparini, F. Egidi, J. Goings, B. Peng, A. Petrone, 
 T. Henderson, D. Ranasinghe, V. G. Zakrzewski, J. Gao, N. Rega, 
 G. Zheng, W. Liang, M. Hada, M. Ehara, K. Toyota, R. Fukuda, 
 J. Hasegawa, M. Ishida, T. Nakajima, Y. Honda, O. Kitao, H. Nakai, 
 T. Vreven, K. Throssell, J. A. Montgomery, Jr., J. E. Peralta, 
 F. Ogliaro, M. J. Bearpark, J. J. Heyd, E. N. Brothers, K. N. Kudin, 
 V. N. Staroverov, T. A. Keith, R. Kobayashi, J. Normand, 
 K. Raghavachari, A. P. Rendell, J. C. Burant, S. S. Iyengar, 
 J. Tomasi, M. Cossi, J. M. Millam, M. Klene, C. Adamo, R. Cammi, 
 J. W. Ochterski, R. L. Martin, K. Morokuma, O. Farkas, 
 J. B. Foresman, and D. J. Fox, Gaussian, Inc., Wallingford CT, 2019.
 
 ******************************************
 Gaussian 16:  EM64L-G16RevC.01  3-Jul-2019
                21-Mar-2022 
 ******************************************
 %mem=64gb
 %nproc=8
 Will use up to    8 processors via shared memory.
 ----------------------------------------------------------------------
 #P TD(Nstates=10000) lc-blyp/Gen SCF(maxcycles=100) Int(Grid=ultrafine
 )
 ----------------------------------------------------------------------
 1/38=1,172=1/1;
 2/12=2,17=6,18=5,40=1/2;
 3/5=7,11=9,25=1,30=1,74=1000402,75=-5/1,2,3,8;
 4//1;
 5/5=2,7=100,38=5/2;
 8/6=1,10=1,108=10000/1;
 9/41=10000,42=1,70=2/14;
 6/7=2,8=2,9=2,10=2/1;
 99/5=1,9=1/99;
 Leave Link    1 at Mon Mar 21 20:19:33 2022, MaxMem=  8589934592 cpu:               0.4 elap:               0.1
 (Enter /home/sabyasachi/g16/l101.exe)
 ---------------------
 xGDB7_00001_tier4.com
 ---------------------
 Symbolic Z-matrix:
 Charge =  0 Multiplicity = 1
 6                     0.        0.72955  -0.36736 
 6                     0.       -0.72955  -0.36736 
 8                     0.        0.        0.84503 
 1                    -0.91895   1.26424  -0.58798 
 1                     0.91895   1.26424  -0.58798 
 1                     0.91895  -1.26424  -0.58798 
 1                    -0.91895  -1.26424  -0.58798 
 
 ITRead=  0  0  0  0  0  0  0
 MicOpt= -1 -1 -1 -1 -1 -1 -1
 NAtoms=      7 NQM=        7 NQMF=       0 NMMI=      0 NMMIF=      0
                NMic=       0 NMicF=      0.
                    Isotopes and Nuclear Properties:
 (Nuclear quadrupole moments (NQMom) in fm**2, nuclear magnetic moments (NMagM)
  in nuclear magnetons)

  Atom         1           2           3           4           5           6           7
 IAtWgt=          12          12          16           1           1           1           1
 AtmWgt=  12.0000000  12.0000000  15.9949146   1.0078250   1.0078250   1.0078250   1.0078250
 NucSpn=           0           0           0           1           1           1           1
 AtZEff=  -0.0000000  -0.0000000  -0.0000000  -0.0000000  -0.0000000  -0.0000000  -0.0000000
 NQMom=    0.0000000   0.0000000   0.0000000   0.0000000   0.0000000   0.0000000   0.0000000
 NMagM=    0.0000000   0.0000000   0.0000000   2.7928460   2.7928460   2.7928460   2.7928460
 AtZNuc=   6.0000000   6.0000000   8.0000000   1.0000000   1.0000000   1.0000000   1.0000000
 Leave Link  101 at Mon Mar 21 20:19:33 2022, MaxMem=  8589934592 cpu:               0.6 elap:               0.1
 (Enter /home/sabyasachi/g16/l202.exe)
                          Input orientation:                          
 ---------------------------------------------------------------------
 Center     Atomic      Atomic             Coordinates (Angstroms)
 Number     Number       Type             X           Y           Z
 ---------------------------------------------------------------------
      1          6           0        0.000000    0.729549   -0.367364
      2          6           0        0.000000   -0.729549   -0.367364
      3          8           0        0.000000    0.000000    0.845033
      4          1           0       -0.918945    1.264243   -0.587975
      5          1           0        0.918945    1.264243   -0.587975
      6          1           0        0.918945   -1.264243   -0.587975
      7          1           0       -0.918945   -1.264243   -0.587975
 ---------------------------------------------------------------------
                    Distance matrix (angstroms):
                    1          2          3          4          5
     1  C    0.000000
     2  C    1.459098   0.000000
     3  O    1.414973   1.414973   0.000000
     4  H    1.085830   2.206431   2.120444   0.000000
     5  H    1.085830   2.206431   2.120444   1.837890   0.000000
     6  H    2.206431   1.085830   2.120444   3.125873   2.528486
     7  H    2.206431   1.085830   2.120444   2.528486   3.125873
                    6          7
     6  H    0.000000
     7  H    1.837890   0.000000
 Stoichiometry    C2H4O
 Framework group  C2V[C2(O),SGV(C2),X(H4)]
 Deg. of freedom     5
 Full point group                 C2V     NOp   4
 Largest Abelian subgroup         C2V     NOp   4
 Largest concise Abelian subgroup C2V     NOp   4
                         Standard orientation:                         
 ---------------------------------------------------------------------
 Center     Atomic      Atomic             Coordinates (Angstroms)
 Number     Number       Type             X           Y           Z
 ---------------------------------------------------------------------
      1          6           0        0.000000    0.729549   -0.367364
      2          6           0       -0.000000   -0.729549   -0.367364
      3          8           0       -0.000000   -0.000000    0.845033
      4          1           0       -0.918945    1.264243   -0.587975
      5          1           0        0.918945    1.264243   -0.587975
      6          1           0        0.918945   -1.264243   -0.587975
      7          1           0       -0.918945   -1.264243   -0.587975
 ---------------------------------------------------------------------
 Rotational constants (GHZ):          26.1375833          22.3408058          14.3785431
 Leave Link  202 at Mon Mar 21 20:19:33 2022, MaxMem=  8589934592 cpu:               0.1 elap:               0.0
 (Enter /home/sabyasachi/g16/l301.exe)
 General basis read from cards:  (5D, 7F)
 Centers:       4      5      6      7
 S 3 1.00
     Exponent=  1.3010701000D+01 Coefficients=  1.9682158000D-02
     Exponent=  1.9622572000D+00 Coefficients=  1.3796524000D-01
     Exponent=  4.4453796000D-01 Coefficients=  4.7831935000D-01
 S 1 1.00
     Exponent=  1.2194962000D-01 Coefficients=  1.0000000000D+00
 P 1 1.00
     Exponent=  8.0000000000D-01 Coefficients=  1.0000000000D+00
 P 1 1.00
     Exponent=  1.1704099050D-01 Coefficients=  1.0000000000D+00
 ****
 Centers:       1      2
 S 5 1.00
     Exponent=  1.2384016938D+03 Coefficients=  5.4568832082D-03
     Exponent=  1.8629004992D+02 Coefficients=  4.0638409211D-02
     Exponent=  4.2251176346D+01 Coefficients=  1.8025593888D-01
     Exponent=  1.1676557932D+01 Coefficients=  4.6315121755D-01
     Exponent=  3.5930506482D+00 Coefficients=  4.4087173314D-01
 S 1 1.00
     Exponent=  4.0245147363D-01 Coefficients=  1.0000000000D+00
 S 1 1.00
     Exponent=  1.3090182668D-01 Coefficients=  1.0000000000D+00
 S 1 1.00
     Exponent=  6.7053540256D-02 Coefficients=  1.0000000000D+00
 P 3 1.00
     Exponent=  9.4680970621D+00 Coefficients=  3.8387871728D-02
     Exponent=  2.0103545142D+00 Coefficients=  2.1117025112D-01
     Exponent=  5.4771004707D-01 Coefficients=  5.1328172114D-01
 P 1 1.00
     Exponent=  1.5268613795D-01 Coefficients=  1.0000000000D+00
 D 1 1.00
     Exponent=  8.0000000000D-01 Coefficients=  1.0000000000D+00
 D 1 1.00
     Exponent=  1.1713185140D-01 Coefficients=  1.0000000000D+00
 ****
 Centers:       3
 S 5 1.00
     Exponent=  2.2661767785D+03 Coefficients= -5.3431809926D-03
     Exponent=  3.4087010191D+02 Coefficients= -3.9890039230D-02
     Exponent=  7.7363135167D+01 Coefficients= -1.7853911985D-01
     Exponent=  2.1479644940D+01 Coefficients= -4.6427684959D-01
     Exponent=  6.6589433124D+00 Coefficients= -4.4309745172D-01
 S 1 1.00
     Exponent=  8.0975975668D-01 Coefficients=  1.0000000000D+00
 S 1 1.00
     Exponent=  2.5530772234D-01 Coefficients=  1.0000000000D+00
 S 1 1.00
     Exponent=  7.6572453250D-02 Coefficients=  1.0000000000D+00
 P 3 1.00
     Exponent=  1.7721504317D+01 Coefficients=  4.3394573193D-02
     Exponent=  3.8635505440D+00 Coefficients=  2.3094120765D-01
     Exponent=  1.0480920883D+00 Coefficients=  5.1375311064D-01
 P 1 1.00
     Exponent=  2.7641544411D-01 Coefficients=  1.0000000000D+00
 P 1 1.00
     Exponent=  6.9002276350D-02 Coefficients=  1.0000000000D+00
 D 1 1.00
     Exponent=  1.2000000000D+00 Coefficients=  1.0000000000D+00
 D 1 1.00
     Exponent=  1.7992024323D-01 Coefficients=  1.0000000000D+00
 ****
 Ernie: Thresh=  0.10000D-02 Tol=  0.10000D-05 Strict=F.
 There are    37 symmetry adapted cartesian basis functions of A1  symmetry.
 There are    16 symmetry adapted cartesian basis functions of A2  symmetry.
 There are    19 symmetry adapted cartesian basis functions of B1  symmetry.
 There are    29 symmetry adapted cartesian basis functions of B2  symmetry.
 There are    33 symmetry adapted basis functions of A1  symmetry.
 There are    16 symmetry adapted basis functions of A2  symmetry.
 There are    19 symmetry adapted basis functions of B1  symmetry.
 There are    27 symmetry adapted basis functions of B2  symmetry.
    95 basis functions,   139 primitive gaussians,   101 cartesian basis functions
    12 alpha electrons       12 beta electrons
       nuclear repulsion energy        75.7300204600 Hartrees.
 IExCor=10402 DFT=T Ex=LC-B+HF Corr=LYP ExCW=0 ScaHFX=  1.000000
 ScaDFX=  1.000000  1.000000  1.000000  1.000000 ScalE2=  1.000000  1.000000
 IRadAn=      5 IRanWt=     -1 IRanGd=            0 ICorTp=0 IEmpDi=  4
 HFx  wShort=  0.000000 wLong=  0.470000 cFull=  0.000000 cShort=  0.000000 cLong=  1.000000
 DFx  wShort=  0.000000 wLong=  0.470000 cFull=  0.000000 cShort=  0.000000 cLong=  1.000000
 NAtoms=    7 NActive=    7 NUniq=    3 SFac= 4.00D+00 NAtFMM=   60 NAOKFM=F Big=F
 Integral buffers will be    131072 words long.
 Raffenetti 1 integral format.
 Two-electron integral symmetry is turned on.
 Leave Link  301 at Mon Mar 21 20:19:34 2022, MaxMem=  8589934592 cpu:               0.6 elap:               0.1
 (Enter /home/sabyasachi/g16/l302.exe)
 NPDir=0 NMtPBC=     1 NCelOv=     1 NCel=       1 NClECP=     1 NCelD=      1
         NCelK=      1 NCelE2=     1 NClLst=     1 CellRange=     0.0.
 One-electron integrals computed using PRISM.
 One-electron integral symmetry used in STVInt
 NBasis=    95 RedAO= T EigKep=  1.49D-04  NBF=    33    16    19    27
 NBsUse=    95 1.00D-06 EigRej= -1.00D+00 NBFU=    33    16    19    27
 Precomputing XC quadrature grid using
 IXCGrd= 4 IRadAn=           5 IRanWt=          -1 IRanGd=           0 AccXCQ= 0.00D+00.
 Generated NRdTot=       0 NPtTot=           0 NUsed=           0 NTot=          32
 NSgBfM=   101   101   101   101   101 MxSgAt=     7 MxSgA2=     7.
 Leave Link  302 at Mon Mar 21 20:19:34 2022, MaxMem=  8589934592 cpu:               1.0 elap:               0.1
 (Enter /home/sabyasachi/g16/l303.exe)
 DipDrv:  MaxL=1.
 Leave Link  303 at Mon Mar 21 20:19:34 2022, MaxMem=  8589934592 cpu:               0.2 elap:               0.0
 (Enter /home/sabyasachi/g16/l308.exe)
 Leave Link  308 at Mon Mar 21 20:19:34 2022, MaxMem=  8589934592 cpu:               0.2 elap:               0.0
 (Enter /home/sabyasachi/g16/l401.exe)
 ExpMin= 6.71D-02 ExpMax= 2.27D+03 ExpMxC= 3.41D+02 IAcc=3 IRadAn=         5 AccDes= 0.00D+00
 Harris functional with IExCor=10402 and IRadAn=       5 diagonalized for initial guess.
 HarFok:  IExCor=10402 AccDes= 0.00D+00 IRadAn=         5 IDoV= 1 UseB2=F ITyADJ=14
 ICtDFT=  3500011 ScaDFX=  1.000000  1.000000  1.000000  1.000000
 FoFCou: FMM=F IPFlag=           0 FMFlag=      100000 FMFlg1=           0
         NFxFlg=           0 DoJE=T BraDBF=F KetDBF=T FulRan=T
         wScrn=  0.000000 ICntrl=       500 IOpCl=  0 I1Cent=   200000004 NGrid=           0
         NMat0=    1 NMatS0=      1 NMatT0=    0 NMatD0=    1 NMtDS0=    0 NMtDT0=    0
 Petite list used in FoFCou.
 Harris En= -147.885240278817    
 JPrj=0 DoOrth=F DoCkMO=F.
 Initial guess orbital symmetries:
       Occupied  (A1) (A1) (B2) (A1) (A1) (B2) (B1) (A1) (B2) (A2)
                 (A1) (B1)
       Virtual   (A1) (B2) (A1) (B1) (B2) (A1) (B2) (A2) (A1) (B1)
                 (B2) (B1) (A1) (A2) (A1) (B1) (B2) (A1) (B2) (B1)
                 (A1) (A2) (A1) (B2) (B2) (A2) (A1) (B2) (A2) (B1)
                 (B1) (A1) (B2) (B2) (A1) (B2) (B1) (A2) (A1) (A1)
                 (A2) (A1) (B1) (B2) (A2) (B2) (A1) (B1) (B2) (A1)
                 (B2) (A2) (B1) (A1) (A2) (B1) (A1) (B2) (A1) (B1)
                 (B1) (B2) (A2) (A1) (B2) (A1) (A2) (A1) (B1) (B2)
                 (A1) (B2) (A2) (B2) (B1) (A1) (A1) (A2) (B2) (B1)
                 (A2) (A1) (B2)
 The electronic state of the initial guess is 1-A1.
 Leave Link  401 at Mon Mar 21 20:19:34 2022, MaxMem=  8589934592 cpu:               1.5 elap:               0.2
 (Enter /home/sabyasachi/g16/l502.exe)
 Keep R1 ints in memory in symmetry-blocked form, NReq=28666224.
 FoFCou: FMM=F IPFlag=           0 FMFlag=           0 FMFlg1=           0
         NFxFlg=           0 DoJE=F BraDBF=F KetDBF=F FulRan=T
         wScrn=  0.000000 ICntrl=       600 IOpCl=  0 I1Cent=           0 NGrid=           0
         NMat0=    1 NMatS0=   4560 NMatT0=    0 NMatD0=    1 NMtDS0=    0 NMtDT0=    0
 Petite list used in FoFCou.
 Closed shell SCF:
 Using DIIS extrapolation, IDIIS=  1040.
 NGot=  8589934592 LenX=  8587281350 LenY=  8587270708
 Requested convergence on RMS density matrix=1.00D-08 within 100 cycles.
 Requested convergence on MAX density matrix=1.00D-06.
 Requested convergence on             energy=1.00D-06.
 No special actions if energy rises.
 Integral accuracy reduced to 1.0D-05 until final iterations.

 Cycle   1  Pass 0  IDiag  1:
 E= -153.278241111536    
 DIIS: error= 1.15D-02 at cycle   1 NSaved=   1.
 NSaved= 1 IEnMin= 1 EnMin= -153.278241111536     IErMin= 1 ErrMin= 1.15D-02
 ErrMax= 1.15D-02  0.00D+00 EMaxC= 1.00D-01 BMatC= 1.49D-02 BMatP= 1.49D-02
 IDIUse=3 WtCom= 8.85D-01 WtEn= 1.15D-01
 Coeff-Com:  0.100D+01
 Coeff-En:   0.100D+01
 Coeff:      0.100D+01
 Gap=     0.512 Goal=   None    Shift=    0.000
 GapD=    0.512 DampG=2.000 DampE=0.500 DampFc=1.0000 IDamp=-1.
 RMSDP=3.66D-03 MaxDP=5.11D-02              OVMax= 4.36D-02

 Cycle   2  Pass 0  IDiag  1:
 E= -153.289284664030     Delta-E=       -0.011043552494 Rises=F Damp=F
 DIIS: error= 7.98D-03 at cycle   2 NSaved=   2.
 NSaved= 2 IEnMin= 2 EnMin= -153.289284664030     IErMin= 2 ErrMin= 7.98D-03
 ErrMax= 7.98D-03  0.00D+00 EMaxC= 1.00D-01 BMatC= 7.64D-03 BMatP= 1.49D-02
 IDIUse=3 WtCom= 9.20D-01 WtEn= 7.98D-02
 Coeff-Com:  0.394D+00 0.606D+00
 Coeff-En:   0.000D+00 0.100D+01
 Coeff:      0.363D+00 0.637D+00
 Gap=     0.486 Goal=   None    Shift=    0.000
 RMSDP=1.12D-03 MaxDP=2.03D-02 DE=-1.10D-02 OVMax= 2.56D-02

 Cycle   3  Pass 0  IDiag  1:
 E= -153.294272893337     Delta-E=       -0.004988229307 Rises=F Damp=F
 DIIS: error= 3.92D-03 at cycle   3 NSaved=   3.
 NSaved= 3 IEnMin= 3 EnMin= -153.294272893337     IErMin= 3 ErrMin= 3.92D-03
 ErrMax= 3.92D-03  0.00D+00 EMaxC= 1.00D-01 BMatC= 9.43D-04 BMatP= 7.64D-03
 IDIUse=3 WtCom= 9.61D-01 WtEn= 3.92D-02
 Coeff-Com:  0.196D-01 0.252D+00 0.729D+00
 Coeff-En:   0.000D+00 0.000D+00 0.100D+01
 Coeff:      0.188D-01 0.242D+00 0.739D+00
 Gap=     0.499 Goal=   None    Shift=    0.000
 RMSDP=3.66D-04 MaxDP=7.82D-03 DE=-4.99D-03 OVMax= 8.83D-03

 Cycle   4  Pass 0  IDiag  1:
 E= -153.294998180440     Delta-E=       -0.000725287103 Rises=F Damp=F
 DIIS: error= 7.21D-04 at cycle   4 NSaved=   4.
 NSaved= 4 IEnMin= 4 EnMin= -153.294998180440     IErMin= 4 ErrMin= 7.21D-04
 ErrMax= 7.21D-04  0.00D+00 EMaxC= 1.00D-01 BMatC= 6.74D-05 BMatP= 9.43D-04
 IDIUse=3 WtCom= 9.93D-01 WtEn= 7.21D-03
 Coeff-Com: -0.242D-01 0.933D-02 0.233D+00 0.782D+00
 Coeff-En:   0.000D+00 0.000D+00 0.000D+00 0.100D+01
 Coeff:     -0.240D-01 0.926D-02 0.231D+00 0.783D+00
 Gap=     0.494 Goal=   None    Shift=    0.000
 RMSDP=1.20D-04 MaxDP=2.21D-03 DE=-7.25D-04 OVMax= 1.73D-03

 Cycle   5  Pass 0  IDiag  1:
 E= -153.295053022004     Delta-E=       -0.000054841564 Rises=F Damp=F
 DIIS: error= 1.74D-04 at cycle   5 NSaved=   5.
 NSaved= 5 IEnMin= 5 EnMin= -153.295053022004     IErMin= 5 ErrMin= 1.74D-04
 ErrMax= 1.74D-04  0.00D+00 EMaxC= 1.00D-01 BMatC= 2.01D-06 BMatP= 6.74D-05
 IDIUse=3 WtCom= 9.98D-01 WtEn= 1.74D-03
 Coeff-Com: -0.768D-02-0.199D-01-0.308D-03 0.164D+00 0.864D+00
 Coeff-En:   0.000D+00 0.000D+00 0.000D+00 0.000D+00 0.100D+01
 Coeff:     -0.767D-02-0.199D-01-0.307D-03 0.164D+00 0.864D+00
 Gap=     0.495 Goal=   None    Shift=    0.000
 RMSDP=4.54D-05 MaxDP=5.67D-04 DE=-5.48D-05 OVMax= 6.74D-04

 Cycle   6  Pass 0  IDiag  1:
 E= -153.295055755503     Delta-E=       -0.000002733499 Rises=F Damp=F
 DIIS: error= 2.12D-05 at cycle   6 NSaved=   6.
 NSaved= 6 IEnMin= 6 EnMin= -153.295055755503     IErMin= 6 ErrMin= 2.12D-05
 ErrMax= 2.12D-05  0.00D+00 EMaxC= 1.00D-01 BMatC= 4.31D-08 BMatP= 2.01D-06
 IDIUse=1 WtCom= 1.00D+00 WtEn= 0.00D+00
 Coeff-Com:  0.174D-02 0.109D-02-0.833D-02-0.485D-01-0.835D-01 0.114D+01
 Coeff:      0.174D-02 0.109D-02-0.833D-02-0.485D-01-0.835D-01 0.114D+01
 Gap=     0.495 Goal=   None    Shift=    0.000
 RMSDP=1.08D-05 MaxDP=1.91D-04 DE=-2.73D-06 OVMax= 1.76D-04

 Cycle   7  Pass 0  IDiag  1:
 E= -153.295055871891     Delta-E=       -0.000000116389 Rises=F Damp=F
 DIIS: error= 4.42D-06 at cycle   7 NSaved=   7.
 NSaved= 7 IEnMin= 7 EnMin= -153.295055871891     IErMin= 7 ErrMin= 4.42D-06
 ErrMax= 4.42D-06  0.00D+00 EMaxC= 1.00D-01 BMatC= 1.31D-09 BMatP= 4.31D-08
 IDIUse=1 WtCom= 1.00D+00 WtEn= 0.00D+00
 Coeff-Com: -0.215D-03 0.362D-04 0.153D-02 0.913D-02 0.748D-02-0.316D+00
 Coeff-Com:  0.130D+01
 Coeff:     -0.215D-03 0.362D-04 0.153D-02 0.913D-02 0.748D-02-0.316D+00
 Coeff:      0.130D+01
 Gap=     0.495 Goal=   None    Shift=    0.000
 RMSDP=2.40D-06 MaxDP=2.89D-05 DE=-1.16D-07 OVMax= 4.50D-05

 Initial convergence to 1.0D-05 achieved.  Increase integral accuracy.
 Cycle   8  Pass 1  IDiag  1:
 E= -153.295055017402     Delta-E=        0.000000854489 Rises=F Damp=F
 DIIS: error= 9.49D-07 at cycle   1 NSaved=   1.
 NSaved= 1 IEnMin= 1 EnMin= -153.295055017402     IErMin= 1 ErrMin= 9.49D-07
 ErrMax= 9.49D-07  0.00D+00 EMaxC= 1.00D-01 BMatC= 6.69D-11 BMatP= 6.69D-11
 IDIUse=1 WtCom= 1.00D+00 WtEn= 0.00D+00
 Coeff-Com:  0.100D+01
 Coeff:      0.100D+01
 Gap=     0.495 Goal=   None    Shift=    0.000
 RMSDP=2.40D-06 MaxDP=2.89D-05 DE= 8.54D-07 OVMax= 5.32D-06

 Cycle   9  Pass 1  IDiag  1:
 E= -153.295055017557     Delta-E=       -0.000000000155 Rises=F Damp=F
 DIIS: error= 2.70D-07 at cycle   2 NSaved=   2.
 NSaved= 2 IEnMin= 2 EnMin= -153.295055017557     IErMin= 2 ErrMin= 2.70D-07
 ErrMax= 2.70D-07  0.00D+00 EMaxC= 1.00D-01 BMatC= 5.41D-12 BMatP= 6.69D-11
 IDIUse=1 WtCom= 1.00D+00 WtEn= 0.00D+00
 Coeff-Com: -0.193D+00 0.119D+01
 Coeff:     -0.193D+00 0.119D+01
 Gap=     0.495 Goal=   None    Shift=    0.000
 RMSDP=1.41D-07 MaxDP=2.21D-06 DE=-1.55D-10 OVMax= 2.65D-06

 Cycle  10  Pass 1  IDiag  1:
 E= -153.295055017577     Delta-E=       -0.000000000020 Rises=F Damp=F
 DIIS: error= 9.56D-08 at cycle   3 NSaved=   3.
 NSaved= 3 IEnMin= 3 EnMin= -153.295055017577     IErMin= 3 ErrMin= 9.56D-08
 ErrMax= 9.56D-08  0.00D+00 EMaxC= 1.00D-01 BMatC= 4.70D-13 BMatP= 5.41D-12
 IDIUse=1 WtCom= 1.00D+00 WtEn= 0.00D+00
 Coeff-Com: -0.398D-01-0.571D-01 0.110D+01
 Coeff:     -0.398D-01-0.571D-01 0.110D+01
 Gap=     0.495 Goal=   None    Shift=    0.000
 RMSDP=2.12D-08 MaxDP=2.26D-07 DE=-2.03D-11 OVMax= 8.03D-07

 Cycle  11  Pass 1  IDiag  1:
 E= -153.295055017572     Delta-E=        0.000000000005 Rises=F Damp=F
 DIIS: error= 3.14D-08 at cycle   4 NSaved=   4.
 NSaved= 4 IEnMin= 3 EnMin= -153.295055017577     IErMin= 4 ErrMin= 3.14D-08
 ErrMax= 3.14D-08  0.00D+00 EMaxC= 1.00D-01 BMatC= 5.78D-14 BMatP= 4.70D-13
 IDIUse=1 WtCom= 1.00D+00 WtEn= 0.00D+00
 Coeff-Com:  0.593D-02-0.933D-01 0.168D+00 0.920D+00
 Coeff:      0.593D-02-0.933D-01 0.168D+00 0.920D+00
 Gap=     0.495 Goal=   None    Shift=    0.000
 RMSDP=7.19D-09 MaxDP=1.28D-07 DE= 4.80D-12 OVMax= 2.61D-07

 SCF Done:  E(RLC-B+HF-LYP) =  -153.295055018     A.U. after   11 cycles
            NFock= 11  Conv=0.72D-08     -V/T= 2.0091
 KE= 1.519180910549D+02 PE=-5.096207239553D+02 EE= 1.286775574228D+02
 Leave Link  502 at Mon Mar 21 20:19:35 2022, MaxMem=  8589934592 cpu:               7.2 elap:               0.9
 (Enter /home/sabyasachi/g16/l801.exe)
 DoSCS=F DFT=T ScalE2(SS,OS)=  1.000000  1.000000
 ExpMin= 6.71D-02 ExpMax= 2.27D+03 ExpMxC= 3.41D+02 IAcc=3 IRadAn=         5 AccDes= 0.00D+00
 HarFok:  IExCor=  205 AccDes= 0.00D+00 IRadAn=         5 IDoV=-2 UseB2=F ITyADJ=14
 ICtDFT= 12500011 ScaDFX=  1.000000  1.000000  1.000000  1.000000
 Largest valence mixing into a core orbital is  6.61D-05
 Largest core mixing into a valence orbital is  7.44D-06
 Range of M.O.s used for correlation:     4    95
 NBasis=    95 NAE=    12 NBE=    12 NFC=     3 NFV=     0
 NROrb=     92 NOA=     9 NOB=     9 NVA=    83 NVB=    83

 **** Warning!!: The largest alpha MO coefficient is  0.28776663D+02

 Leave Link  801 at Mon Mar 21 20:19:35 2022, MaxMem=  8589934592 cpu:               0.5 elap:               0.1
 (Enter /home/sabyasachi/g16/l914.exe)
 RHF ground state
 Keep R1, R2, and R3 ints in memory in symmetry-blocked form, NReq=648972236.
 FoFCou: FMM=F IPFlag=           0 FMFlag=           0 FMFlg1=           0
         NFxFlg=           0 DoJE=F BraDBF=F KetDBF=F FulRan=T
         wScrn=  0.000000 ICntrl=       600 IOpCl=  0 I1Cent=           0 NGrid=           0
         NMat0=    1 NMatS0=   4560 NMatT0=    0 NMatD0=    1 NMtDS0=    0 NMtDT0=    0
 Petite list used in FoFCou.
 MDV=  8589934592 DFT=T DoStab=F Mixed=T DoRPA=T DoScal=F NonHer=T
 Making orbital integer symmetry assigments:
 Orbital symmetries:
       Occupied  (A1) (A1) (B2) (A1) (A1) (B2) (B1) (A1) (B2) (A2)
                 (A1) (B1)
       Virtual   (A1) (B2) (A1) (B1) (B2) (A1) (A2) (A1) (B2) (B1)
                 (B2) (B1) (A1) (A2) (B1) (A1) (B2) (A1) (B2) (B1)
                 (A2) (A1) (B2) (A1) (A1) (B2) (A2) (B2) (B1) (A2)
                 (A1) (B1) (B2) (B2) (A1) (B2) (B1) (A2) (A1) (A1)
                 (A2) (A1) (B1) (B2) (A2) (B2) (A1) (B1) (B2) (A1)
                 (B2) (A2) (B1) (A1) (A2) (B1) (A1) (B2) (A1) (B1)
                 (B1) (B2) (A2) (A1) (B2) (A1) (A2) (B1) (B2) (A1)
                 (A1) (B2) (A2) (B2) (B1) (A1) (A1) (A2) (B2) (B1)
                 (A2) (A1) (B2)
   747 initial guesses have been made.
 Convergence on wavefunction:    0.001000000000000
 Davidson Disk Diagonalization:  ConvIn= 1.00D-03 SkipCon=T Conv= 1.00D-03.
 Max sub-space:  4482 roots to seek:  1494 dimension of matrix:         1494
 *** WARNING: Number of orthogonal guesses is          747
 Iteration     1 Dimension   747 NMult     0 NNew    747
 CISAX will form   747 AO SS matrices at one time.
 NMat=   747 NSing=   747 JSym2X=-1.
 New state      1 was old state      4
 New state      2 was old state      1
 New state      3 was old state      8
 New state      4 was old state      2
 New state      6 was old state      3
 New state      8 was old state      6
 New state     11 was old state     13
 New state     12 was old state     11
 New state     13 was old state     17
 New state     14 was old state     18
 New state     15 was old state     14
 New state     16 was old state     21
 New state     17 was old state     12
 New state     18 was old state     16
 New state     19 was old state     31
 New state     20 was old state     25
 New state     21 was old state     19
 New state     22 was old state     15
 New state     23 was old state     20
 New state     24 was old state     22
 New state     25 was old state     23
 New state     26 was old state     28
 New state     27 was old state     24
 New state     28 was old state     27
 New state     29 was old state     26
 New state     31 was old state     29
 New state     32 was old state     36
 New state     33 was old state     32
 New state     35 was old state     38
 New state     36 was old state     33
 New state     37 was old state     35
 New state     38 was old state     57
 New state     39 was old state     40
 New state     40 was old state     46
 New state     41 was old state     49
 New state     42 was old state     39
 New state     43 was old state     60
 New state     44 was old state     42
 New state     45 was old state     37
 New state     46 was old state     43
 New state     47 was old state     44
 New state     49 was old state     58
 New state     51 was old state     45
 New state     53 was old state     47
 New state     54 was old state     41
 New state     55 was old state     54
 New state     56 was old state     51
 New state     57 was old state     53
 New state     58 was old state     76
 New state     60 was old state     61
 New state     61 was old state     56
 New state     62 was old state     63
 New state     63 was old state     66
 New state     64 was old state     70
 New state     65 was old state     67
 New state     66 was old state     64
 New state     67 was old state     71
 New state     69 was old state     55
 New state     70 was old state     62
 New state     71 was old state     65
 New state     72 was old state     69
 New state     73 was old state     80
 New state     74 was old state     75
 New state     75 was old state     72
 New state     76 was old state     83
 New state     77 was old state     78
 New state     78 was old state     73
 New state     79 was old state     77
 New state     80 was old state     97
 New state     81 was old state    109
 New state     82 was old state     79
 New state     83 was old state     81
 New state     84 was old state     82
 New state     85 was old state     87
 New state     86 was old state     85
 New state     87 was old state     74
 New state     88 was old state     90
 New state     89 was old state     84
 New state     90 was old state    104
 New state     91 was old state     93
 New state     92 was old state     99
 New state     93 was old state     86
 New state     94 was old state     92
 New state     95 was old state     89
 New state     96 was old state    100
 New state     97 was old state     95
 New state     98 was old state     88
 New state     99 was old state     91
 New state    100 was old state    111
 New state    101 was old state    102
 New state    102 was old state     96
 New state    103 was old state    110
 New state    104 was old state    105
 New state    105 was old state    117
 New state    106 was old state    112
 New state    107 was old state     98
 New state    108 was old state    107
 New state    109 was old state    101
 New state    110 was old state    103
 New state    111 was old state    106
 New state    112 was old state     94
 New state    113 was old state    115
 New state    114 was old state    116
 New state    115 was old state    120
 New state    116 was old state    113
 New state    117 was old state    127
 New state    118 was old state    108
 New state    119 was old state    126
 New state    120 was old state    122
 New state    121 was old state    119
 New state    122 was old state    138
 New state    123 was old state    121
 New state    124 was old state    114
 New state    125 was old state    131
 New state    126 was old state    155
 New state    127 was old state    132
 New state    128 was old state    129
 New state    129 was old state    130
 New state    130 was old state    123
 New state    131 was old state    139
 New state    132 was old state    128
 New state    133 was old state    154
 New state    134 was old state    118
 New state    135 was old state    137
 New state    136 was old state    134
 New state    137 was old state    133
 New state    138 was old state    146
 New state    139 was old state    124
 New state    140 was old state    148
 New state    141 was old state    147
 New state    143 was old state    150
 New state    144 was old state    156
 New state    145 was old state    135
 New state    146 was old state    140
 New state    147 was old state    136
 New state    148 was old state    143
 New state    149 was old state    162
 New state    150 was old state    157
 New state    151 was old state    170
 New state    152 was old state    160
 New state    154 was old state    145
 New state    155 was old state    151
 New state    156 was old state    158
 New state    157 was old state    144
 New state    158 was old state    173
 New state    159 was old state    152
 New state    160 was old state    166
 New state    161 was old state    171
 New state    162 was old state    169
 New state    163 was old state    149
 New state    164 was old state    159
 New state    165 was old state    163
 New state    166 was old state    164
 New state    167 was old state    172
 New state    168 was old state    165
 New state    169 was old state    141
 New state    170 was old state    177
 New state    171 was old state    167
 New state    172 was old state    175
 New state    173 was old state    181
 New state    174 was old state    176
 New state    175 was old state    183
 New state    176 was old state    161
 New state    177 was old state    178
 New state    178 was old state    189
 New state    179 was old state    185
 New state    180 was old state    190
 New state    181 was old state    179
 New state    182 was old state    168
 New state    183 was old state    184
 New state    184 was old state    193
 New state    185 was old state    174
 New state    186 was old state    182
 New state    187 was old state    188
 New state    188 was old state    209
 New state    189 was old state    186
 New state    190 was old state    187
 New state    191 was old state    192
 New state    192 was old state    201
 New state    193 was old state    191
 New state    194 was old state    204
 New state    195 was old state    198
 New state    196 was old state    200
 New state    197 was old state    199
 New state    198 was old state    196
 New state    199 was old state    180
 New state    200 was old state    195
 New state    201 was old state    203
 New state    202 was old state    194
 New state    203 was old state    216
 New state    204 was old state    225
 New state    205 was old state    213
 New state    206 was old state    202
 New state    207 was old state    212
 New state    208 was old state    210
 New state    209 was old state    208
 New state    210 was old state    207
 New state    211 was old state    205
 New state    212 was old state    197
 New state    213 was old state    215
 New state    214 was old state    206
 New state    215 was old state    231
 New state    216 was old state    224
 New state    217 was old state    211
 New state    218 was old state    235
 New state    219 was old state    218
 New state    220 was old state    230
 New state    221 was old state    214
 New state    222 was old state    228
 New state    224 was old state    221
 New state    225 was old state    233
 New state    226 was old state    220
 New state    227 was old state    240
 New state    228 was old state    222
 New state    230 was old state    217
 New state    231 was old state    227
 New state    232 was old state    226
 New state    233 was old state    219
 New state    234 was old state    238
 New state    235 was old state    236
 New state    236 was old state    251
 New state    237 was old state    241
 New state    238 was old state    262
 New state    239 was old state    232
 New state    240 was old state    237
 New state    241 was old state    234
 New state    242 was old state    239
 New state    243 was old state    246
 New state    244 was old state    243
 New state    245 was old state    244
 New state    246 was old state    242
 New state    247 was old state    249
 New state    249 was old state    247
 New state    250 was old state    266
 New state    251 was old state    253
 New state    252 was old state    250
 New state    253 was old state    252
 New state    254 was old state    258
 New state    255 was old state    267
 New state    256 was old state    255
 New state    257 was old state    259
 New state    258 was old state    245
 New state    259 was old state    268
 New state    260 was old state    264
 New state    261 was old state    254
 New state    262 was old state    261
 New state    263 was old state    260
 New state    264 was old state    263
 New state    265 was old state    256
 New state    266 was old state    271
 New state    267 was old state    269
 New state    268 was old state    257
 New state    269 was old state    265
 New state    270 was old state    279
 New state    271 was old state    277
 New state    272 was old state    274
 New state    273 was old state    281
 New state    274 was old state    273
 New state    275 was old state    272
 New state    276 was old state    278
 New state    277 was old state    270
 No map to state    278
 New state    279 was old state    275
 New state    280 was old state    297
 New state    281 was old state    286
 New state    282 was old state    290
 New state    283 was old state    282
 New state    284 was old state    276
 New state    285 was old state    293
 New state    286 was old state    301
 New state    287 was old state    280
 New state    289 was old state    284
 New state    290 was old state    289
 New state    291 was old state    283
 New state    292 was old state    285
 New state    293 was old state    292
 New state    294 was old state    311
 New state    295 was old state    307
 New state    296 was old state    305
 New state    297 was old state    313
 New state    298 was old state    296
 New state    299 was old state    294
 New state    300 was old state    309
 New state    301 was old state    291
 New state    302 was old state    303
 New state    303 was old state    302
 New state    304 was old state    299
 New state    305 was old state    298
 New state    306 was old state    287
 New state    307 was old state    304
 New state    308 was old state    300
 New state    309 was old state    317
 New state    310 was old state    306
 New state    311 was old state    295
 New state    312 was old state    308
 New state    313 was old state    310
 New state    314 was old state    312
 New state    315 was old state    319
 New state    316 was old state    323
 New state    317 was old state    316
 New state    319 was old state    315
 New state    320 was old state    314
 New state    322 was old state    333
 New state    323 was old state    327
 New state    324 was old state    328
 New state    325 was old state    330
 New state    326 was old state    331
 New state    327 was old state    322
 New state    328 was old state    342
 New state    329 was old state    325
 New state    330 was old state    329
 New state    331 was old state    320
 New state    332 was old state    324
 New state    333 was old state    341
 New state    334 was old state    326
 New state    335 was old state    339
 New state    336 was old state    335
 New state    337 was old state    332
 New state    338 was old state    347
 New state    339 was old state    336
 New state    340 was old state    338
 New state    341 was old state    337
 New state    342 was old state    334
 New state    344 was old state    350
 New state    345 was old state    349
 New state    346 was old state    340
 New state    347 was old state    345
 New state    348 was old state    344
 New state    349 was old state    356
 New state    350 was old state    361
 New state    351 was old state    358
 New state    352 was old state    346
 New state    353 was old state    348
 New state    354 was old state    353
 New state    355 was old state    360
 New state    356 was old state    352
 New state    357 was old state    355
 New state    358 was old state    365
 New state    359 was old state    357
 New state    360 was old state    359
 New state    361 was old state    354
 New state    362 was old state    351
 New state    363 was old state    368
 New state    365 was old state    369
 New state    366 was old state    363
 New state    367 was old state    373
 New state    368 was old state    366
 New state    369 was old state    371
 New state    370 was old state    367
 New state    371 was old state    370
 New state    372 was old state    379
 New state    373 was old state    362
 New state    374 was old state    383
 New state    375 was old state    381
 New state    376 was old state    386
 New state    377 was old state    385
 New state    379 was old state    372
 New state    380 was old state    384
 New state    381 was old state    374
 New state    382 was old state    390
 New state    383 was old state    382
 New state    384 was old state    389
 New state    385 was old state    377
 New state    386 was old state    375
 New state    388 was old state    392
 New state    389 was old state    393
 New state    390 was old state    394
 New state    391 was old state    397
 New state    392 was old state    399
 New state    393 was old state    380
 New state    394 was old state    396
 New state    395 was old state    402
 New state    396 was old state    388
 New state    397 was old state    401
 New state    398 was old state    391
 New state    399 was old state    405
 New state    400 was old state    404
 New state    401 was old state    403
 New state    402 was old state    409
 New state    403 was old state    398
 New state    404 was old state    400
 New state    405 was old state    425
 New state    407 was old state    395
 New state    409 was old state    411
 New state    410 was old state    414
 New state    411 was old state    412
 New state    412 was old state    416
 New state    413 was old state    407
 New state    414 was old state    410
 New state    415 was old state    417
 New state    416 was old state    419
 New state    417 was old state    415
 New state    418 was old state    422
 New state    419 was old state    420
 New state    420 was old state    413
 New state    421 was old state    426
 New state    422 was old state    421
 New state    423 was old state    418
 New state    425 was old state    423
 New state    426 was old state    432
 New state    427 was old state    429
 New state    429 was old state    430
 New state    430 was old state    427
 New state    432 was old state    433
 New state    433 was old state    436
 New state    434 was old state    437
 New state    435 was old state    434
 New state    436 was old state    438
 New state    437 was old state    447
 New state    438 was old state    435
 New state    439 was old state    448
 New state    440 was old state    439
 New state    441 was old state    442
 New state    442 was old state    444
 New state    443 was old state    441
 New state    444 was old state    440
 New state    445 was old state    443
 New state    446 was old state    450
 New state    447 was old state    449
 New state    448 was old state    445
 New state    449 was old state    446
 New state    450 was old state    451
 New state    451 was old state    452
 New state    452 was old state    466
 New state    453 was old state    454
 New state    454 was old state    453
 New state    455 was old state    461
 New state    457 was old state    455
 New state    458 was old state    459
 New state    459 was old state    463
 New state    460 was old state    457
 No map to state    461
 New state    462 was old state    460
 New state    463 was old state    467
 New state    465 was old state    458
 New state    466 was old state    471
 New state    467 was old state    462
 New state    468 was old state    469
 New state    469 was old state    465
 New state    470 was old state    468
 New state    471 was old state    470
 New state    472 was old state    473
 New state    473 was old state    479
 New state    474 was old state    481
 New state    475 was old state    480
 New state    476 was old state    474
 New state    477 was old state    472
 New state    478 was old state    484
 New state    479 was old state    476
 New state    480 was old state    475
 New state    481 was old state    477
 New state    482 was old state    478
 New state    484 was old state    482
 New state    485 was old state    488
 New state    487 was old state    485
 New state    488 was old state    487
 New state    489 was old state    496
 New state    490 was old state    491
 New state    491 was old state    493
 New state    492 was old state    490
 New state    493 was old state    489
 New state    494 was old state    492
 New state    495 was old state    498
 New state    496 was old state    497
 New state    497 was old state    495
 New state    498 was old state    502
 New state    500 was old state    501
 New state    501 was old state    500
 New state    502 was old state    504
 New state    503 was old state    507
 New state    504 was old state    508
 New state    506 was old state    494
 New state    507 was old state    509
 New state    508 was old state    506
 New state    509 was old state    511
 New state    510 was old state    512
 New state    511 was old state    503
 New state    512 was old state    514
 New state    514 was old state    519
 New state    515 was old state    516
 New state    516 was old state    518
 New state    517 was old state    520
 New state    518 was old state    517
 New state    519 was old state    515
 New state    520 was old state    522
 New state    521 was old state    524
 New state    522 was old state    521
 New state    523 was old state    525
 New state    524 was old state    510
 New state    525 was old state    523
 New state    526 was old state    528
 New state    528 was old state    526
 New state    529 was old state    530
 New state    530 was old state    533
 New state    531 was old state    537
 New state    532 was old state    529
 New state    533 was old state    531
 New state    534 was old state    532
 New state    536 was old state    538
 New state    537 was old state    534
 New state    538 was old state    544
 New state    539 was old state    536
 New state    540 was old state    539
 New state    541 was old state    542
 New state    542 was old state    541
 New state    544 was old state    540
 New state    545 was old state    546
 New state    546 was old state    545
 New state    547 was old state    548
 New state    548 was old state    547
 New state    551 was old state    552
 New state    552 was old state    551
 New state    557 was old state    558
 New state    558 was old state    561
 New state    560 was old state    557
 New state    561 was old state    560
 New state    562 was old state    563
 New state    563 was old state    562
 New state    565 was old state    567
 New state    566 was old state    565
 New state    567 was old state    566
 New state    569 was old state    570
 New state    570 was old state    569
 New state    571 was old state    575
 New state    572 was old state    571
 New state    573 was old state    572
 New state    574 was old state    577
 New state    575 was old state    574
 New state    576 was old state    573
 New state    577 was old state    578
 New state    578 was old state    579
 New state    579 was old state    583
 New state    580 was old state    576
 New state    581 was old state    587
 New state    582 was old state    585
 New state    583 was old state    584
 New state    584 was old state    591
 New state    585 was old state    582
 New state    586 was old state    581
 New state    587 was old state    580
 New state    588 was old state    586
 New state    589 was old state    588
 New state    590 was old state    593
 New state    591 was old state    594
 New state    593 was old state    589
 New state    594 was old state    590
 New state    596 was old state    598
 New state    598 was old state    596
 New state    599 was old state    601
 New state    600 was old state    599
 New state    601 was old state    602
 New state    602 was old state    604
 New state    603 was old state    600
 New state    604 was old state    603
 New state    607 was old state    609
 New state    608 was old state    613
 New state    609 was old state    610
 New state    610 was old state    608
 New state    611 was old state    607
 New state    612 was old state    611
 New state    613 was old state    612
 New state    617 was old state    619
 New state    618 was old state    617
 New state    619 was old state    618
 New state    620 was old state    624
 New state    622 was old state    623
 New state    623 was old state    622
 New state    624 was old state    625
 New state    625 was old state    620
 New state    626 was old state    629
 New state    627 was old state    626
 New state    628 was old state    632
 New state    629 was old state    628
 New state    630 was old state    631
 New state    631 was old state    627
 New state    632 was old state    630
 New state    637 was old state    638
 New state    638 was old state    637
 New state    639 was old state    640
 New state    640 was old state    641
 New state    641 was old state    639
 New state    645 was old state    646
 New state    646 was old state    645
 New state    647 was old state    648
 New state    648 was old state    647
 New state    649 was old state    650
 New state    650 was old state    649
 New state    651 was old state    652
 New state    652 was old state    651
 New state    653 was old state    655
 New state    655 was old state    653
 New state    656 was old state    658
 New state    657 was old state    656
 New state    658 was old state    657
 New state    659 was old state    660
 New state    660 was old state    659
 New state    662 was old state    668
 New state    663 was old state    662
 New state    664 was old state    666
 New state    665 was old state    663
 New state    666 was old state    667
 New state    667 was old state    670
 New state    668 was old state    664
 New state    670 was old state    673
 New state    671 was old state    672
 New state    672 was old state    665
 New state    673 was old state    671
 New state    674 was old state    675
 New state    675 was old state    674
 New state    676 was old state    679
 New state    678 was old state    676
 New state    679 was old state    683
 New state    680 was old state    682
 New state    682 was old state    678
 New state    683 was old state    680
 New state    686 was old state    690
 New state    688 was old state    689
 New state    689 was old state    686
 New state    690 was old state    688
 New state    691 was old state    693
 New state    692 was old state    697
 New state    693 was old state    691
 New state    695 was old state    692
 New state    697 was old state    698
 New state    698 was old state    695
 New state    699 was old state    700
 New state    700 was old state    699
 New state    701 was old state    703
 New state    703 was old state    704
 New state    704 was old state    701
 New state    705 was old state    706
 New state    706 was old state    705
 New state    708 was old state    709
 New state    709 was old state    708
 New state    714 was old state    721
 New state    715 was old state    716
 New state    716 was old state    715
 New state    717 was old state    718
 New state    718 was old state    714
 New state    719 was old state    717
 New state    720 was old state    719
 New state    721 was old state    725
 New state    722 was old state    720
 New state    723 was old state    722
 New state    725 was old state    723
 New state    727 was old state    730
 New state    728 was old state    727
 New state    729 was old state    728
 New state    730 was old state    729
 New state    732 was old state    734
 New state    733 was old state    732
 New state    734 was old state    733
 New state    736 was old state    737
 New state    737 was old state    736
 New state    738 was old state    739
 New state    739 was old state    738
 New state    742 was old state    744
 New state    743 was old state    742
 New state    744 was old state    743
 Excitation Energies [eV] at current iteration:
 Root      1 :     8.286194340113946
 Root      2 :     8.695012458204882
 Root      3 :     8.709467202916132
 Root      4 :     9.260918066538276
 Root      5 :     9.297956813858921
 Root      6 :     9.452719354438303
 Root      7 :     9.575772903524028
 Root      8 :    10.125502873927220
 Root      9 :    10.348223730779550
 Root     10 :    10.416649300293990
 Root     11 :    10.771136833501770
 Root     12 :    11.028258062793250
 Root     13 :    11.388611786585370
 Root     14 :    11.433314456080760
 Root     15 :    11.512773372830390
 Root     16 :    11.696834426260520
 Root     17 :    11.764976470834060
 Root     18 :    11.953208313762120
 Root     19 :    11.996640184687650
 Root     20 :    12.062871119687820
 Root     21 :    12.156758831866440
 Root     22 :    12.312788602291040
 Root     23 :    12.560929162020810
 Root     24 :    12.606973786916900
 Root     25 :    12.641064998289210
 Root     26 :    12.809668239011350
 Root     27 :    12.847136600364840
 Root     28 :    12.869155113120700
 Root     29 :    12.892302582149080
 Root     30 :    12.970668515297970
 Root     31 :    13.025395921592130
 Root     32 :    13.526118128160140
 Root     33 :    13.635139964473600
 Root     34 :    13.767342991783970
 Root     35 :    13.782122934757080
 Root     36 :    13.823363988502870
 Root     37 :    13.942423942683280
 Root     38 :    14.209426148679770
 Root     39 :    14.402674812878030
 Root     40 :    14.440591519636000
 Root     41 :    14.500534099245530
 Root     42 :    14.680303746661320
 Root     43 :    14.687313424083520
 Root     44 :    14.698173719470420
 Root     45 :    14.870996819188900
 Root     46 :    14.968404574974830
 Root     47 :    15.043036831298910
 Root     48 :    15.073334021960230
 Root     49 :    15.162667287479570
 Root     50 :    15.231032834122610
 Root     51 :    15.376159346914250
 Root     52 :    15.397138030730290
 Root     53 :    15.450724400894720
 Root     54 :    15.461282794645820
 Root     55 :    15.468219123323630
 Root     56 :    15.524622609684300
 Root     57 :    15.559793211825700
 Root     58 :    15.758224039667370
 Root     59 :    15.810625169163820
 Root     60 :    15.814761991015910
 Root     61 :    16.012420574602580
 Root     62 :    16.049587800680490
 Root     63 :    16.271366017844980
 Root     64 :    16.364466744800670
 Root     65 :    16.395522660735770
 Root     66 :    16.399916956560160
 Root     67 :    16.481858826755420
 Root     68 :    16.489004478274460
 Root     69 :    16.549542165484220
 Root     70 :    16.591744835651680
 Root     71 :    16.824571017863630
 Root     72 :    16.905998098128300
 Root     73 :    16.919325588238220
 Root     74 :    17.004949063899930
 Root     75 :    17.021738057944880
 Root     76 :    17.154649081731480
 Root     77 :    17.275355276783600
 Root     78 :    17.512132448724380
 Root     79 :    17.513383267655470
 Root     80 :    17.597320112969640
 Root     81 :    17.761670653517460
 Root     82 :    17.789721392324430
 Root     83 :    17.790436912255260
 Root     84 :    17.821026669534530
 Root     85 :    17.838514113846710
 Root     86 :    17.869839297855870
 Root     87 :    18.078313581774120
 Root     88 :    18.080316572925110
 Root     89 :    18.104314023678740
 Root     90 :    18.152585568959070
 Root     91 :    18.194580384881390
 Root     92 :    18.349099006482180
 Root     93 :    18.432818020106870
 Root     94 :    18.510652327669630
 Root     95 :    18.813754082381400
 Root     96 :    18.820828378535020
 Root     97 :    18.821624333871240
 Root     98 :    18.865405227223310
 Root     99 :    18.915141780362750
 Root    100 :    18.967913868317940
 Root    101 :    18.971113425910560
 Root    102 :    19.028476398661580
 Root    103 :    19.068822879888490
 Root    104 :    19.076165088550150
 Root    105 :    19.155380781718640
 Root    106 :    19.186985972980450
 Root    107 :    19.191597329551730
 Root    108 :    19.202527606983280
 Root    109 :    19.313943145678270
 Root    110 :    19.378442789720570
 Root    111 :    19.388071920612620
 Root    112 :    19.444717660962790
 Root    113 :    19.530656981508010
 Root    114 :    19.531869159116230
 Root    115 :    19.573087557004880
 Root    116 :    19.590098189432900
 Root    117 :    19.788878257189920
 Root    118 :    19.870563589973170
 Root    119 :    19.906905308831530
 Root    120 :    19.983590041400430
 Root    121 :    19.985393531268400
 Root    122 :    20.066818244076910
 Root    123 :    20.071571653848910
 Root    124 :    20.115593376136850
 Root    125 :    20.143212764809750
 Root    126 :    20.265456448185170
 Root    127 :    20.310704393559420
 Root    128 :    20.312747788595190
 Root    129 :    20.339643483889460
 Root    130 :    20.386104468996170
 Root    131 :    20.424929046858950
 Root    132 :    20.451044862401060
 Root    133 :    20.454391079748950
 Root    134 :    20.641738258906380
 Root    135 :    20.663632113018500
 Root    136 :    20.705091803236990
 Root    137 :    20.863400587679560
 Root    138 :    20.959507251386080
 Root    139 :    20.982774817073310
 Root    140 :    21.028413320288240
 Root    141 :    21.149585263744540
 Root    142 :    21.171237667710680
 Root    143 :    21.225794998910420
 Root    144 :    21.230431501223080
 Root    145 :    21.269945586990250
 Root    146 :    21.281272625284860
 Root    147 :    21.429988402216550
 Root    148 :    21.461657538178350
 Root    149 :    21.486187258119660
 Root    150 :    21.512342391347070
 Root    151 :    21.595115091661220
 Root    152 :    21.615804434801930
 Root    153 :    21.649336412112270
 Root    154 :    21.769750929065130
 Root    155 :    21.783662534633020
 Root    156 :    21.798758127378200
 Root    157 :    21.870590280981490
 Root    158 :    21.981473173201190
 Root    159 :    21.997555114166900
 Root    160 :    22.195763528896630
 Root    161 :    22.246606839819730
 Root    162 :    22.257644425566240
 Root    163 :    22.263780847650240
 Root    164 :    22.335425165096480
 Root    165 :    22.355999547279840
 Root    166 :    22.452575296970600
 Root    167 :    22.488059072957380
 Root    168 :    22.502231810522760
 Root    169 :    22.580791386485270
 Root    170 :    22.583647099175780
 Root    171 :    22.599615380511760
 Root    172 :    22.712078416420170
 Root    173 :    22.777548561112610
 Root    174 :    22.837933891467670
 Root    175 :    22.928140759874520
 Root    176 :    22.996191204484740
 Root    177 :    23.030069684785340
 Root    178 :    23.123694602870690
 Root    179 :    23.152107244139580
 Root    180 :    23.234892468235360
 Root    181 :    23.241814851096290
 Root    182 :    23.309898235950930
 Root    183 :    23.385334000367680
 Root    184 :    23.406621776667060
 Root    185 :    23.435990378921900
 Root    186 :    23.526455641289100
 Root    187 :    23.557287126617800
 Root    188 :    23.606939717709450
 Root    189 :    23.636411283488360
 Root    190 :    23.700450575708080
 Root    191 :    23.704463714536400
 Root    192 :    23.747391145523500
 Root    193 :    23.776985054483430
 Root    194 :    23.915527749109100
 Root    195 :    23.962660759104050
 Root    196 :    24.087264460692010
 Root    197 :    24.157403809744990
 Root    198 :    24.183594642551320
 Root    199 :    24.195351542348790
 Root    200 :    24.292867223103650
 Root    201 :    24.417587914711040
 Root    202 :    24.432617728629190
 Root    203 :    24.495368637545830
 Root    204 :    24.571549268169840
 Root    205 :    24.597942857925520
 Root    206 :    24.602870984383300
 Root    207 :    24.791521547591570
 Root    208 :    24.866651097020830
 Root    209 :    24.870089292209740
 Root    210 :    24.918158602495950
 Root    211 :    24.999759106671160
 Root    212 :    25.004055992011820
 Root    213 :    25.082550097203120
 Root    214 :    25.236887977094280
 Root    215 :    25.262627539746020
 Root    216 :    25.280209394811270
 Root    217 :    25.464965543823810
 Root    218 :    25.499316290930210
 Root    219 :    25.622312131191180
 Root    220 :    25.641166115496940
 Root    221 :    25.779458402169600
 Root    222 :    25.797849805173630
 Root    223 :    25.836121423175370
 Root    224 :    25.989209739220500
 Root    225 :    25.994532685831650
 Root    226 :    26.167072555062960
 Root    227 :    26.205016845214150
 Root    228 :    26.260026308912730
 Root    229 :    26.302405332975890
 Root    230 :    26.349301386797310
 Root    231 :    26.373342078473210
 Root    232 :    26.382440430547830
 Root    233 :    26.393302679797560
 Root    234 :    26.610823491620760
 Root    235 :    26.675194128562940
 Root    236 :    26.725330795778710
 Root    237 :    26.882180103998850
 Root    238 :    26.916434855553250
 Root    239 :    26.920869066479230
 Root    240 :    26.956529983996910
 Root    241 :    27.022793062781050
 Root    242 :    27.247760236120760
 Root    243 :    27.325521925365870
 Root    244 :    27.340422056806010
 Root    245 :    27.353258042202770
 Root    246 :    27.429672227532790
 Root    247 :    27.606650641172680
 Root    248 :    27.622231278490420
 Root    249 :    27.720757653654860
 Root    250 :    27.738235248759410
 Root    251 :    27.751696587994580
 Root    252 :    27.790491235226530
 Root    253 :    27.911608278293730
 Root    254 :    27.920009871201320
 Root    255 :    27.979115200595790
 Root    256 :    28.101401242555170
 Root    257 :    28.328192253107510
 Root    258 :    28.348929967987980
 Root    259 :    28.351730772147040
 Root    260 :    28.353980171378030
 Root    261 :    28.379556752249860
 Root    262 :    28.437048065826810
 Root    263 :    28.604611627402250
 Root    264 :    28.695015989848470
 Root    265 :    28.958457535934880
 Root    266 :    29.054491270426460
 Root    267 :    29.064871934063370
 Root    268 :    29.081239195684740
 Root    269 :    29.097194481896760
 Root    270 :    29.186982534849170
 Root    271 :    29.286262189395740
 Root    272 :    29.321254194038950
 Root    273 :    29.440731248133860
 Root    274 :    29.603356623163450
 Root    275 :    29.652121981697840
 Root    276 :    29.698773472804340
 Root    277 :    29.758149970003850
 Root    278 :    29.869647726501790
 Root    279 :    29.955678413528120
 Root    280 :    30.055176740765300
 Root    281 :    30.233237349655600
 Root    282 :    30.343932336452520
 Root    283 :    30.397727853157940
 Root    284 :    30.403100697272030
 Root    285 :    30.416770359267850
 Root    286 :    30.527506531203520
 Root    287 :    30.589652265913850
 Root    288 :    30.702618447504890
 Root    289 :    30.781297601615950
 Root    290 :    30.845969596883600
 Root    291 :    30.867695666890700
 Root    292 :    30.990704534314890
 Root    293 :    31.007688273118430
 Root    294 :    31.092935733727800
 Root    295 :    31.208538635319270
 Root    296 :    31.215962408005050
 Root    297 :    31.386180642069210
 Root    298 :    31.502868350547220
 Root    299 :    31.507114843207890
 Root    300 :    31.602928262526030
 Root    301 :    31.692092480480970
 Root    302 :    31.749119512277280
 Root    303 :    31.815550169520510
 Root    304 :    31.835921043324010
 Root    305 :    31.874278786383720
 Root    306 :    31.914815747454630
 Root    307 :    31.948961671028860
 Root    308 :    32.041712068034120
 Root    309 :    32.073493773945120
 Root    310 :    32.190307159481430
 Root    311 :    32.268184561619570
 Root    312 :    32.522361528948280
 Root    313 :    32.572718308842240
 Root    314 :    32.739643457299280
 Root    315 :    32.777183425319850
 Root    316 :    32.866399319715780
 Root    317 :    32.884546504448810
 Root    318 :    32.968763120888690
 Root    319 :    32.980361016094830
 Root    320 :    33.103900829961200
 Root    321 :    33.192587837181970
 Root    322 :    33.447556586072320
 Root    323 :    33.674356952075800
 Root    324 :    33.683569713738210
 Root    325 :    33.697796010079460
 Root    326 :    33.752896763246410
 Root    327 :    33.912627146803100
 Root    328 :    34.015760494131920
 Root    329 :    34.087617162136330
 Root    330 :    34.169323144957640
 Root    331 :    34.275362114768830
 Root    332 :    34.447975852807810
 Root    333 :    34.510542010213390
 Root    334 :    34.516468670142160
 Root    335 :    34.531973745308470
 Root    336 :    34.597219454993700
 Root    337 :    35.116026409398140
 Root    338 :    35.142931175620200
 Root    339 :    35.190380433777610
 Root    340 :    35.192182335732940
 Root    341 :    35.287077712429390
 Root    342 :    35.381748721741150
 Root    343 :    35.475141730561870
 Root    344 :    35.619000615408690
 Root    345 :    35.674341949650240
 Root    346 :    35.786530315224650
 Root    347 :    35.865723679756530
 Root    348 :    35.883811759684070
 Root    349 :    35.965176165661470
 Root    350 :    36.080659469847450
 Root    351 :    36.272772221200330
 Root    352 :    36.317179066120370
 Root    353 :    36.332253236640160
 Root    354 :    36.411859692680970
 Root    355 :    36.472887656399260
 Root    356 :    36.546084486350010
 Root    357 :    36.579090995146460
 Root    358 :    36.645721187182700
 Root    359 :    36.760394679202520
 Root    360 :    36.822840056065370
 Root    361 :    36.937054717714140
 Root    362 :    37.053315213079170
 Root    363 :    37.229864805182550
 Root    364 :    37.262452490321240
 Root    365 :    37.365215008721220
 Root    366 :    37.489006779410680
 Root    367 :    37.530311295733210
 Root    368 :    37.759567558478900
 Root    369 :    37.808303000940090
 Root    370 :    37.823711868511430
 Root    371 :    37.984983607887370
 Root    372 :    38.025179655260500
 Root    373 :    38.055271698141800
 Root    374 :    38.197305213783950
 Root    375 :    38.531294717525610
 Root    376 :    38.541659394425590
 Root    377 :    38.610815344186910
 Root    378 :    38.647850689618770
 Root    379 :    38.817918829189410
 Root    380 :    38.860186786661320
 Root    381 :    38.994496012916440
 Root    382 :    39.119631858779090
 Root    383 :    39.256380236937690
 Root    384 :    39.284775710191790
 Root    385 :    39.393945901557160
 Root    386 :    39.711077127212700
 Root    387 :    39.994886602008740
 Root    388 :    40.051309289344910
 Root    389 :    40.227986628936270
 Root    390 :    40.306317429361300
 Root    391 :    40.395747397829300
 Root    392 :    40.511750139992640
 Root    393 :    40.519831420946500
 Root    394 :    40.682951384284710
 Root    395 :    40.751832146616600
 Root    396 :    40.797113064995780
 Root    397 :    40.820036504463690
 Root    398 :    40.853009904849460
 Root    399 :    40.974091840867140
 Root    400 :    41.149654925857410
 Root    401 :    41.179648953048040
 Root    402 :    41.228899616723300
 Root    403 :    41.392215863354470
 Root    404 :    41.512864114423590
 Root    405 :    41.520910752382910
 Root    406 :    41.551181101734440
 Root    407 :    41.583988552429400
 Root    408 :    41.759342703425250
 Root    409 :    41.824318043841470
 Root    410 :    42.489418624363470
 Root    411 :    42.579682646403500
 Root    412 :    42.670974656078050
 Root    413 :    42.675551811417410
 Root    414 :    42.678102862040660
 Root    415 :    42.821144307379790
 Root    416 :    42.847356756331950
 Root    417 :    42.959602599394690
 Root    418 :    43.022993672554470
 Root    419 :    43.206485237247930
 Root    420 :    43.241850371507080
 Root    421 :    43.424157841315020
 Root    422 :    43.661572793110150
 Root    423 :    43.724716102203110
 Root    424 :    43.820892761544530
 Root    425 :    44.069100955987350
 Root    426 :    44.182895113960680
 Root    427 :    44.214456847308780
 Root    428 :    44.494265353408730
 Root    429 :    44.564657720824440
 Root    430 :    44.721542971166940
 Root    431 :    45.075999667512560
 Root    432 :    45.165741917317360
 Root    433 :    45.588695996879610
 Root    434 :    45.841099499445500
 Root    435 :    45.863960289619990
 Root    436 :    45.975197015924200
 Root    437 :    46.170350969258910
 Root    438 :    46.267266553213290
 Root    439 :    46.396594053048840
 Root    440 :    46.525748518660900
 Root    441 :    46.835782386040450
 Root    442 :    46.950366482037140
 Root    443 :    47.013124416743070
 Root    444 :    47.191298736165870
 Root    445 :    47.262382859123460
 Root    446 :    47.388400167826290
 Root    447 :    47.775966963631260
 Root    448 :    47.960110496114430
 Root    449 :    48.235913388642350
 Root    450 :    48.370866756205270
 Root    451 :    48.627546849570630
 Root    452 :    48.794718823717140
 Root    453 :    48.837315306877630
 Root    454 :    48.972895672975070
 Root    455 :    49.252090783610570
 Root    456 :    49.676296271591080
 Root    457 :    49.826802481395620
 Root    458 :    49.828432362234980
 Root    459 :    49.872699306643590
 Root    460 :    50.203881763156100
 Root    461 :    50.367661655191890
 Root    462 :    50.523709154279860
 Root    463 :    50.612254706120210
 Root    464 :    50.693249457287590
 Root    465 :    50.925843984217970
 Root    466 :    51.209428264721300
 Root    467 :    51.515591670432320
 Root    468 :    51.571313340999470
 Root    469 :    51.583209266140220
 Root    470 :    51.724803033680880
 Root    471 :    52.120333229357280
 Root    472 :    52.521554335471070
 Root    473 :    52.816639513237520
 Root    474 :    52.960672477926780
 Root    475 :    52.981595217358620
 Root    476 :    53.109994528720830
 Root    477 :    53.191638451737910
 Root    478 :    53.287837930607460
 Root    479 :    53.361206930989420
 Root    480 :    53.376458277345590
 Root    481 :    53.418757656336820
 Root    482 :    53.607117404400840
 Root    483 :    53.963087622055110
 Root    484 :    53.973329667453580
 Root    485 :    54.550804818056100
 Root    486 :    54.650996858852270
 Root    487 :    54.865404619442130
 Root    488 :    54.919112867738330
 Root    489 :    55.498837942975470
 Root    490 :    55.537940928806530
 Root    491 :    55.616164871561960
 Root    492 :    55.814972140368060
 Root    493 :    56.064180661541390
 Root    494 :    56.180797837192960
 Root    495 :    56.397643978672040
 Root    496 :    56.430899479397130
 Root    497 :    56.687272982532400
 Root    498 :    56.688062032136110
 Root    499 :    56.826435581764200
 Root    500 :    56.969616786743470
 Root    501 :    57.194575878711720
 Root    502 :    57.417779853590640
 Root    503 :    57.551158126331440
 Root    504 :    57.686491803764460
 Root    505 :    57.891872871746920
 Root    506 :    58.002653855473020
 Root    507 :    58.296271150930260
 Root    508 :    58.374478858016590
 Root    509 :    58.435835051767700
 Root    510 :    58.541711359227760
 Root    511 :    58.658667372356180
 Root    512 :    58.727087928146120
 Root    513 :    59.077315955086260
 Root    514 :    59.131598188292860
 Root    515 :    59.489959609454700
 Root    516 :    59.611280155939600
 Root    517 :    59.795931843385500
 Root    518 :    59.948705370259530
 Root    519 :    60.027538045633110
 Root    520 :    60.030380865122520
 Root    521 :    60.037190998379980
 Root    522 :    60.228988942505940
 Root    523 :    60.351411852002960
 Root    524 :    60.452993675697480
 Root    525 :    60.526308570572940
 Root    526 :    60.681422702903090
 Root    527 :    60.962186640996400
 Root    528 :    61.123556450721580
 Root    529 :    61.172678841840060
 Root    530 :    61.252051328689350
 Root    531 :    61.337085776950800
 Root    532 :    61.462138727550270
 Root    533 :    61.633469384108890
 Root    534 :    61.676133683347220
 Root    535 :    61.700770343239950
 Root    536 :    62.113226596007480
 Root    537 :    62.230656328685540
 Root    538 :    62.381595793505500
 Root    539 :    62.546206223207520
 Root    540 :    62.896678903077660
 Root    541 :    62.907492180178130
 Root    542 :    63.090069945380760
 Root    543 :    63.323000758485210
 Root    544 :    63.600180471006280
 Root    545 :    63.719219018030010
 Root    546 :    63.805065365079740
 Root    547 :    64.029186667623010
 Root    548 :    64.366262252704790
 Root    549 :    64.552020825705440
 Root    550 :    64.732630565400480
 Root    551 :    64.768250830310170
 Root    552 :    64.862410599205550
 Root    553 :    64.897216330136400
 Root    554 :    65.174963609912550
 Root    555 :    65.387348134660230
 Root    556 :    65.508601791591910
 Root    557 :    65.520168710645990
 Root    558 :    65.969397284690770
 Root    559 :    66.390364368520620
 Root    560 :    66.403500638355130
 Root    561 :    66.567011040398740
 Root    562 :    66.576828192590640
 Root    563 :    66.689267698094170
 Root    564 :    66.698855415285110
 Root    565 :    66.764794250557870
 Root    566 :    66.916483945211400
 Root    567 :    67.046696174086560
 Root    568 :    67.093518005436640
 Root    569 :    67.128225939668880
 Root    570 :    67.335446174181370
 Root    571 :    67.856873777096810
 Root    572 :    67.879186043864960
 Root    573 :    68.047723139518960
 Root    574 :    68.059812116835400
 Root    575 :    68.112283557216200
 Root    576 :    68.199081061496540
 Root    577 :    68.839066293678070
 Root    578 :    68.977549557171510
 Root    579 :    69.102331048862400
 Root    580 :    69.379727568642860
 Root    581 :    69.610406313267650
 Root    582 :    69.701531951750100
 Root    583 :    69.822576776347990
 Root    584 :    69.945573070439150
 Root    585 :    69.946911955319610
 Root    586 :    69.988058509142960
 Root    587 :    70.106325121310650
 Root    588 :    70.269315484699820
 Root    589 :    70.347351887204620
 Root    590 :    70.439551065245280
 Root    591 :    70.727603872265290
 Root    592 :    70.842202309101680
 Root    593 :    70.887694643276500
 Root    594 :    70.909866497183700
 Root    595 :    71.454875920691460
 Root    596 :    71.847915084540190
 Root    597 :    72.006457960499080
 Root    598 :    72.069054631686650
 Root    599 :    72.410019526747500
 Root    600 :    72.474639422274480
 Root    601 :    72.496328261395130
 Root    602 :    72.892742392123840
 Root    603 :    72.916025724587560
 Root    604 :    73.220746296959050
 Root    605 :    73.247719529991870
 Root    606 :    73.420966144345040
 Root    607 :    73.757652649892140
 Root    608 :    73.844437732601360
 Root    609 :    73.948189819138190
 Root    610 :    73.999570160309700
 Root    611 :    74.132501452917540
 Root    612 :    74.753945715762190
 Root    613 :    75.031293156937390
 Root    614 :    75.436593313766410
 Root    615 :    75.573350008107080
 Root    616 :    75.644911033165410
 Root    617 :    75.920287159441950
 Root    618 :    76.059813025899940
 Root    619 :    76.406151264780290
 Root    620 :    76.874415962716160
 Root    621 :    76.896134158426850
 Root    622 :    77.346366561977850
 Root    623 :    77.485553003695430
 Root    624 :    77.504456770038470
 Root    625 :    77.564391320553990
 Root    626 :    77.754682136981870
 Root    627 :    78.010429214435830
 Root    628 :    78.144364607747890
 Root    629 :    78.359059210991870
 Root    630 :    78.364910081439820
 Root    631 :    78.619133059114290
 Root    632 :    78.775563098107400
 Root    633 :    78.924650586895810
 Root    634 :    79.604487214385140
 Root    635 :    80.407469632579260
 Root    636 :    80.663407724267170
 Root    637 :    81.053283969075200
 Root    638 :    81.146849747607820
 Root    639 :    81.393446276186980
 Root    640 :    81.733403958090780
 Root    641 :    81.979541638187040
 Root    642 :    82.131577648462040
 Root    643 :    82.701021734799880
 Root    644 :    83.140243542213910
 Root    645 :    83.528591556860920
 Root    646 :    83.581106807255860
 Root    647 :    83.775850454278540
 Root    648 :    84.406035312400140
 Root    649 :    84.711172275329910
 Root    650 :    85.223360894830790
 Root    651 :    85.352305367037740
 Root    652 :    85.483380655494240
 Root    653 :    85.867091573268700
 Root    654 :    85.929098736627010
 Root    655 :    85.934379852752880
 Root    656 :    86.304834324007430
 Root    657 :    86.306088252935300
 Root    658 :    86.524189678604030
 Root    659 :    87.205142077345410
 Root    660 :    87.225037894060340
 Root    661 :    87.493597646118970
 Root    662 :    87.776130083682260
 Root    663 :    88.287813907797490
 Root    664 :    88.355861079133900
 Root    665 :    88.657772144062870
 Root    666 :    88.756412202691950
 Root    667 :    89.007647713042900
 Root    668 :    89.059548403075350
 Root    669 :    89.170800620079180
 Root    670 :    89.313245591491010
 Root    671 :    89.664798493336550
 Root    672 :    89.831991122600160
 Root    673 :    90.000908929834650
 Root    674 :    90.973582698749340
 Root    675 :    91.002045241140750
 Root    676 :    91.366944428175190
 Root    677 :    91.549813514714270
 Root    678 :    91.700938772082370
 Root    679 :    91.848611542386000
 Root    680 :    92.212224814098900
 Root    681 :    92.230368004082590
 Root    682 :    92.542939330945980
 Root    683 :    92.984341993432880
 Root    684 :    93.025584795848860
 Root    685 :    93.590567916507450
 Root    686 :    93.621701903547770
 Root    687 :    93.660873007931140
 Root    688 :    94.125357866667440
 Root    689 :    94.170699006642550
 Root    690 :    94.255344984073530
 Root    691 :    94.268265161791060
 Root    692 :    94.930807709805050
 Root    693 :    95.084720432828410
 Root    694 :    95.251254454083690
 Root    695 :    95.368604479640840
 Root    696 :    95.434305838047250
 Root    697 :    95.699310990466710
 Root    698 :    95.941453036540880
 Root    699 :    96.061548320131380
 Root    700 :    96.481449912300220
 Root    701 :    96.850695990279290
 Root    702 :    97.093424495503900
 Root    703 :    97.239927861151640
 Root    704 :    97.337718648175990
 Root    705 :    97.756458298100240
 Root    706 :    97.798738049170010
 Root    707 :    98.396276254336730
 Root    708 :    98.616387423532670
 Root    709 :    98.735431304387940
 Root    710 :    99.458013966229430
 Root    711 :    99.528523644256180
 Root    712 :    99.887097055185510
 Root    713 :   100.644107952140400
 Root    714 :   101.197821106100100
 Root    715 :   101.298122410360900
 Root    716 :   101.304818130249600
 Root    717 :   101.657085303402500
 Root    718 :   101.784228618747100
 Root    719 :   102.042573718366400
 Root    720 :   102.359894606248000
 Root    721 :   102.677806350969700
 Root    722 :   102.803186356661100
 Root    723 :   103.614002108883300
 Root    724 :   104.162575527698900
 Root    725 :   104.301163858440100
 Root    726 :   104.976606267715600
 Root    727 :   105.452609150278200
 Root    728 :   105.615114800741300
 Root    729 :   106.407315546120900
 Root    730 :   106.506482448634200
 Root    731 :   106.565451641234800
 Root    732 :   107.273955831308600
 Root    733 :   107.716063087554500
 Root    734 :   107.888317176817400
 Root    735 :   108.780155778296300
 Root    736 :   109.538848941076300
 Root    737 :   109.851243153805100
 Root    738 :   110.216070475705200
 Root    739 :   111.314892614757400
 Root    740 :   112.141360819252100
 Root    741 :   112.796569297210500
 Root    742 :   113.438375571964600
 Root    743 :   113.664660605483500
 Root    744 :   114.325671413434900
 Root    745 :   117.168112382864800
 Root    746 :   121.784252832519500
 Root    747 :   123.899681225108700
 Convergence achieved for final wavefunctions.
 ***********************************************************************
 Excited states from <AA,BB:AA,BB> singles matrix:
 ***********************************************************************
 
 1PDM for each excited state written to RWF  633
 Ground to excited state transition densities written to RWF  633
 Ground to excited state transition electric dipole moments (Au):
       state          X           Y           Z        Dip. S.      Osc.
         1         0.0833      0.0000      0.0000      0.0069      0.0014
[...]
      5   0.000000D+00  0.000000D+00  0.000000D+00 -0.353227D+00  0.318695D+00
      6  -0.331276D-02  0.000000D+00  0.000000D+00  0.000000D+00  0.000000D+00
      7   0.000000D+00  0.412229D-01  0.000000D+00  0.000000D+00  0.000000D+00
      8   0.773849D+00  0.000000D+00  0.000000D+00  0.000000D+00  0.000000D+00
      9   0.000000D+00  0.000000D+00  0.000000D+00 -0.495847D+00 -0.207812D+00
     10   0.000000D+00  0.000000D+00 -0.163953D+00  0.000000D+00  0.000000D+00
     11   0.000000D+00  0.594980D-02  0.000000D+00  0.000000D+00  0.000000D+00
     12   0.000000D+00 -0.729712D+00  0.000000D+00  0.000000D+00  0.000000D+00
     13   0.000000D+00 -0.224974D+00  0.000000D+00  0.000000D+00  0.000000D+00
     14   0.000000D+00  0.000000D+00  0.130313D+00  0.000000D+00  0.000000D+00
     15   0.000000D+00  0.000000D+00  0.000000D+00 -0.179144D+00 -0.348988D+00
     16  -0.295594D+00  0.000000D+00  0.000000D+00  0.000000D+00  0.000000D+00
               681           682           683           684           685 
      1  -0.149906D+03 -0.149894D+03 -0.149878D+03 -0.149876D+03 -0.149856D+03
      2   0.000000D+00  0.000000D+00  0.000000D+00  0.000000D+00 -0.245036D+00
      3   0.000000D+00 -0.351982D+00  0.000000D+00  0.000000D+00  0.000000D+00
      4  -0.163898D+00  0.000000D+00  0.281517D-01 -0.390219D-01  0.000000D+00
      5   0.000000D+00  0.000000D+00  0.000000D+00  0.000000D+00  0.712861D+00
      6   0.000000D+00  0.105315D+01  0.000000D+00  0.000000D+00  0.000000D+00
      7   0.524778D+00  0.000000D+00 -0.854021D-01  0.141329D+00  0.000000D+00
      8   0.000000D+00 -0.141036D+01  0.000000D+00  0.000000D+00  0.000000D+00
      9   0.000000D+00  0.000000D+00  0.000000D+00  0.000000D+00  0.885455D+00
     10   0.000000D+00  0.000000D+00  0.000000D+00  0.000000D+00  0.000000D+00
     11  -0.240760D+00  0.000000D+00  0.145024D+00 -0.940331D-01  0.000000D+00
     12   0.150869D+00  0.000000D+00  0.416235D+00 -0.256841D+00  0.000000D+00
     13   0.231436D+01  0.000000D+00 -0.540639D+00  0.564329D+00  0.000000D+00
     14   0.000000D+00  0.000000D+00  0.000000D+00  0.000000D+00  0.000000D+00
     15   0.000000D+00  0.000000D+00  0.000000D+00  0.000000D+00  0.113388D+01
     16   0.000000D+00  0.173222D+01  0.000000D+00  0.000000D+00  0.000000D+00
               686           687           688           689           690 
      1  -0.149855D+03 -0.149853D+03 -0.149836D+03 -0.149834D+03 -0.149831D+03
      2   0.000000D+00  0.000000D+00  0.000000D+00  0.637720D-01  0.000000D+00
      3   0.000000D+00  0.000000D+00  0.454910D-01  0.000000D+00  0.000000D+00
      4   0.000000D+00  0.511423D-01  0.000000D+00  0.000000D+00 -0.219450D-01
      5   0.000000D+00  0.000000D+00  0.000000D+00 -0.179580D+00  0.000000D+00
      6   0.000000D+00  0.000000D+00 -0.964075D-01  0.000000D+00  0.000000D+00
      7   0.000000D+00 -0.172735D+00  0.000000D+00  0.000000D+00  0.701962D-01
      8   0.000000D+00  0.000000D+00 -0.242849D+00  0.000000D+00  0.000000D+00
      9   0.000000D+00  0.000000D+00  0.000000D+00 -0.584327D+00  0.000000D+00
     10  -0.199745D-01  0.000000D+00  0.000000D+00  0.000000D+00  0.000000D+00
     11   0.000000D+00 -0.398724D+00  0.000000D+00  0.000000D+00  0.738315D-01
     12   0.000000D+00  0.869338D-01  0.000000D+00  0.000000D+00 -0.129578D+00
     13   0.000000D+00 -0.760902D+00  0.000000D+00  0.000000D+00  0.640499D+00
     14   0.150046D+00  0.000000D+00  0.000000D+00  0.000000D+00  0.000000D+00
     15   0.000000D+00  0.000000D+00  0.000000D+00 -0.656582D+00  0.000000D+00
     16   0.000000D+00  0.000000D+00 -0.133670D-01  0.000000D+00  0.000000D+00
               691           692           693           694           695 
      1  -0.149831D+03 -0.149806D+03 -0.149801D+03 -0.149795D+03 -0.149790D+03
      2   0.000000D+00  0.000000D+00  0.000000D+00 -0.178781D+00 -0.112813D-01
      3   0.000000D+00  0.000000D+00  0.000000D+00  0.000000D+00  0.000000D+00
      4   0.000000D+00  0.000000D+00  0.353320D-01  0.000000D+00  0.000000D+00
      5   0.000000D+00  0.000000D+00  0.000000D+00  0.513752D+00  0.892093D-02
      6   0.000000D+00  0.000000D+00  0.000000D+00  0.000000D+00  0.000000D+00
      7   0.000000D+00  0.000000D+00 -0.131609D+00  0.000000D+00  0.000000D+00
      8   0.000000D+00  0.000000D+00  0.000000D+00  0.000000D+00  0.000000D+00
      9   0.000000D+00  0.000000D+00  0.000000D+00  0.292168D+00 -0.227932D+00
     10  -0.305853D-02  0.291025D+00  0.000000D+00  0.000000D+00  0.000000D+00
     11   0.000000D+00  0.000000D+00  0.301233D+00  0.000000D+00  0.000000D+00
     12   0.000000D+00  0.000000D+00 -0.494049D+00  0.000000D+00  0.000000D+00
     13   0.000000D+00  0.000000D+00 -0.576943D+00  0.000000D+00  0.000000D+00
     14  -0.115381D+00 -0.800288D-01  0.000000D+00  0.000000D+00  0.000000D+00
     15   0.000000D+00  0.000000D+00  0.000000D+00  0.569344D+00 -0.206451D+00
     16   0.000000D+00  0.000000D+00  0.000000D+00  0.000000D+00  0.000000D+00
               696           697           698           699           700 
      1  -0.149788D+03 -0.149778D+03 -0.149769D+03 -0.149765D+03 -0.149749D+03
      2   0.000000D+00  0.000000D+00  0.000000D+00  0.000000D+00  0.000000D+00
      3  -0.633243D-01  0.651750D-01  0.979314D-01  0.000000D+00  0.495793D-01
      4   0.000000D+00  0.000000D+00  0.000000D+00  0.000000D+00  0.000000D+00
      5   0.000000D+00  0.000000D+00  0.000000D+00  0.000000D+00  0.000000D+00
      6   0.194321D+00 -0.185507D+00 -0.319581D+00  0.000000D+00 -0.166377D+00
      7   0.000000D+00  0.000000D+00  0.000000D+00  0.000000D+00  0.000000D+00
      8  -0.422533D+00 -0.159565D+00  0.435422D+00  0.000000D+00  0.431167D+00
      9   0.000000D+00  0.000000D+00  0.000000D+00  0.000000D+00  0.000000D+00
     10   0.000000D+00  0.000000D+00  0.000000D+00  0.319668D+00  0.000000D+00
     11   0.000000D+00  0.000000D+00  0.000000D+00  0.000000D+00  0.000000D+00
     12   0.000000D+00  0.000000D+00  0.000000D+00  0.000000D+00  0.000000D+00
     13   0.000000D+00  0.000000D+00  0.000000D+00  0.000000D+00  0.000000D+00
     14   0.000000D+00  0.000000D+00  0.000000D+00 -0.302336D+00  0.000000D+00
     15   0.000000D+00  0.000000D+00  0.000000D+00  0.000000D+00  0.000000D+00
     16   0.776380D+00  0.273179D-01 -0.432382D+00  0.000000D+00 -0.401504D+00
               701           702           703           704           705 
      1  -0.149736D+03 -0.149727D+03 -0.149722D+03 -0.149718D+03 -0.149703D+03
      2   0.000000D+00  0.000000D+00  0.000000D+00  0.000000D+00  0.183996D-02
      3   0.283773D-01  0.000000D+00  0.000000D+00 -0.953945D-01  0.000000D+00
      4   0.000000D+00 -0.122165D-01  0.000000D+00  0.000000D+00  0.000000D+00
      5   0.000000D+00  0.000000D+00  0.000000D+00  0.000000D+00 -0.525351D-02
      6  -0.110533D+00  0.000000D+00  0.000000D+00  0.287265D+00  0.000000D+00
      7   0.000000D+00  0.408258D-01  0.000000D+00  0.000000D+00  0.000000D+00
      8   0.117361D+00  0.000000D+00  0.000000D+00 -0.605116D+00  0.000000D+00
      9   0.000000D+00  0.000000D+00  0.000000D+00  0.000000D+00  0.483234D+00
     10   0.000000D+00  0.000000D+00  0.244796D-01  0.000000D+00  0.000000D+00
     11   0.000000D+00 -0.170436D-01  0.000000D+00  0.000000D+00  0.000000D+00
     12   0.000000D+00  0.390443D-01  0.000000D+00  0.000000D+00  0.000000D+00
     13   0.000000D+00  0.374983D+00  0.000000D+00  0.000000D+00  0.000000D+00
     14   0.000000D+00  0.000000D+00 -0.133462D-01  0.000000D+00  0.000000D+00
     15   0.000000D+00  0.000000D+00  0.000000D+00  0.000000D+00  0.614140D+00
     16  -0.436946D+00  0.000000D+00  0.000000D+00  0.614926D+00  0.000000D+00
               706           707           708           709           710 
      1  -0.149701D+03 -0.149679D+03 -0.149671D+03 -0.149667D+03 -0.149640D+03
      2   0.000000D+00  0.000000D+00  0.347099D-01  0.000000D+00  0.000000D+00
      3   0.000000D+00  0.000000D+00  0.000000D+00 -0.521819D-01  0.000000D+00
      4   0.000000D+00  0.605953D-01  0.000000D+00  0.000000D+00  0.335332D-01
      5   0.000000D+00  0.000000D+00 -0.129145D+00  0.000000D+00  0.000000D+00
      6   0.000000D+00  0.000000D+00  0.000000D+00  0.172166D+00  0.000000D+00
      7   0.000000D+00 -0.219620D+00  0.000000D+00  0.000000D+00 -0.100067D+00
      8   0.000000D+00  0.000000D+00  0.000000D+00 -0.396470D+00  0.000000D+00
      9   0.000000D+00  0.000000D+00  0.200158D+00  0.000000D+00  0.000000D+00
     10  -0.282083D+00  0.000000D+00  0.000000D+00  0.000000D+00  0.000000D+00
     11   0.000000D+00  0.163741D-01  0.000000D+00  0.000000D+00 -0.396586D+00
     12   0.000000D+00  0.609059D+00  0.000000D+00  0.000000D+00  0.589437D+00
     13   0.000000D+00  0.968010D-01  0.000000D+00  0.000000D+00  0.330090D+00
     14   0.461691D+00  0.000000D+00  0.000000D+00  0.000000D+00  0.000000D+00
     15   0.000000D+00  0.000000D+00  0.300773D+00  0.000000D+00  0.000000D+00
     16   0.000000D+00  0.000000D+00  0.000000D+00  0.504867D+00  0.000000D+00
               711           712           713           714           715 
      1  -0.149637D+03 -0.149624D+03 -0.149596D+03 -0.149576D+03 -0.149572D+03
      2   0.000000D+00 -0.510607D-02  0.000000D+00  0.000000D+00  0.000000D+00
      3   0.000000D+00  0.000000D+00  0.000000D+00  0.000000D+00  0.000000D+00
      4  -0.409575D-01  0.000000D+00  0.000000D+00  0.000000D+00  0.000000D+00
      5   0.000000D+00  0.322659D-01  0.000000D+00  0.000000D+00  0.000000D+00
      6   0.000000D+00  0.000000D+00  0.000000D+00  0.000000D+00  0.000000D+00
      7   0.138397D+00  0.000000D+00  0.000000D+00  0.000000D+00  0.000000D+00
      8   0.000000D+00  0.000000D+00  0.000000D+00  0.000000D+00  0.000000D+00
      9   0.000000D+00  0.291841D+00  0.000000D+00  0.000000D+00  0.000000D+00
     10   0.000000D+00  0.000000D+00  0.912715D-01 -0.162261D+00 -0.429452D+00
     11  -0.794398D-02  0.000000D+00  0.000000D+00  0.000000D+00  0.000000D+00
     12   0.209187D+00  0.000000D+00  0.000000D+00  0.000000D+00  0.000000D+00
     13   0.190191D+00  0.000000D+00  0.000000D+00  0.000000D+00  0.000000D+00
     14   0.000000D+00  0.000000D+00 -0.419997D+00 -0.258519D-01  0.485379D+00
     15   0.000000D+00  0.356283D+00  0.000000D+00  0.000000D+00  0.000000D+00
     16   0.000000D+00  0.000000D+00  0.000000D+00  0.000000D+00  0.000000D+00
               716           717           718           719           720 
      1  -0.149572D+03 -0.149559D+03 -0.149555D+03 -0.149545D+03 -0.149533D+03
      2   0.000000D+00  0.000000D+00  0.362920D+00  0.000000D+00  0.000000D+00
      3   0.000000D+00  0.000000D+00  0.000000D+00 -0.264150D-01 -0.820708D-01
      4   0.345069D-01 -0.108510D+00  0.000000D+00  0.000000D+00  0.000000D+00
      5   0.000000D+00  0.000000D+00 -0.116879D+01  0.000000D+00  0.000000D+00
      6   0.000000D+00  0.000000D+00  0.000000D+00  0.623797D-01  0.273613D+00
      7  -0.114394D+00  0.397681D+00  0.000000D+00  0.000000D+00  0.000000D+00
      8   0.000000D+00  0.000000D+00  0.000000D+00 -0.795945D-02 -0.895315D-02
      9   0.000000D+00  0.000000D+00 -0.173994D+01  0.000000D+00  0.000000D+00
     10   0.000000D+00  0.000000D+00  0.000000D+00  0.000000D+00  0.000000D+00
     11   0.671455D-01 -0.164990D+00  0.000000D+00  0.000000D+00  0.000000D+00
     12  -0.546517D+00 -0.477711D+00  0.000000D+00  0.000000D+00  0.000000D+00
     13  -0.444418D+00  0.215286D+01  0.000000D+00  0.000000D+00  0.000000D+00
     14   0.000000D+00  0.000000D+00  0.000000D+00  0.000000D+00  0.000000D+00
     15   0.000000D+00  0.000000D+00 -0.215028D+01  0.000000D+00  0.000000D+00
     16   0.000000D+00  0.000000D+00  0.000000D+00  0.397011D-02 -0.976023D-01
               721           722           723           724           725 
      1  -0.149522D+03 -0.149517D+03 -0.149487D+03 -0.149467D+03 -0.149462D+03
      2   0.000000D+00  0.000000D+00 -0.349971D-01  0.000000D+00  0.000000D+00
      3  -0.326896D-01  0.000000D+00  0.000000D+00 -0.249708D+00  0.000000D+00
      4   0.000000D+00  0.000000D+00  0.000000D+00  0.000000D+00  0.000000D+00
      5   0.000000D+00  0.000000D+00  0.115775D+00  0.000000D+00  0.000000D+00
      6   0.129553D+00  0.000000D+00  0.000000D+00  0.846359D+00  0.000000D+00
      7   0.000000D+00  0.000000D+00  0.000000D+00  0.000000D+00  0.000000D+00
      8  -0.596041D-01  0.000000D+00  0.000000D+00 -0.101100D+01  0.000000D+00
      9   0.000000D+00  0.000000D+00  0.386244D+00  0.000000D+00  0.000000D+00
     10   0.000000D+00 -0.205017D+00  0.000000D+00  0.000000D+00 -0.162700D+00
     11   0.000000D+00  0.000000D+00  0.000000D+00  0.000000D+00  0.000000D+00
     12   0.000000D+00  0.000000D+00  0.000000D+00  0.000000D+00  0.000000D+00
     13   0.000000D+00  0.000000D+00  0.000000D+00  0.000000D+00  0.000000D+00
     14   0.000000D+00  0.229985D+00  0.000000D+00  0.000000D+00  0.183320D+00
     15   0.000000D+00  0.000000D+00  0.714004D+00  0.000000D+00  0.000000D+00
     16  -0.197742D+00  0.000000D+00  0.000000D+00  0.117749D+01  0.000000D+00
               726           727           728           729           730 
      1  -0.149437D+03 -0.149420D+03 -0.149414D+03 -0.149385D+03 -0.149381D+03
      2   0.000000D+00  0.000000D+00  0.527657D-01  0.331027D-01  0.128755D+00
      3   0.446697D-01  0.000000D+00  0.000000D+00  0.000000D+00  0.000000D+00
      4   0.000000D+00 -0.725858D-01  0.000000D+00  0.000000D+00  0.000000D+00
      5   0.000000D+00  0.000000D+00 -0.159528D+00 -0.107627D+00 -0.411901D+00
      6  -0.152321D+00  0.000000D+00  0.000000D+00  0.000000D+00  0.000000D+00
      7   0.000000D+00  0.265032D+00  0.000000D+00  0.000000D+00  0.000000D+00
      8   0.475144D-01  0.000000D+00  0.000000D+00  0.000000D+00  0.000000D+00
      9   0.000000D+00  0.000000D+00  0.146358D+00  0.195948D+00 -0.307060D+00
     10   0.000000D+00  0.000000D+00  0.000000D+00  0.000000D+00  0.000000D+00
     11   0.000000D+00  0.995505D-01  0.000000D+00  0.000000D+00  0.000000D+00
     12   0.000000D+00 -0.202247D+00  0.000000D+00  0.000000D+00  0.000000D+00
     13   0.000000D+00  0.710674D+00  0.000000D+00  0.000000D+00  0.000000D+00
     14   0.000000D+00  0.000000D+00  0.000000D+00  0.000000D+00  0.000000D+00
     15   0.000000D+00  0.000000D+00  0.213347D+00  0.430624D+00 -0.252451D+00
     16  -0.706023D-01  0.000000D+00  0.000000D+00  0.000000D+00  0.000000D+00
               731           732           733           734           735 
      1  -0.149379D+03 -0.149353D+03 -0.149337D+03 -0.149330D+03 -0.149297D+03
      2   0.000000D+00  0.000000D+00  0.000000D+00  0.800856D-01  0.000000D+00
      3   0.000000D+00  0.000000D+00  0.000000D+00  0.000000D+00 -0.157560D+00
      4   0.000000D+00 -0.136218D+00 -0.278730D+00  0.000000D+00  0.000000D+00
      5   0.000000D+00  0.000000D+00  0.000000D+00 -0.266467D+00  0.000000D+00
      6   0.000000D+00  0.000000D+00  0.000000D+00  0.000000D+00  0.565331D+00
      7   0.000000D+00  0.503828D+00  0.102573D+01  0.000000D+00  0.000000D+00
      8   0.000000D+00  0.000000D+00  0.000000D+00  0.000000D+00 -0.112819D+01
      9   0.000000D+00  0.000000D+00  0.000000D+00 -0.508653D+00  0.000000D+00
     10  -0.167847D+00  0.000000D+00  0.000000D+00  0.000000D+00  0.000000D+00
     11   0.000000D+00  0.150358D+00 -0.238896D+00  0.000000D+00  0.000000D+00
     12   0.000000D+00 -0.290968D+00  0.801571D-01  0.000000D+00  0.000000D+00
     13   0.000000D+00  0.151929D+01  0.278747D+01  0.000000D+00  0.000000D+00
     14   0.311942D+00  0.000000D+00  0.000000D+00  0.000000D+00  0.000000D+00
     15   0.000000D+00  0.000000D+00  0.000000D+00 -0.666917D+00  0.000000D+00
     16   0.000000D+00  0.000000D+00  0.000000D+00  0.000000D+00  0.109915D+01
               736           737           738           739           740 
      1  -0.149270D+03 -0.149258D+03 -0.149245D+03 -0.149204D+03 -0.149174D+03
      2   0.000000D+00  0.000000D+00  0.000000D+00  0.000000D+00  0.000000D+00
      3   0.000000D+00  0.000000D+00  0.000000D+00  0.358128D-01  0.000000D+00
      4  -0.759068D-01  0.000000D+00  0.000000D+00  0.000000D+00  0.168109D-01
      5   0.000000D+00  0.000000D+00  0.000000D+00  0.000000D+00  0.000000D+00
      6   0.000000D+00  0.000000D+00  0.000000D+00 -0.100109D+00  0.000000D+00
      7   0.266192D+00  0.000000D+00  0.000000D+00  0.000000D+00 -0.328155D-01
      8   0.000000D+00  0.000000D+00  0.000000D+00  0.284512D+00  0.000000D+00
      9   0.000000D+00  0.000000D+00  0.000000D+00  0.000000D+00  0.000000D+00
     10   0.000000D+00  0.141601D+00  0.816155D-01  0.000000D+00  0.000000D+00
     11  -0.214604D+00  0.000000D+00  0.000000D+00  0.000000D+00 -0.142021D+00
     12   0.667679D-01  0.000000D+00  0.000000D+00  0.000000D+00  0.300317D+00
     13   0.667077D+00  0.000000D+00  0.000000D+00  0.000000D+00  0.101248D+01
     14   0.000000D+00 -0.129096D+00 -0.424454D+00  0.000000D+00  0.000000D+00
     15   0.000000D+00  0.000000D+00  0.000000D+00  0.000000D+00  0.000000D+00
     16   0.000000D+00  0.000000D+00  0.000000D+00  0.421862D+00  0.000000D+00
               741           742           743           744           745 
      1  -0.149150D+03 -0.149126D+03 -0.149118D+03 -0.149094D+03 -0.148989D+03
      2   0.000000D+00  0.382708D-01  0.000000D+00  0.000000D+00  0.000000D+00
      3   0.636001D-01  0.000000D+00  0.000000D+00 -0.454845D-02  0.000000D+00
      4   0.000000D+00  0.000000D+00 -0.799301D-02  0.000000D+00  0.000000D+00
      5   0.000000D+00 -0.146662D+00  0.000000D+00  0.000000D+00  0.000000D+00
      6  -0.220351D+00  0.000000D+00  0.000000D+00 -0.171342D-02  0.000000D+00
      7   0.000000D+00  0.000000D+00  0.120046D+00  0.000000D+00  0.000000D+00
      8   0.144570D+00  0.000000D+00  0.000000D+00  0.742498D-01  0.000000D+00
      9   0.000000D+00 -0.508242D+00  0.000000D+00  0.000000D+00  0.000000D+00
     10   0.000000D+00  0.000000D+00  0.000000D+00  0.000000D+00  0.296619D+00
     11   0.000000D+00  0.000000D+00 -0.242344D-01  0.000000D+00  0.000000D+00
     12   0.000000D+00  0.000000D+00 -0.923525D-01  0.000000D+00  0.000000D+00
     13   0.000000D+00  0.000000D+00  0.126200D+01  0.000000D+00  0.000000D+00
     14   0.000000D+00  0.000000D+00  0.000000D+00  0.000000D+00 -0.221627D+00
     15   0.000000D+00 -0.350497D+00  0.000000D+00  0.000000D+00  0.000000D+00
     16  -0.118974D+00  0.000000D+00  0.000000D+00  0.646455D+00  0.000000D+00
               746           747 
      1  -0.148820D+03 -0.148742D+03
      2   0.000000D+00  0.000000D+00
      3   0.000000D+00  0.397525D-01
      4   0.264156D-01  0.000000D+00
      5   0.000000D+00  0.000000D+00
      6   0.000000D+00 -0.202168D+00
      7  -0.188553D+00  0.000000D+00
      8   0.000000D+00  0.310414D+00
      9   0.000000D+00  0.000000D+00
     10   0.000000D+00  0.000000D+00
     11  -0.107533D+00  0.000000D+00
     12  -0.708521D-01  0.000000D+00
     13  -0.692027D+00  0.000000D+00
     14   0.000000D+00  0.000000D+00
     15   0.000000D+00  0.000000D+00
     16   0.000000D+00 -0.229046D+00
 Unable to Open any file for archive entry.
 1\1\GINC-HEL10\SP\RLC-BLYP TD-FC\Gen\C2H4O1\SABYASACHI\21-Mar-2022\0\\
 #P TD(Nstates=10000) lc-blyp/Gen SCF(maxcycles=100) Int(Grid=ultrafine
 )\\xGDB7_00001_tier4.com\\0,1\C,0,0.,0.729549,-0.367364\C,0,0.,-0.7295
 49,-0.367364\O,0,0.,0.,0.845033\H,0,-0.918945,1.264243,-0.587975\H,0,0
 .918945,1.264243,-0.587975\H,0,0.918945,-1.264243,-0.587975\H,0,-0.918
 945,-1.264243,-0.587975\\Version=EM64L-G16RevC.01\State=1-A1\HF=-153.2
 95055\RMSD=7.192e-09\PG=C02V [C2(O1),SGV(C2),X(H4)]\\@
 The archive entry for this job was punched.


 I DON'T EXACTLY UNDERSTAND WHAT YOU ARE SAYING,
 BUT YOU ARE ABSOLUTELY RIGHT.
     M.S.GORDON, IN A NDSU FACULTY MEETING
 Job cpu time:       0 days  0 hours  3 minutes 41.6 seconds.
 Elapsed time:       0 days  0 hours  0 minutes 28.0 seconds.
 File lengths (MBytes):  RWF=    719 Int=      0 D2E=      0 Chk=    165 Scr=      1
 Normal termination of Gaussian 16 at Mon Mar 21 20:20:01 2022.
