 Entering Gaussian System, Link 0=g16
 Input=000030.com
 Output=000030.log
 Initial command:
 /home/sabyasachi/g16/l1.exe "/scratch/sabyasachi/PBS_7976230.helios/Gau-32515.inp" -scrdir="/scratch/sabyasachi/PBS_7976230.helios/"
 Entering Link 1 = /home/sabyasachi/g16/l1.exe PID=     32516.
  
 Copyright (c) 1988-2019, Gaussian, Inc.  All Rights Reserved.
  
 This is part of the Gaussian(R) 16 program.  It is based on
 the Gaussian(R) 09 system (copyright 2009, Gaussian, Inc.),
 the Gaussian(R) 03 system (copyright 2003, Gaussian, Inc.),
 the Gaussian(R) 98 system (copyright 1998, Gaussian, Inc.),
 the Gaussian(R) 94 system (copyright 1995, Gaussian, Inc.),
 the Gaussian 92(TM) system (copyright 1992, Gaussian, Inc.),
 the Gaussian 90(TM) system (copyright 1990, Gaussian, Inc.),
 the Gaussian 88(TM) system (copyright 1988, Gaussian, Inc.),
 the Gaussian 86(TM) system (copyright 1986, Carnegie Mellon
 University), and the Gaussian 82(TM) system (copyright 1983,
 Carnegie Mellon University). Gaussian is a federally registered
 trademark of Gaussian, Inc.
  
 This software contains proprietary and confidential information,
 including trade secrets, belonging to Gaussian, Inc.
  
 This software is provided under written license and may be
 used, copied, transmitted, or stored only in accord with that
 written license.
  
 The following legend is applicable only to US Government
 contracts under FAR:
  
                    RESTRICTED RIGHTS LEGEND
  
 Use, reproduction and disclosure by the US Government is
 subject to restrictions as set forth in subparagraphs (a)
 and (c) of the Commercial Computer Software - Restricted
 Rights clause in FAR 52.227-19.
  
 Gaussian, Inc.
 340 Quinnipiac St., Bldg. 40, Wallingford CT 06492
  
  
 ---------------------------------------------------------------
 Warning -- This program may not be used in any manner that
 competes with the business of Gaussian, Inc. or will provide
 assistance to any competitor of Gaussian, Inc.  The licensee
 of this program is prohibited from giving any competitor of
 Gaussian, Inc. access to this program.  By using this program,
 the user acknowledges that Gaussian, Inc. is engaged in the
 business of creating and licensing software in the field of
 computational chemistry and represents and warrants to the
 licensee that it is not a competitor of Gaussian, Inc. and that
 it will not use this program in any manner prohibited above.
 ---------------------------------------------------------------
  

 Cite this work as:
 Gaussian 16, Revision C.01,
 M. J. Frisch, G. W. Trucks, H. B. Schlegel, G. E. Scuseria, 
 M. A. Robb, J. R. Cheeseman, G. Scalmani, V. Barone, 
 G. A. Petersson, H. Nakatsuji, X. Li, M. Caricato, A. V. Marenich, 
 J. Bloino, B. G. Janesko, R. Gomperts, B. Mennucci, H. P. Hratchian, 
 J. V. Ortiz, A. F. Izmaylov, J. L. Sonnenberg, D. Williams-Young, 
 F. Ding, F. Lipparini, F. Egidi, J. Goings, B. Peng, A. Petrone, 
 T. Henderson, D. Ranasinghe, V. G. Zakrzewski, J. Gao, N. Rega, 
 G. Zheng, W. Liang, M. Hada, M. Ehara, K. Toyota, R. Fukuda, 
 J. Hasegawa, M. Ishida, T. Nakajima, Y. Honda, O. Kitao, H. Nakai, 
 T. Vreven, K. Throssell, J. A. Montgomery, Jr., J. E. Peralta, 
 F. Ogliaro, M. J. Bearpark, J. J. Heyd, E. N. Brothers, K. N. Kudin, 
 V. N. Staroverov, T. A. Keith, R. Kobayashi, J. Normand, 
 K. Raghavachari, A. P. Rendell, J. C. Burant, S. S. Iyengar, 
 J. Tomasi, M. Cossi, J. M. Millam, M. Klene, C. Adamo, R. Cammi, 
 J. W. Ochterski, R. L. Martin, K. Morokuma, O. Farkas, 
 J. B. Foresman, and D. J. Fox, Gaussian, Inc., Wallingford CT, 2019.
 
 ******************************************
 Gaussian 16:  EM64L-G16RevC.01  3-Jul-2019
                21-Mar-2022 
 ******************************************
 %mem=64gb
 %nproc=8
 Will use up to    8 processors via shared memory.
 ----------------------------------------------------------------------
 #P TD(Nstates=10000) lc-blyp/Gen SCF(maxcycles=100) Int(Grid=ultrafine
 )
 ----------------------------------------------------------------------
 1/38=1,172=1/1;
 2/12=2,17=6,18=5,40=1/2;
 3/5=7,11=9,25=1,30=1,74=1000402,75=-5/1,2,3,8;
 4//1;
 5/5=2,7=100,38=5/2;
 8/6=1,10=1,108=10000/1;
 9/41=10000,42=1,70=2/14;
 6/7=2,8=2,9=2,10=2/1;
 99/5=1,9=1/99;
 Leave Link    1 at Mon Mar 21 20:16:12 2022, MaxMem=  8589934592 cpu:               0.4 elap:               0.1
 (Enter /home/sabyasachi/g16/l101.exe)
 ---------------------
 xGDB7_00001_tier4.com
 ---------------------
 Symbolic Z-matrix:
 Charge =  0 Multiplicity = 1
 6                     1.23667   0.        0. 
 6                    -0.21874  -0.00001  -0.00001 
 6                    -1.41578   0.       0. 
 1                     1.62205   0.97904   0.28809 
 1                     1.62207  -0.24002  -0.9919 
 1                     1.62204  -0.73902   0.70382 
 1                    -2.47906  -0.00001   0.00001 
 
 ITRead=  0  0  0  0  0  0  0
 MicOpt= -1 -1 -1 -1 -1 -1 -1
 NAtoms=      7 NQM=        7 NQMF=       0 NMMI=      0 NMMIF=      0
                NMic=       0 NMicF=      0.
                    Isotopes and Nuclear Properties:
 (Nuclear quadrupole moments (NQMom) in fm**2, nuclear magnetic moments (NMagM)
  in nuclear magnetons)

  Atom         1           2           3           4           5           6           7
 IAtWgt=          12          12          12           1           1           1           1
 AtmWgt=  12.0000000  12.0000000  12.0000000   1.0078250   1.0078250   1.0078250   1.0078250
 NucSpn=           0           0           0           1           1           1           1
 AtZEff=  -0.0000000  -0.0000000  -0.0000000  -0.0000000  -0.0000000  -0.0000000  -0.0000000
 NQMom=    0.0000000   0.0000000   0.0000000   0.0000000   0.0000000   0.0000000   0.0000000
 NMagM=    0.0000000   0.0000000   0.0000000   2.7928460   2.7928460   2.7928460   2.7928460
 AtZNuc=   6.0000000   6.0000000   6.0000000   1.0000000   1.0000000   1.0000000   1.0000000
 Leave Link  101 at Mon Mar 21 20:16:12 2022, MaxMem=  8589934592 cpu:               0.6 elap:               0.1
 (Enter /home/sabyasachi/g16/l202.exe)
                          Input orientation:                          
 ---------------------------------------------------------------------
 Center     Atomic      Atomic             Coordinates (Angstroms)
 Number     Number       Type             X           Y           Z
 ---------------------------------------------------------------------
      1          6           0        1.236673    0.000003    0.000003
      2          6           0       -0.218742   -0.000006   -0.000005
      3          6           0       -1.415780    0.000004   -0.000001
      4          1           0        1.622045    0.979039    0.288094
      5          1           0        1.622070   -0.240023   -0.991898
      6          1           0        1.622037   -0.739019    0.703815
      7          1           0       -2.479058   -0.000005    0.000008
 ---------------------------------------------------------------------
                    Distance matrix (angstroms):
                    1          2          3          4          5
     1  C    0.000000
     2  C    1.455415   0.000000
     3  C    2.652453   1.197038   0.000000
     4  H    1.090880   2.104763   3.204667   0.000000
     5  H    1.090876   2.104768   3.204685   1.767623   0.000000
     6  H    1.090876   2.104749   3.204660   1.767639   1.767608
     7  H    3.715731   2.260316   1.063278   4.226176   4.226197
                    6          7
     6  H    0.000000
     7  H    4.226164   0.000000
 This structure is nearly, but not quite of a higher symmetry.
 Consider Symm=Loose if the higher symmetry is desired.
 Stoichiometry    C3H4
 Framework group  C1[X(C3H4)]
 Deg. of freedom    15
 Full point group                 C1      NOp   1
 Largest Abelian subgroup         C1      NOp   1
 Largest concise Abelian subgroup C1      NOp   1
                         Standard orientation:                         
 ---------------------------------------------------------------------
 Center     Atomic      Atomic             Coordinates (Angstroms)
 Number     Number       Type             X           Y           Z
 ---------------------------------------------------------------------
      1          6           0        0.000284   -0.018657   -1.236532
      2          6           0       -0.000055    0.003295    0.218717
      3          6           0       -0.000323    0.021367    1.415619
      4          1           0        0.273656    0.958689   -1.636635
      5          1           0       -0.987794   -0.279414   -1.618263
      6          1           0        0.715256   -0.752703   -1.610700
      7          1           0       -0.000556    0.037402    2.478776
 ---------------------------------------------------------------------
 Rotational constants (GHZ):         160.4916800           8.6297027           8.6296934
 Leave Link  202 at Mon Mar 21 20:16:12 2022, MaxMem=  8589934592 cpu:               0.1 elap:               0.0
 (Enter /home/sabyasachi/g16/l301.exe)
 General basis read from cards:  (5D, 7F)
 Centers:       4      5      6      7
 S 3 1.00
     Exponent=  1.3010701000D+01 Coefficients=  1.9682158000D-02
     Exponent=  1.9622572000D+00 Coefficients=  1.3796524000D-01
     Exponent=  4.4453796000D-01 Coefficients=  4.7831935000D-01
 S 1 1.00
     Exponent=  1.2194962000D-01 Coefficients=  1.0000000000D+00
 P 1 1.00
     Exponent=  8.0000000000D-01 Coefficients=  1.0000000000D+00
 P 1 1.00
     Exponent=  1.1704099050D-01 Coefficients=  1.0000000000D+00
 ****
 Centers:       1      2      3
 S 5 1.00
     Exponent=  1.2384016938D+03 Coefficients=  5.4568832082D-03
     Exponent=  1.8629004992D+02 Coefficients=  4.0638409211D-02
     Exponent=  4.2251176346D+01 Coefficients=  1.8025593888D-01
     Exponent=  1.1676557932D+01 Coefficients=  4.6315121755D-01
     Exponent=  3.5930506482D+00 Coefficients=  4.4087173314D-01
 S 1 1.00
     Exponent=  4.0245147363D-01 Coefficients=  1.0000000000D+00
 S 1 1.00
     Exponent=  1.3090182668D-01 Coefficients=  1.0000000000D+00
 S 1 1.00
     Exponent=  6.7053540256D-02 Coefficients=  1.0000000000D+00
 P 3 1.00
     Exponent=  9.4680970621D+00 Coefficients=  3.8387871728D-02
     Exponent=  2.0103545142D+00 Coefficients=  2.1117025112D-01
     Exponent=  5.4771004707D-01 Coefficients=  5.1328172114D-01
 P 1 1.00
     Exponent=  1.5268613795D-01 Coefficients=  1.0000000000D+00
 D 1 1.00
     Exponent=  8.0000000000D-01 Coefficients=  1.0000000000D+00
 D 1 1.00
     Exponent=  1.1713185140D-01 Coefficients=  1.0000000000D+00
 ****
 Ernie: Thresh=  0.10000D-02 Tol=  0.10000D-05 Strict=F.
 There are    98 symmetry adapted cartesian basis functions of A   symmetry.
 There are    92 symmetry adapted basis functions of A   symmetry.
    92 basis functions,   136 primitive gaussians,    98 cartesian basis functions
    11 alpha electrons       11 beta electrons
       nuclear repulsion energy        58.9346497608 Hartrees.
 IExCor=10402 DFT=T Ex=LC-B+HF Corr=LYP ExCW=0 ScaHFX=  1.000000
 ScaDFX=  1.000000  1.000000  1.000000  1.000000 ScalE2=  1.000000  1.000000
 IRadAn=      5 IRanWt=     -1 IRanGd=            0 ICorTp=0 IEmpDi=  4
 HFx  wShort=  0.000000 wLong=  0.470000 cFull=  0.000000 cShort=  0.000000 cLong=  1.000000
 DFx  wShort=  0.000000 wLong=  0.470000 cFull=  0.000000 cShort=  0.000000 cLong=  1.000000
 NAtoms=    7 NActive=    7 NUniq=    7 SFac= 1.00D+00 NAtFMM=   60 NAOKFM=F Big=F
 Integral buffers will be    131072 words long.
 Raffenetti 1 integral format.
 Two-electron integral symmetry is turned on.
 Leave Link  301 at Mon Mar 21 20:16:12 2022, MaxMem=  8589934592 cpu:               0.5 elap:               0.1
 (Enter /home/sabyasachi/g16/l302.exe)
 NPDir=0 NMtPBC=     1 NCelOv=     1 NCel=       1 NClECP=     1 NCelD=      1
         NCelK=      1 NCelE2=     1 NClLst=     1 CellRange=     0.0.
 One-electron integrals computed using PRISM.
 One-electron integral symmetry used in STVInt
 NBasis=    92 RedAO= T EigKep=  3.60D-05  NBF=    92
 NBsUse=    92 1.00D-06 EigRej= -1.00D+00 NBFU=    92
 Precomputing XC quadrature grid using
 IXCGrd= 4 IRadAn=           5 IRanWt=          -1 IRanGd=           0 AccXCQ= 0.00D+00.
 Generated NRdTot=       0 NPtTot=           0 NUsed=           0 NTot=          32
 NSgBfM=    98    98    98    98    98 MxSgAt=     7 MxSgA2=     7.
 Leave Link  302 at Mon Mar 21 20:16:12 2022, MaxMem=  8589934592 cpu:               0.9 elap:               0.1
 (Enter /home/sabyasachi/g16/l303.exe)
 DipDrv:  MaxL=1.
 Leave Link  303 at Mon Mar 21 20:16:12 2022, MaxMem=  8589934592 cpu:               0.2 elap:               0.0
 (Enter /home/sabyasachi/g16/l308.exe)
 Leave Link  308 at Mon Mar 21 20:16:12 2022, MaxMem=  8589934592 cpu:               0.2 elap:               0.1
 (Enter /home/sabyasachi/g16/l401.exe)
 ExpMin= 6.71D-02 ExpMax= 1.24D+03 ExpMxC= 1.86D+02 IAcc=3 IRadAn=         5 AccDes= 0.00D+00
 Harris functional with IExCor=10402 and IRadAn=       5 diagonalized for initial guess.
 HarFok:  IExCor=10402 AccDes= 0.00D+00 IRadAn=         5 IDoV= 1 UseB2=F ITyADJ=14
 ICtDFT=  3500011 ScaDFX=  1.000000  1.000000  1.000000  1.000000
 FoFCou: FMM=F IPFlag=           0 FMFlag=      100000 FMFlg1=           0
         NFxFlg=           0 DoJE=T BraDBF=F KetDBF=T FulRan=T
         wScrn=  0.000000 ICntrl=       500 IOpCl=  0 I1Cent=   200000004 NGrid=           0
         NMat0=    1 NMatS0=      1 NMatT0=    0 NMatD0=    1 NMtDS0=    0 NMtDT0=    0
 Petite list used in FoFCou.
 Harris En= -111.387311604134    
 JPrj=0 DoOrth=F DoCkMO=F.
 Leave Link  401 at Mon Mar 21 20:16:13 2022, MaxMem=  8589934592 cpu:               2.6 elap:               0.3
 (Enter /home/sabyasachi/g16/l502.exe)
 Keep R1 ints in memory in canonical form, NReq=26088990.
 FoFCou: FMM=F IPFlag=           0 FMFlag=           0 FMFlg1=           0
         NFxFlg=           0 DoJE=F BraDBF=F KetDBF=F FulRan=T
         wScrn=  0.000000 ICntrl=       600 IOpCl=  0 I1Cent=           0 NGrid=           0
         NMat0=    1 NMatS0=   4278 NMatT0=    0 NMatD0=    1 NMtDS0=    0 NMtDT0=    0
 Symmetry not used in FoFCou.
 Two-electron integral symmetry not used.
 Closed shell SCF:
 Using DIIS extrapolation, IDIIS=  1040.
 NGot=  8589934592 LenX=  8571607774 LenY=  8571597729
 Requested convergence on RMS density matrix=1.00D-08 within 100 cycles.
 Requested convergence on MAX density matrix=1.00D-06.
 Requested convergence on             energy=1.00D-06.
 No special actions if energy rises.
 Integral accuracy reduced to 1.0D-05 until final iterations.

 Cycle   1  Pass 0  IDiag  1:
 E= -116.148768724611    
 DIIS: error= 2.56D-02 at cycle   1 NSaved=   1.
 NSaved= 1 IEnMin= 1 EnMin= -116.148768724611     IErMin= 1 ErrMin= 2.56D-02
 ErrMax= 2.56D-02  0.00D+00 EMaxC= 1.00D-01 BMatC= 4.40D-02 BMatP= 4.40D-02
 IDIUse=3 WtCom= 7.44D-01 WtEn= 2.56D-01
 Coeff-Com:  0.100D+01
 Coeff-En:   0.100D+01
 Coeff:      0.100D+01
 Gap=     0.417 Goal=   None    Shift=    0.000
 GapD=    0.417 DampG=2.000 DampE=0.500 DampFc=1.0000 IDamp=-1.
 RMSDP=2.11D-02 MaxDP=6.42D-01              OVMax= 6.26D-02

 Cycle   2  Pass 0  IDiag  1:
 E= -116.184491520210     Delta-E=       -0.035722795599 Rises=F Damp=F
 DIIS: error= 9.87D-03 at cycle   2 NSaved=   2.
 NSaved= 2 IEnMin= 2 EnMin= -116.184491520210     IErMin= 2 ErrMin= 9.87D-03
 ErrMax= 9.87D-03  0.00D+00 EMaxC= 1.00D-01 BMatC= 1.01D-02 BMatP= 4.40D-02
 IDIUse=3 WtCom= 9.01D-01 WtEn= 9.87D-02
 Coeff-Com:  0.314D+00 0.686D+00
 Coeff-En:   0.000D+00 0.100D+01
 Coeff:      0.283D+00 0.717D+00
 Gap=     0.478 Goal=   None    Shift=    0.000
 RMSDP=4.09D-03 MaxDP=1.47D-01 DE=-3.57D-02 OVMax= 2.95D-02

 Cycle   3  Pass 0  IDiag  1:
 E= -116.194812290403     Delta-E=       -0.010320770193 Rises=F Damp=F
 DIIS: error= 1.34D-03 at cycle   3 NSaved=   3.
 NSaved= 3 IEnMin= 3 EnMin= -116.194812290403     IErMin= 3 ErrMin= 1.34D-03
 ErrMax= 1.34D-03  0.00D+00 EMaxC= 1.00D-01 BMatC= 1.92D-04 BMatP= 1.01D-02
 IDIUse=3 WtCom= 9.87D-01 WtEn= 1.34D-02
 Coeff-Com: -0.421D-02 0.864D-01 0.918D+00
 Coeff-En:   0.000D+00 0.000D+00 0.100D+01
 Coeff:     -0.416D-02 0.852D-01 0.919D+00
 Gap=     0.474 Goal=   None    Shift=    0.000
 RMSDP=1.03D-03 MaxDP=2.80D-02 DE=-1.03D-02 OVMax= 6.63D-03

 Cycle   4  Pass 0  IDiag  1:
 E= -116.195026550040     Delta-E=       -0.000214259637 Rises=F Damp=F
 DIIS: error= 9.36D-04 at cycle   4 NSaved=   4.
 NSaved= 4 IEnMin= 4 EnMin= -116.195026550040     IErMin= 4 ErrMin= 9.36D-04
 ErrMax= 9.36D-04  0.00D+00 EMaxC= 1.00D-01 BMatC= 5.48D-05 BMatP= 1.92D-04
 IDIUse=3 WtCom= 9.91D-01 WtEn= 9.36D-03
 Coeff-Com: -0.261D-01-0.166D-01 0.406D+00 0.637D+00
 Coeff-En:   0.000D+00 0.000D+00 0.000D+00 0.100D+01
 Coeff:     -0.259D-01-0.165D-01 0.402D+00 0.640D+00
 Gap=     0.473 Goal=   None    Shift=    0.000
 RMSDP=3.66D-04 MaxDP=1.34D-02 DE=-2.14D-04 OVMax= 2.40D-03

 Cycle   5  Pass 0  IDiag  1:
 E= -116.195079161258     Delta-E=       -0.000052611218 Rises=F Damp=F
 DIIS: error= 2.02D-04 at cycle   5 NSaved=   5.
 NSaved= 5 IEnMin= 5 EnMin= -116.195079161258     IErMin= 5 ErrMin= 2.02D-04
 ErrMax= 2.02D-04  0.00D+00 EMaxC= 1.00D-01 BMatC= 3.53D-06 BMatP= 5.48D-05
 IDIUse=3 WtCom= 9.98D-01 WtEn= 2.02D-03
 Coeff-Com: -0.691D-02-0.182D-01-0.239D-01 0.188D+00 0.861D+00
 Coeff-En:   0.000D+00 0.000D+00 0.000D+00 0.000D+00 0.100D+01
 Coeff:     -0.690D-02-0.182D-01-0.238D-01 0.188D+00 0.861D+00
 Gap=     0.473 Goal=   None    Shift=    0.000
 RMSDP=1.02D-04 MaxDP=2.59D-03 DE=-5.26D-05 OVMax= 9.06D-04

 Cycle   6  Pass 0  IDiag  1:
 E= -116.195083961219     Delta-E=       -0.000004799961 Rises=F Damp=F
 DIIS: error= 4.18D-05 at cycle   6 NSaved=   6.
 NSaved= 6 IEnMin= 6 EnMin= -116.195083961219     IErMin= 6 ErrMin= 4.18D-05
 ErrMax= 4.18D-05  0.00D+00 EMaxC= 1.00D-01 BMatC= 1.64D-07 BMatP= 3.53D-06
 IDIUse=1 WtCom= 1.00D+00 WtEn= 0.00D+00
 Coeff-Com: -0.230D-03-0.330D-02-0.245D-01 0.528D-02 0.203D+00 0.819D+00
 Coeff:     -0.230D-03-0.330D-02-0.245D-01 0.528D-02 0.203D+00 0.819D+00
 Gap=     0.474 Goal=   None    Shift=    0.000
 RMSDP=1.18D-05 MaxDP=2.31D-04 DE=-4.80D-06 OVMax= 1.44D-04

 Cycle   7  Pass 0  IDiag  1:
 E= -116.195084176722     Delta-E=       -0.000000215503 Rises=F Damp=F
 DIIS: error= 1.36D-05 at cycle   7 NSaved=   7.
 NSaved= 7 IEnMin= 7 EnMin= -116.195084176722     IErMin= 7 ErrMin= 1.36D-05
 ErrMax= 1.36D-05  0.00D+00 EMaxC= 1.00D-01 BMatC= 1.05D-08 BMatP= 1.64D-07
 IDIUse=1 WtCom= 1.00D+00 WtEn= 0.00D+00
 Coeff-Com:  0.518D-03 0.933D-03-0.804D-03-0.178D-01-0.457D-01 0.134D+00
 Coeff-Com:  0.929D+00
 Coeff:      0.518D-03 0.933D-03-0.804D-03-0.178D-01-0.457D-01 0.134D+00
 Coeff:      0.929D+00
 Gap=     0.474 Goal=   None    Shift=    0.000
 RMSDP=4.78D-06 MaxDP=2.10D-04 DE=-2.16D-07 OVMax= 4.09D-05

 Initial convergence to 1.0D-05 achieved.  Increase integral accuracy.
 Cycle   8  Pass 1  IDiag  1:
 E= -116.195082952979     Delta-E=        0.000001223743 Rises=F Damp=F
 DIIS: error= 1.48D-06 at cycle   1 NSaved=   1.
 NSaved= 1 IEnMin= 1 EnMin= -116.195082952979     IErMin= 1 ErrMin= 1.48D-06
 ErrMax= 1.48D-06  0.00D+00 EMaxC= 1.00D-01 BMatC= 2.61D-10 BMatP= 2.61D-10
 IDIUse=1 WtCom= 1.00D+00 WtEn= 0.00D+00
 Coeff-Com:  0.100D+01
 Coeff:      0.100D+01
 Gap=     0.474 Goal=   None    Shift=    0.000
 RMSDP=4.78D-06 MaxDP=2.10D-04 DE= 1.22D-06 OVMax= 1.01D-05

 Cycle   9  Pass 1  IDiag  1:
 E= -116.195082953437     Delta-E=       -0.000000000457 Rises=F Damp=F
 DIIS: error= 1.02D-06 at cycle   2 NSaved=   2.
 NSaved= 2 IEnMin= 2 EnMin= -116.195082953437     IErMin= 2 ErrMin= 1.02D-06
 ErrMax= 1.02D-06  0.00D+00 EMaxC= 1.00D-01 BMatC= 7.52D-11 BMatP= 2.61D-10
 IDIUse=1 WtCom= 1.00D+00 WtEn= 0.00D+00
 Coeff-Com:  0.264D+00 0.736D+00
 Coeff:      0.264D+00 0.736D+00
 Gap=     0.474 Goal=   None    Shift=    0.000
 RMSDP=6.06D-07 MaxDP=2.24D-05 DE=-4.57D-10 OVMax= 5.11D-06

 Cycle  10  Pass 1  IDiag  1:
 E= -116.195082953511     Delta-E=       -0.000000000074 Rises=F Damp=F
 DIIS: error= 7.00D-07 at cycle   3 NSaved=   3.
 NSaved= 3 IEnMin= 3 EnMin= -116.195082953511     IErMin= 3 ErrMin= 7.00D-07
 ErrMax= 7.00D-07  0.00D+00 EMaxC= 1.00D-01 BMatC= 2.92D-11 BMatP= 7.52D-11
 IDIUse=1 WtCom= 1.00D+00 WtEn= 0.00D+00
 Coeff-Com: -0.137D+00 0.343D+00 0.794D+00
 Coeff:     -0.137D+00 0.343D+00 0.794D+00
 Gap=     0.474 Goal=   None    Shift=    0.000
 RMSDP=2.96D-07 MaxDP=4.99D-06 DE=-7.40D-11 OVMax= 1.89D-06

 Cycle  11  Pass 1  IDiag  1:
 E= -116.195082953544     Delta-E=       -0.000000000033 Rises=F Damp=F
 DIIS: error= 9.18D-08 at cycle   4 NSaved=   4.
 NSaved= 4 IEnMin= 4 EnMin= -116.195082953544     IErMin= 4 ErrMin= 9.18D-08
 ErrMax= 9.18D-08  0.00D+00 EMaxC= 1.00D-01 BMatC= 5.91D-13 BMatP= 2.92D-11
 IDIUse=1 WtCom= 1.00D+00 WtEn= 0.00D+00
 Coeff-Com: -0.510D-01 0.573D-01 0.194D+00 0.800D+00
 Coeff:     -0.510D-01 0.573D-01 0.194D+00 0.800D+00
 Gap=     0.474 Goal=   None    Shift=    0.000
 RMSDP=3.94D-08 MaxDP=6.62D-07 DE=-3.30D-11 OVMax= 4.77D-07

 Cycle  12  Pass 1  IDiag  1:
 E= -116.195082953544     Delta-E=       -0.000000000000 Rises=F Damp=F
 DIIS: error= 2.90D-08 at cycle   5 NSaved=   5.
 NSaved= 5 IEnMin= 5 EnMin= -116.195082953544     IErMin= 5 ErrMin= 2.90D-08
 ErrMax= 2.90D-08  0.00D+00 EMaxC= 1.00D-01 BMatC= 4.00D-14 BMatP= 5.91D-13
 IDIUse=1 WtCom= 1.00D+00 WtEn= 0.00D+00
 Coeff-Com:  0.894D-02-0.214D-01-0.665D-01 0.137D-01 0.107D+01
 Coeff:      0.894D-02-0.214D-01-0.665D-01 0.137D-01 0.107D+01
 Gap=     0.474 Goal=   None    Shift=    0.000
 RMSDP=2.66D-08 MaxDP=4.79D-07 DE=-1.71D-13 OVMax= 1.49D-07

 Cycle  13  Pass 1  IDiag  1:
 E= -116.195082953544     Delta-E=       -0.000000000000 Rises=F Damp=F
 DIIS: error= 3.85D-09 at cycle   6 NSaved=   6.
 NSaved= 6 IEnMin= 6 EnMin= -116.195082953544     IErMin= 6 ErrMin= 3.85D-09
 ErrMax= 3.85D-09  0.00D+00 EMaxC= 1.00D-01 BMatC= 1.72D-15 BMatP= 4.00D-14
 IDIUse=1 WtCom= 1.00D+00 WtEn= 0.00D+00
 Coeff-Com:  0.353D-02-0.418D-02-0.161D-01-0.370D-01 0.855D-01 0.968D+00
 Coeff:      0.353D-02-0.418D-02-0.161D-01-0.370D-01 0.855D-01 0.968D+00
 Gap=     0.474 Goal=   None    Shift=    0.000
 RMSDP=4.30D-09 MaxDP=8.86D-08 DE=-3.41D-13 OVMax= 4.18D-08

 SCF Done:  E(RLC-B+HF-LYP) =  -116.195082954     A.U. after   13 cycles
            NFock= 13  Conv=0.43D-08     -V/T= 2.0110
 KE= 1.149325281330D+02 PE=-3.867015186253D+02 EE= 9.663925777794D+01
 Leave Link  502 at Mon Mar 21 20:16:15 2022, MaxMem=  8589934592 cpu:              17.1 elap:               2.3
 (Enter /home/sabyasachi/g16/l801.exe)
 DoSCS=F DFT=T ScalE2(SS,OS)=  1.000000  1.000000
 ExpMin= 6.71D-02 ExpMax= 1.24D+03 ExpMxC= 1.86D+02 IAcc=3 IRadAn=         5 AccDes= 0.00D+00
 HarFok:  IExCor=  205 AccDes= 0.00D+00 IRadAn=         5 IDoV=-2 UseB2=F ITyADJ=14
 ICtDFT= 12500011 ScaDFX=  1.000000  1.000000  1.000000  1.000000
 Largest valence mixing into a core orbital is  6.32D-05
 Largest core mixing into a valence orbital is  7.99D-06
 Range of M.O.s used for correlation:     4    92
 NBasis=    92 NAE=    11 NBE=    11 NFC=     3 NFV=     0
 NROrb=     89 NOA=     8 NOB=     8 NVA=    81 NVB=    81

 **** Warning!!: The largest alpha MO coefficient is  0.81062389D+02

 Leave Link  801 at Mon Mar 21 20:16:15 2022, MaxMem=  8589934592 cpu:               0.5 elap:               0.1
 (Enter /home/sabyasachi/g16/l914.exe)
 RHF ground state
 Keep R1, R2, and R3 ints in memory in canonical form, NReq=572606750.
 FoFCou: FMM=F IPFlag=           0 FMFlag=           0 FMFlg1=           0
         NFxFlg=           0 DoJE=F BraDBF=F KetDBF=F FulRan=T
         wScrn=  0.000000 ICntrl=       600 IOpCl=  0 I1Cent=           0 NGrid=           0
         NMat0=    1 NMatS0=   4278 NMatT0=    0 NMatD0=    1 NMtDS0=    0 NMtDT0=    0
 Symmetry not used in FoFCou.
 Two-electron integral symmetry not used.
 MDV=  8589934592 DFT=T DoStab=F Mixed=T DoRPA=T DoScal=F NonHer=T
 Making orbital integer symmetry assigments:
 Orbital symmetries:
       Occupied  (A) (A) (A) (A) (A) (A) (A) (A) (A) (A) (A)
       Virtual   (A) (A) (A) (A) (A) (A) (A) (A) (A) (A) (A) (A)
                 (A) (A) (A) (A) (A) (A) (A) (A) (A) (A) (A) (A)
                 (A) (A) (A) (A) (A) (A) (A) (A) (A) (A) (A) (A)
                 (A) (A) (A) (A) (A) (A) (A) (A) (A) (A) (A) (A)
                 (A) (A) (A) (A) (A) (A) (A) (A) (A) (A) (A) (A)
                 (A) (A) (A) (A) (A) (A) (A) (A) (A) (A) (A) (A)
                 (A) (A) (A) (A) (A) (A) (A) (A) (A)
   648 initial guesses have been made.
 Convergence on wavefunction:    0.001000000000000
 Davidson Disk Diagonalization:  ConvIn= 1.00D-03 SkipCon=T Conv= 1.00D-03.
 Max sub-space:  3888 roots to seek:  1296 dimension of matrix:         1296
 *** WARNING: Number of orthogonal guesses is          648
 Iteration     1 Dimension   648 NMult     0 NNew    648
 CISAX will form   648 AO SS matrices at one time.
 NMat=   648 NSing=   648 JSym2X= 0.
 New state      1 was old state      5
 New state      2 was old state      8
 New state      3 was old state      7
 New state      4 was old state      1
 New state      5 was old state      2
 New state      6 was old state      3
 New state      7 was old state      4
 New state      8 was old state      9
 New state      9 was old state     10
 New state     10 was old state      6
 New state     12 was old state     14
 New state     14 was old state     17
 New state     15 was old state     12
 New state     16 was old state     18
 New state     17 was old state     16
 New state     18 was old state     15
 New state     24 was old state     25
 New state     25 was old state     26
 New state     26 was old state     39
 New state     27 was old state     40
 New state     28 was old state     27
 New state     29 was old state     34
 New state     32 was old state     36
 New state     33 was old state     35
 New state     34 was old state     24
 New state     35 was old state     33
 New state     36 was old state     42
 New state     39 was old state     44
 New state     40 was old state     45
 New state     41 was old state     43
 New state     42 was old state     32
 New state     43 was old state     53
 New state     44 was old state     54
 New state     45 was old state     56
 New state     46 was old state     41
 New state     48 was old state     49
 New state     49 was old state     48
 New state     50 was old state     51
 New state     51 was old state     52
 New state     52 was old state     28
 New state     53 was old state     29
 New state     54 was old state     63
 New state     56 was old state     59
 New state     57 was old state     58
 New state     58 was old state     62
 New state     59 was old state     60
 New state     60 was old state     46
 New state     61 was old state     50
 New state     62 was old state     72
 New state     63 was old state     70
 New state     64 was old state     71
 New state     65 was old state     68
 New state     66 was old state     69
 New state     67 was old state     57
 New state     68 was old state     66
 New state     69 was old state     67
 New state     70 was old state     64
 New state     71 was old state     65
 New state     72 was old state     77
 New state     73 was old state     78
 New state     74 was old state     76
 New state     75 was old state     79
 New state     76 was old state     82
 New state     77 was old state     83
 New state     78 was old state     85
 New state     79 was old state     73
 New state     80 was old state     74
 New state     81 was old state     80
 New state     82 was old state     81
 New state     83 was old state     90
 New state     84 was old state     91
 New state     85 was old state    103
 New state     87 was old state     84
 New state     88 was old state     87
 New state     89 was old state     92
 New state     90 was old state     93
 New state     91 was old state     75
 New state     92 was old state     98
 New state     93 was old state     99
 New state     94 was old state     96
 New state     95 was old state     94
 New state     96 was old state     95
 New state     98 was old state    101
 New state     99 was old state    100
 New state    100 was old state    102
 New state    101 was old state    125
 New state    102 was old state    126
 New state    103 was old state    107
 New state    104 was old state    106
 New state    105 was old state    108
 New state    106 was old state    109
 New state    107 was old state     88
 New state    108 was old state     89
 New state    109 was old state    104
 New state    110 was old state    105
 New state    111 was old state    127
 New state    112 was old state    121
 New state    113 was old state    122
 New state    114 was old state    110
 New state    115 was old state    111
 New state    116 was old state    113
 New state    117 was old state    112
 New state    118 was old state    148
 New state    119 was old state    149
 New state    120 was old state    123
 New state    121 was old state    124
 New state    122 was old state    120
 New state    123 was old state    114
 New state    124 was old state    117
 New state    125 was old state    116
 New state    126 was old state    115
 New state    127 was old state    129
 New state    128 was old state    134
 New state    129 was old state    135
 New state    132 was old state    140
 New state    133 was old state    141
 New state    134 was old state    118
 New state    135 was old state    119
 New state    136 was old state    133
 New state    137 was old state    132
 New state    138 was old state    145
 New state    139 was old state    143
 New state    140 was old state    146
 New state    141 was old state    147
 New state    142 was old state    159
 New state    143 was old state    160
 New state    144 was old state    142
 New state    145 was old state    136
 New state    146 was old state    157
 New state    147 was old state    158
 New state    148 was old state    150
 New state    149 was old state    181
 New state    150 was old state    144
 New state    151 was old state    128
 New state    152 was old state    164
 New state    153 was old state    165
 New state    157 was old state    138
 New state    158 was old state    151
 New state    159 was old state    167
 New state    160 was old state    169
 New state    161 was old state    170
 New state    162 was old state    186
 New state    163 was old state    187
 New state    164 was old state    152
 New state    165 was old state    153
 New state    166 was old state    162
 New state    167 was old state    163
 New state    169 was old state    188
 New state    170 was old state    189
 New state    171 was old state    166
 New state    172 was old state    173
 New state    173 was old state    174
 New state    174 was old state    161
 New state    176 was old state    183
 New state    177 was old state    185
 New state    178 was old state    182
 New state    179 was old state    177
 New state    180 was old state    178
 New state    181 was old state    171
 New state    182 was old state    172
 New state    183 was old state    180
 New state    185 was old state    223
 New state    186 was old state    191
 New state    187 was old state    197
 New state    188 was old state    192
 New state    189 was old state    194
 New state    190 was old state    196
 New state    191 was old state    195
 New state    192 was old state    193
 New state    193 was old state    220
 New state    194 was old state    200
 New state    195 was old state    179
 New state    196 was old state    203
 New state    197 was old state    202
 New state    198 was old state    199
 New state    199 was old state    201
 New state    200 was old state    204
 New state    201 was old state    205
 New state    202 was old state    221
 New state    203 was old state    208
 New state    204 was old state    206
 New state    205 was old state    207
 New state    206 was old state    215
 New state    207 was old state    222
 New state    208 was old state    209
 New state    209 was old state    198
 New state    210 was old state    216
 New state    211 was old state    190
 New state    212 was old state    227
 New state    213 was old state    210
 New state    214 was old state    213
 New state    215 was old state    217
 New state    216 was old state    214
 New state    217 was old state    224
 New state    218 was old state    225
 New state    219 was old state    226
 New state    220 was old state    243
 New state    221 was old state    219
 New state    222 was old state    230
 New state    223 was old state    229
 New state    224 was old state    240
 New state    225 was old state    218
 New state    226 was old state    212
 New state    227 was old state    211
 New state    228 was old state    233
 New state    229 was old state    232
 New state    230 was old state    236
 New state    231 was old state    235
 New state    232 was old state    231
 New state    233 was old state    234
 New state    234 was old state    242
 New state    235 was old state    244
 New state    236 was old state    241
 No map to state    237
 New state    238 was old state    237
 New state    239 was old state    238
 New state    240 was old state    239
 New state    241 was old state    228
 New state    242 was old state    246
 New state    243 was old state    247
 New state    244 was old state    245
 New state    245 was old state    252
 New state    246 was old state    263
 New state    247 was old state    262
 New state    248 was old state    253
 New state    249 was old state    248
 New state    250 was old state    249
 New state    251 was old state    268
 New state    252 was old state    258
 New state    253 was old state    259
 New state    254 was old state    256
 New state    255 was old state    257
 New state    256 was old state    254
 New state    257 was old state    255
 New state    258 was old state    250
 New state    259 was old state    251
 New state    260 was old state    277
 New state    261 was old state    279
 New state    262 was old state    278
 New state    263 was old state    261
 New state    264 was old state    260
 New state    265 was old state    269
 New state    266 was old state    265
 New state    267 was old state    264
 New state    268 was old state    266
 New state    269 was old state    267
 New state    270 was old state    272
 New state    272 was old state    270
 New state    273 was old state    282
 New state    274 was old state    283
 New state    275 was old state    281
 New state    276 was old state    274
 New state    277 was old state    275
 New state    278 was old state    273
 New state    279 was old state    284
 New state    280 was old state    285
 New state    281 was old state    286
 New state    282 was old state    280
 New state    283 was old state    276
 New state    284 was old state    292
 New state    285 was old state    293
 New state    286 was old state    287
 New state    287 was old state    288
 New state    288 was old state    290
 New state    289 was old state    291
 New state    290 was old state    289
 New state    291 was old state    301
 New state    292 was old state    296
 New state    293 was old state    297
 New state    294 was old state    299
 New state    295 was old state    294
 New state    296 was old state    295
 New state    297 was old state    302
 New state    298 was old state    303
 New state    299 was old state    305
 New state    300 was old state    304
 New state    301 was old state    300
 New state    302 was old state    298
 New state    303 was old state    308
 New state    304 was old state    309
 New state    305 was old state    310
 New state    306 was old state    311
 New state    307 was old state    306
 New state    308 was old state    307
 New state    309 was old state    318
 New state    310 was old state    319
 New state    311 was old state    314
 New state    312 was old state    315
 New state    313 was old state    328
 New state    314 was old state    329
 New state    315 was old state    320
 New state    316 was old state    321
 New state    317 was old state    326
 New state    318 was old state    327
 New state    319 was old state    316
 New state    320 was old state    317
 New state    321 was old state    323
 New state    323 was old state    325
 New state    324 was old state    312
 New state    325 was old state    313
 New state    326 was old state    330
 New state    327 was old state    331
 New state    328 was old state    324
 New state    329 was old state    333
 New state    330 was old state    334
 New state    331 was old state    339
 New state    332 was old state    335
 New state    333 was old state    337
 New state    334 was old state    338
 New state    335 was old state    344
 New state    336 was old state    345
 New state    337 was old state    342
 New state    338 was old state    343
 New state    339 was old state    340
 New state    340 was old state    341
 New state    341 was old state    346
 New state    342 was old state    361
 New state    343 was old state    360
 New state    344 was old state    332
 New state    345 was old state    358
 New state    346 was old state    359
 New state    347 was old state    352
 New state    348 was old state    353
 New state    349 was old state    354
 New state    350 was old state    355
 New state    351 was old state    356
 New state    352 was old state    357
 New state    353 was old state    336
 New state    354 was old state    365
 New state    355 was old state    348
 New state    356 was old state    350
 New state    357 was old state    349
 No map to state    358
 New state    359 was old state    351
 New state    360 was old state    347
 New state    361 was old state    374
 New state    362 was old state    368
 New state    363 was old state    378
 New state    364 was old state    369
 New state    365 was old state    370
 New state    366 was old state    371
 New state    367 was old state    372
 New state    368 was old state    364
 New state    369 was old state    362
 New state    370 was old state    363
 New state    371 was old state    366
 New state    372 was old state    367
 New state    373 was old state    376
 New state    374 was old state    377
 New state    375 was old state    373
 New state    376 was old state    375
 New state    377 was old state    383
 New state    378 was old state    379
 New state    379 was old state    380
 New state    380 was old state    386
 New state    381 was old state    387
 New state    383 was old state    381
 New state    384 was old state    391
 New state    385 was old state    389
 New state    386 was old state    390
 New state    387 was old state    396
 New state    388 was old state    394
 New state    389 was old state    395
 New state    390 was old state    388
 New state    391 was old state    393
 New state    393 was old state    405
 New state    394 was old state    401
 New state    395 was old state    384
 New state    396 was old state    385
 New state    397 was old state    411
 New state    398 was old state    399
 New state    399 was old state    400
 New state    400 was old state    402
 New state    401 was old state    397
 New state    402 was old state    398
 New state    403 was old state    406
 New state    404 was old state    403
 New state    405 was old state    404
 New state    406 was old state    407
 New state    407 was old state    409
 New state    408 was old state    410
 New state    409 was old state    414
 New state    410 was old state    408
 New state    411 was old state    412
 New state    412 was old state    413
 New state    413 was old state    419
 New state    414 was old state    420
 New state    415 was old state    421
 New state    416 was old state    429
 New state    417 was old state    416
 New state    418 was old state    425
 New state    419 was old state    417
 New state    420 was old state    415
 New state    421 was old state    418
 New state    422 was old state    423
 New state    423 was old state    424
 New state    424 was old state    422
 New state    425 was old state    439
 New state    426 was old state    438
 New state    427 was old state    426
 New state    428 was old state    427
 New state    429 was old state    428
 New state    430 was old state    448
 New state    431 was old state    445
 New state    432 was old state    442
 New state    433 was old state    443
 New state    434 was old state    446
 New state    435 was old state    444
 New state    436 was old state    447
 New state    437 was old state    436
 New state    438 was old state    437
 New state    439 was old state    433
 New state    440 was old state    430
 New state    441 was old state    431
 New state    442 was old state    449
 New state    443 was old state    450
 New state    444 was old state    432
 New state    445 was old state    434
 New state    446 was old state    435
 New state    447 was old state    457
 No map to state    448
 New state    449 was old state    453
 New state    450 was old state    454
 New state    451 was old state    441
 New state    452 was old state    440
 New state    453 was old state    458
 New state    454 was old state    456
 New state    455 was old state    459
 New state    456 was old state    463
 New state    457 was old state    464
 New state    458 was old state    455
 New state    459 was old state    465
 New state    460 was old state    466
 New state    461 was old state    451
 New state    462 was old state    452
 New state    463 was old state    462
 New state    464 was old state    471
 New state    465 was old state    472
 New state    466 was old state    460
 New state    467 was old state    461
 New state    468 was old state    473
 New state    469 was old state    467
 New state    470 was old state    468
 New state    471 was old state    470
 New state    472 was old state    469
 No map to state    473
 New state    474 was old state    483
 New state    475 was old state    484
 New state    476 was old state    475
 New state    477 was old state    494
 New state    478 was old state    485
 New state    479 was old state    486
 New state    480 was old state    477
 New state    481 was old state    478
 New state    482 was old state    493
 New state    483 was old state    491
 New state    484 was old state    489
 New state    485 was old state    490
 New state    486 was old state    479
 New state    487 was old state    481
 New state    488 was old state    482
 New state    489 was old state    480
 New state    490 was old state    487
 New state    491 was old state    488
 New state    492 was old state    474
 New state    493 was old state    496
 New state    494 was old state    492
 New state    496 was old state    498
 New state    497 was old state    499
 New state    498 was old state    504
 New state    499 was old state    533
 New state    500 was old state    497
 New state    501 was old state    505
 New state    502 was old state    506
 New state    503 was old state    507
 New state    504 was old state    500
 New state    505 was old state    501
 New state    506 was old state    502
 New state    507 was old state    503
 New state    508 was old state    509
 New state    509 was old state    510
 New state    510 was old state    517
 New state    511 was old state    516
 New state    512 was old state    508
 New state    514 was old state    512
 New state    515 was old state    514
 New state    516 was old state    515
 New state    517 was old state    511
 New state    518 was old state    527
 New state    519 was old state    528
 New state    520 was old state    529
 New state    521 was old state    530
 New state    522 was old state    525
 New state    523 was old state    526
 New state    524 was old state    518
 New state    525 was old state    531
 New state    526 was old state    532
 New state    527 was old state    535
 New state    528 was old state    522
 New state    529 was old state    521
 New state    530 was old state    524
 New state    531 was old state    523
 New state    532 was old state    519
 New state    533 was old state    534
 New state    534 was old state    537
 New state    535 was old state    520
 New state    537 was old state    550
 New state    538 was old state    540
 New state    539 was old state    538
 New state    540 was old state    539
 New state    542 was old state    545
 New state    543 was old state    546
 New state    545 was old state    543
 New state    546 was old state    547
 New state    547 was old state    548
 New state    548 was old state    549
 New state    549 was old state    557
 New state    550 was old state    542
 New state    553 was old state    555
 New state    554 was old state    564
 New state    555 was old state    563
 New state    556 was old state    553
 New state    557 was old state    554
 New state    558 was old state    562
 New state    560 was old state    558
 New state    561 was old state    560
 New state    562 was old state    556
 New state    563 was old state    569
 New state    564 was old state    561
 New state    569 was old state    570
 New state    570 was old state    572
 New state    571 was old state    573
 New state    572 was old state    571
 New state    573 was old state    580
 New state    574 was old state    576
 New state    575 was old state    577
 New state    576 was old state    575
 New state    577 was old state    578
 New state    578 was old state    579
 New state    579 was old state    587
 New state    580 was old state    574
 New state    581 was old state    582
 New state    582 was old state    583
 New state    583 was old state    581
 New state    584 was old state    588
 New state    585 was old state    584
 New state    586 was old state    585
 New state    587 was old state    586
 New state    588 was old state    599
 New state    590 was old state    591
 New state    591 was old state    592
 New state    592 was old state    597
 New state    593 was old state    595
 New state    594 was old state    593
 New state    595 was old state    596
 New state    596 was old state    590
 New state    597 was old state    594
 New state    599 was old state    602
 New state    600 was old state    601
 No map to state    601
 New state    602 was old state    607
 New state    603 was old state    608
 New state    604 was old state    610
 New state    605 was old state    609
 New state    606 was old state    600
 New state    607 was old state    611
 New state    608 was old state    612
 New state    609 was old state    614
 New state    610 was old state    613
 New state    611 was old state    603
 New state    612 was old state    604
 New state    613 was old state    606
 New state    614 was old state    605
 New state    618 was old state    619
 New state    619 was old state    618
 New state    620 was old state    621
 New state    621 was old state    620
 New state    628 was old state    630
 New state    629 was old state    631
 New state    630 was old state    632
 New state    631 was old state    628
 New state    632 was old state    629
 New state    643 was old state    645
 New state    644 was old state    643
 New state    645 was old state    644
 Excitation Energies [eV] at current iteration:
 Root      1 :     6.616637099560022
 Root      2 :     7.027724155423094
 Root      3 :     7.027726085694789
 Root      4 :     7.936449655340166
 Root      5 :     7.936470205329958
 Root      6 :     9.102749850186431
 Root      7 :     9.102761850231294
 Root      8 :     9.842647529018528
 Root      9 :     9.842668544544281
 Root     10 :    10.155141497841070
 Root     11 :    11.066557099392390
 Root     12 :    11.092107816021610
 Root     13 :    11.092114414205110
 Root     14 :    11.379379001079250
 Root     15 :    11.382945584235480
 Root     16 :    11.464193766674700
 Root     17 :    11.464221968127440
 Root     18 :    11.648861589416970
 Root     19 :    11.657273513720170
 Root     20 :    11.657324378613370
 Root     21 :    12.280785734770160
 Root     22 :    12.280881768982570
 Root     23 :    12.327251264447450
 Root     24 :    12.402743386847850
 Root     25 :    12.402750937892000
 Root     26 :    12.664988000752120
 Root     27 :    12.665016075749190
 Root     28 :    12.940824133554750
 Root     29 :    13.003721195675230
 Root     30 :    13.083439872118990
 Root     31 :    13.083467645311900
 Root     32 :    13.303611537299860
 Root     33 :    13.303622803877150
 Root     34 :    13.329715919697910
 Root     35 :    13.845429251444180
 Root     36 :    13.998698051489270
 Root     37 :    14.025483921900300
 Root     38 :    14.025570938762860
 Root     39 :    14.122917121892720
 Root     40 :    14.313911547366500
 Root     41 :    14.313913211165620
 Root     42 :    14.526148874809920
 Root     43 :    14.807029065903940
 Root     44 :    14.807038706389260
 Root     45 :    14.866704430027890
 Root     46 :    14.901730800168870
 Root     47 :    15.021646617673530
 Root     48 :    15.021661989715370
 Root     49 :    15.035498825778830
 Root     50 :    15.097241955506510
 Root     51 :    15.097264081447720
 Root     52 :    15.211409183522040
 Root     53 :    15.211487545364290
 Root     54 :    15.237857049654550
 Root     55 :    15.403431693752440
 Root     56 :    15.444694606473880
 Root     57 :    15.444735755380530
 Root     58 :    15.578914967824130
 Root     59 :    15.578947189892260
 Root     60 :    15.745347763170910
 Root     61 :    15.826679344107630
 Root     62 :    16.015837145075930
 Root     63 :    16.017520854847100
 Root     64 :    16.017553470378890
 Root     65 :    16.158320499667010
 Root     66 :    16.158338662052110
 Root     67 :    16.503707009655000
 Root     68 :    16.528913985465340
 Root     69 :    16.528979986540260
 Root     70 :    16.649947222137010
 Root     71 :    16.649963494666410
 Root     72 :    16.705870602198060
 Root     73 :    16.753767690278320
 Root     74 :    16.753797600812180
 Root     75 :    17.098279890252330
 Root     76 :    17.119817266273520
 Root     77 :    17.119830822635590
 Root     78 :    17.341714757231950
 Root     79 :    17.526154923808670
 Root     80 :    17.526174190318300
 Root     81 :    17.618948518756410
 Root     82 :    17.618958571361550
 Root     83 :    17.733773297297050
 Root     84 :    17.733812928880050
 Root     85 :    17.792081561490440
 Root     86 :    17.792656146454640
 Root     87 :    17.792693820531230
 Root     88 :    17.851534680587870
 Root     89 :    17.914619198114640
 Root     90 :    17.914660325309590
 Root     91 :    17.967350728183110
 Root     92 :    18.105895105071650
 Root     93 :    18.105944359974440
 Root     94 :    18.257815349521390
 Root     95 :    18.341113939201940
 Root     96 :    18.341151135607310
 Root     97 :    18.377577059072980
 Root     98 :    18.672253448453520
 Root     99 :    18.672268451425590
 Root    100 :    18.784687490215670
 Root    101 :    19.119859411686810
 Root    102 :    19.119891316893020
 Root    103 :    19.187329462680250
 Root    104 :    19.284120919474020
 Root    105 :    19.284134918742860
 Root    106 :    19.366273402117060
 Root    107 :    19.467665203205370
 Root    108 :    19.467688740233640
 Root    109 :    19.498509212663180
 Root    110 :    19.498521940854700
 Root    111 :    19.538081066264980
 Root    112 :    19.790313024317680
 Root    113 :    19.790409812593990
 Root    114 :    19.815492510505180
 Root    115 :    19.929657772654020
 Root    116 :    19.971123534314200
 Root    117 :    19.971134512917970
 Root    118 :    20.064828143671510
 Root    119 :    20.064842189201660
 Root    120 :    20.220905970247520
 Root    121 :    20.220917795934600
 Root    122 :    20.355080023190020
 Root    123 :    20.504771621617410
 Root    124 :    20.505213487542700
 Root    125 :    20.505223967872120
 Root    126 :    20.546756632130250
 Root    127 :    20.686564804134890
 Root    128 :    20.723249783413080
 Root    129 :    20.723327518405490
 Root    130 :    20.993240634884740
 Root    131 :    21.009011275630050
 Root    132 :    21.018005665864400
 Root    133 :    21.018070940726140
 Root    134 :    21.064534057495800
 Root    135 :    21.064575516896730
 Root    136 :    21.073859242174490
 Root    137 :    21.073907301496960
 Root    138 :    21.154815810144490
 Root    139 :    21.204787291329940
 Root    140 :    21.334061797488630
 Root    141 :    21.334081942506660
 Root    142 :    21.352483474184410
 Root    143 :    21.352512294252120
 Root    144 :    21.395228045577330
 Root    145 :    21.398815393756320
 Root    146 :    21.464411254095140
 Root    147 :    21.464417729921340
 Root    148 :    21.552504337423240
 Root    149 :    21.607617582106990
 Root    150 :    21.607657860742410
 Root    151 :    21.683123124273980
 Root    152 :    21.708599645894040
 Root    153 :    21.708607014733890
 Root    154 :    21.802429379689740
 Root    155 :    21.802502037715840
 Root    156 :    21.887376934489530
 Root    157 :    21.909169008129690
 Root    158 :    22.224851583597420
 Root    159 :    22.332097298619820
 Root    160 :    22.336874653268060
 Root    161 :    22.336881460509790
 Root    162 :    22.441869941175680
 Root    163 :    22.441912940076140
 Root    164 :    22.541337905913350
 Root    165 :    22.541393269186170
 Root    166 :    22.547665507694260
 Root    167 :    22.698633529581700
 Root    168 :    22.758283649783080
 Root    169 :    22.828193116799490
 Root    170 :    22.828204896112620
 Root    171 :    23.001414828497890
 Root    172 :    23.130441933892840
 Root    173 :    23.130453701314880
 Root    174 :    23.136336390482490
 Root    175 :    23.178248238803560
 Root    176 :    23.388236362189730
 Root    177 :    23.485255957637380
 Root    178 :    23.485290938847560
 Root    179 :    23.599189865231240
 Root    180 :    23.599199212476620
 Root    181 :    23.756065883215650
 Root    182 :    23.756145734867670
 Root    183 :    23.775177507031980
 Root    184 :    23.832420720617980
 Root    185 :    23.832437851289720
 Root    186 :    23.965556739390600
 Root    187 :    24.098444653201150
 Root    188 :    24.174687263744870
 Root    189 :    24.174761452125330
 Root    190 :    24.256861955465790
 Root    191 :    24.256892077474660
 Root    192 :    24.279738215972980
 Root    193 :    24.279752872612180
 Root    194 :    24.302306304681080
 Root    195 :    24.662057825818290
 Root    196 :    24.700254828619510
 Root    197 :    24.700291210394630
 Root    198 :    24.848594600581920
 Root    199 :    24.939600166168250
 Root    200 :    25.139464632459180
 Root    201 :    25.139473290137020
 Root    202 :    25.154289257159950
 Root    203 :    25.303989493504120
 Root    204 :    25.343614947173610
 Root    205 :    25.343639391037110
 Root    206 :    25.367942850046270
 Root    207 :    25.405061547328280
 Root    208 :    25.405084439084830
 Root    209 :    25.539650628043700
 Root    210 :    25.613968600682390
 Root    211 :    25.640861798145690
 Root    212 :    25.734389498613400
 Root    213 :    25.734428233668440
 Root    214 :    25.807247129969990
 Root    215 :    25.851543398416550
 Root    216 :    25.851552658849650
 Root    217 :    25.987585093816480
 Root    218 :    25.987633495322930
 Root    219 :    26.020024937995330
 Root    220 :    26.020050784408610
 Root    221 :    26.052777301703300
 Root    222 :    26.149736164868600
 Root    223 :    26.149757200548380
 Root    224 :    26.219887528265950
 Root    225 :    26.267648225181000
 Root    226 :    26.372178086405050
 Root    227 :    26.372209077565500
 Root    228 :    26.444188258476670
 Root    229 :    26.444230434891380
 Root    230 :    26.868250605558060
 Root    231 :    26.868266997160500
 Root    232 :    26.890540952758740
 Root    233 :    27.071952946290680
 Root    234 :    27.153280957409870
 Root    235 :    27.153306854046500
 Root    236 :    27.247060446076010
 Root    237 :    27.247077209350310
 Root    238 :    27.522748123190050
 Root    239 :    27.574016880538540
 Root    240 :    27.574017354239470
 Root    241 :    27.595673704675030
 Root    242 :    27.870565497023120
 Root    243 :    27.870594987259430
 Root    244 :    28.043708996251680
 Root    245 :    28.164718073269860
 Root    246 :    28.230549727647780
 Root    247 :    28.230560650018240
 Root    248 :    28.405142337141430
 Root    249 :    28.660036006682260
 Root    250 :    28.660078788368980
 Root    251 :    28.974405246290870
 Root    252 :    29.290477766895070
 Root    253 :    29.290494151249440
 Root    254 :    29.423074772522740
 Root    255 :    29.423086522817990
 Root    256 :    29.455251638937140
 Root    257 :    29.532687848687970
 Root    258 :    29.598875102926930
 Root    259 :    29.598881283591180
 Root    260 :    29.710329639693170
 Root    261 :    29.764368382959740
 Root    262 :    29.764379531541210
 Root    263 :    29.810404329705540
 Root    264 :    29.988017579111110
 Root    265 :    30.155108811265840
 Root    266 :    30.215583410687190
 Root    267 :    30.215595677355880
 Root    268 :    30.342851925426310
 Root    269 :    30.342890276260110
 Root    270 :    30.442629938306830
 Root    271 :    30.442637548411920
 Root    272 :    30.560254479077510
 Root    273 :    30.746456994045290
 Root    274 :    30.746497403118720
 Root    275 :    30.919731281296780
 Root    276 :    31.083880121976710
 Root    277 :    31.083906055388410
 Root    278 :    31.255976988524650
 Root    279 :    31.471627765364990
 Root    280 :    31.471670291502480
 Root    281 :    31.566606143368580
 Root    282 :    31.937018522819200
 Root    283 :    32.162565363827440
 Root    284 :    32.235270156773940
 Root    285 :    32.235289321909620
 Root    286 :    32.388948015718530
 Root    287 :    32.866655879236860
 Root    288 :    32.936449656333750
 Root    289 :    32.936481491718550
 Root    290 :    33.098192276200090
 Root    291 :    33.322976410593720
 Root    292 :    33.352518887759270
 Root    293 :    33.385920616504330
 Root    294 :    33.385951318012920
 Root    295 :    33.453829957269970
 Root    296 :    33.453843499908150
 Root    297 :    33.558157042720910
 Root    298 :    33.558200073108520
 Root    299 :    33.711387980114620
 Root    300 :    33.711439023880790
 Root    301 :    33.824177072139820
 Root    302 :    34.030208861685010
 Root    303 :    34.083553884461640
 Root    304 :    34.083571535172500
 Root    305 :    34.094882120811240
 Root    306 :    34.389545923262770
 Root    307 :    34.475177507162070
 Root    308 :    34.475240356095940
 Root    309 :    34.522171006995580
 Root    310 :    34.522204949672290
 Root    311 :    34.961578113845530
 Root    312 :    34.961630723745290
 Root    313 :    35.184671323376160
 Root    314 :    35.184731922356900
 Root    315 :    35.230785951013610
 Root    316 :    35.292705515519230
 Root    317 :    35.320818962975120
 Root    318 :    35.320924000744050
 Root    319 :    35.441657675428220
 Root    320 :    35.441737097748560
 Root    321 :    35.637791024868370
 Root    322 :    35.637820680534140
 Root    323 :    35.690023042726860
 Root    324 :    35.870937927444730
 Root    325 :    35.870988114300920
 Root    326 :    36.153920992817010
 Root    327 :    36.153956560756970
 Root    328 :    36.193970270980780
 Root    329 :    36.259469448764530
 Root    330 :    36.259491763007380
 Root    331 :    36.308839156746800
 Root    332 :    36.752565982190250
 Root    333 :    36.796689765007140
 Root    334 :    36.796706711726220
 Root    335 :    36.979202948185980
 Root    336 :    36.979218546451840
 Root    337 :    37.285522749189290
 Root    338 :    37.285551396401960
 Root    339 :    37.395094912708860
 Root    340 :    37.395161257401440
 Root    341 :    37.405762332226130
 Root    342 :    37.545856213149090
 Root    343 :    37.545892910441790
 Root    344 :    37.981690687326350
 Root    345 :    38.872351983340860
 Root    346 :    38.872391952885290
 Root    347 :    38.918356931233070
 Root    348 :    39.099071345005630
 Root    349 :    39.183880600957970
 Root    350 :    39.183904262889750
 Root    351 :    39.213699090115170
 Root    352 :    39.213785104927050
 Root    353 :    39.345472078033260
 Root    354 :    39.821407858503240
 Root    355 :    40.016871433545390
 Root    356 :    40.016964680500690
 Root    357 :    40.123084280914690
 Root    358 :    40.285345716671000
 Root    359 :    40.285370847756440
 Root    360 :    40.384554638038050
 Root    361 :    40.583338248195260
 Root    362 :    40.886103675809320
 Root    363 :    41.189188460067560
 Root    364 :    41.258642984737970
 Root    365 :    41.258732722049000
 Root    366 :    41.393569720529380
 Root    367 :    41.393643140363180
 Root    368 :    42.185471602070480
 Root    369 :    42.205239996323590
 Root    370 :    42.205290120420680
 Root    371 :    42.780870185085180
 Root    372 :    42.780979504412580
 Root    373 :    42.846883847541080
 Root    374 :    42.846970734965590
 Root    375 :    42.857777076663300
 Root    376 :    42.874437934189010
 Root    377 :    43.476706594321090
 Root    378 :    43.929308821121770
 Root    379 :    44.187776435958490
 Root    380 :    44.187997678926780
 Root    381 :    44.188150199877370
 Root    382 :    44.367523168106000
 Root    383 :    44.367526160469850
 Root    384 :    44.404255703061150
 Root    385 :    44.711575919896720
 Root    386 :    44.711610590021470
 Root    387 :    44.723209681084750
 Root    388 :    45.225228003136590
 Root    389 :    45.225251927032170
 Root    390 :    45.402778042267280
 Root    391 :    45.589369901084050
 Root    392 :    45.589420677103220
 Root    393 :    45.881118267034760
 Root    394 :    45.981130655171920
 Root    395 :    46.020241868313590
 Root    396 :    46.020339761277070
 Root    397 :    46.679053015080400
 Root    398 :    46.887910313252980
 Root    399 :    46.887984013557630
 Root    400 :    47.297859117819310
 Root    401 :    47.517087756108720
 Root    402 :    47.517277073718910
 Root    403 :    47.801635111855790
 Root    404 :    47.911782437078460
 Root    405 :    47.911859562185600
 Root    406 :    47.948408226410810
 Root    407 :    47.982940765560540
 Root    408 :    47.982947963660180
 Root    409 :    48.798716578010680
 Root    410 :    49.059273397547810
 Root    411 :    49.476467050844940
 Root    412 :    49.476547034856830
 Root    413 :    49.713988145978910
 Root    414 :    49.714099222535240
 Root    415 :    49.739265525307510
 Root    416 :    49.833947610890700
 Root    417 :    50.166314263568670
 Root    418 :    50.178741391270220
 Root    419 :    50.309787762926310
 Root    420 :    50.309792976857490
 Root    421 :    50.652426254059250
 Root    422 :    51.202957654791410
 Root    423 :    51.202961034292280
 Root    424 :    51.325405543832550
 Root    425 :    51.759604622424800
 Root    426 :    51.785519842188190
 Root    427 :    51.980760368923110
 Root    428 :    51.980942454168990
 Root    429 :    52.098220398298820
 Root    430 :    52.695119465225780
 Root    431 :    53.032376161853210
 Root    432 :    53.124854924267400
 Root    433 :    53.124886109841280
 Root    434 :    53.289116116639080
 Root    435 :    53.289148749425130
 Root    436 :    53.782931433000120
 Root    437 :    53.887702607535010
 Root    438 :    53.887879807428220
 Root    439 :    54.010078980967640
 Root    440 :    54.145236958160730
 Root    441 :    54.145238968106490
 Root    442 :    54.323503048729840
 Root    443 :    54.323630800720980
 Root    444 :    54.792212587093670
 Root    445 :    54.792222355393750
 Root    446 :    54.801725949822660
 Root    447 :    54.973115027595570
 Root    448 :    55.327225259713490
 Root    449 :    55.910652416717590
 Root    450 :    55.910685039056460
 Root    451 :    56.259799895372750
 Root    452 :    56.259833076474900
 Root    453 :    56.616364508806970
 Root    454 :    56.616367775481270
 Root    455 :    56.639074627565240
 Root    456 :    56.874995471901290
 Root    457 :    56.875075307688710
 Root    458 :    57.129785138704650
 Root    459 :    57.214912140756130
 Root    460 :    57.276992606187450
 Root    461 :    57.519994200449030
 Root    462 :    57.520102215471540
 Root    463 :    57.849677846079430
 Root    464 :    57.948166671656510
 Root    465 :    57.948195958075710
 Root    466 :    58.809408306696000
 Root    467 :    58.809537243171870
 Root    468 :    58.924726620315700
 Root    469 :    59.398297405688110
 Root    470 :    59.407582998251810
 Root    471 :    59.640060212938960
 Root    472 :    59.640065236649890
 Root    473 :    59.898099092480170
 Root    474 :    60.114840990430720
 Root    475 :    60.114865013645280
 Root    476 :    60.450850642077730
 Root    477 :    60.459146217816990
 Root    478 :    61.086705263697280
 Root    479 :    61.086742094575040
 Root    480 :    61.112025362285260
 Root    481 :    61.112026956579920
 Root    482 :    61.645175426176920
 Root    483 :    61.663776966089150
 Root    484 :    61.889510399934320
 Root    485 :    61.889584761152740
 Root    486 :    62.056427448156460
 Root    487 :    62.056475161066120
 Root    488 :    62.200824023089870
 Root    489 :    62.250550011356520
 Root    490 :    62.314747849457530
 Root    491 :    62.314798269657790
 Root    492 :    62.718844633385830
 Root    493 :    63.162626847496740
 Root    494 :    63.162648213958440
 Root    495 :    63.911162313772920
 Root    496 :    64.050297739042960
 Root    497 :    64.050361622951570
 Root    498 :    64.228446179847100
 Root    499 :    64.244672589826540
 Root    500 :    64.244713058466700
 Root    501 :    64.276594691405590
 Root    502 :    64.293285949147670
 Root    503 :    64.293309972613770
 Root    504 :    64.491426385903910
 Root    505 :    64.491479888369330
 Root    506 :    64.610314596644220
 Root    507 :    64.610385249627210
 Root    508 :    64.957308035732480
 Root    509 :    64.957383157240090
 Root    510 :    65.080233869671020
 Root    511 :    65.080289926959980
 Root    512 :    65.222032720945780
 Root    513 :    66.327071605924930
 Root    514 :    66.327072204319240
 Root    515 :    66.334631429608810
 Root    516 :    66.856718507415650
 Root    517 :    67.031715516190300
 Root    518 :    67.333047957869570
 Root    519 :    67.333060232779200
 Root    520 :    67.488291877577550
 Root    521 :    67.488344934266890
 Root    522 :    68.080458436218310
 Root    523 :    68.080486049706510
 Root    524 :    68.535732162528320
 Root    525 :    68.577451558136830
 Root    526 :    68.577467550365280
 Root    527 :    68.716325781385710
 Root    528 :    68.849670459524330
 Root    529 :    68.930668217602050
 Root    530 :    68.952176456882920
 Root    531 :    68.952180180496940
 Root    532 :    69.251761534453620
 Root    533 :    69.251826991778100
 Root    534 :    69.424970001177040
 Root    535 :    69.425013214110680
 Root    536 :    70.548437840860530
 Root    537 :    70.548599693956730
 Root    538 :    70.675256212262070
 Root    539 :    70.820563320535600
 Root    540 :    70.820581991574070
 Root    541 :    71.111933510630550
 Root    542 :    71.262348416683930
 Root    543 :    71.262409283704810
 Root    544 :    71.586824144803370
 Root    545 :    71.586842548713730
 Root    546 :    71.849566252607100
 Root    547 :    71.849623778415530
 Root    548 :    72.793554112806210
 Root    549 :    72.793753335568330
 Root    550 :    72.802040890847790
 Root    551 :    73.475422517351420
 Root    552 :    73.475493540987740
 Root    553 :    73.810653778651070
 Root    554 :    73.931617800657550
 Root    555 :    73.931677044056140
 Root    556 :    74.324743545956490
 Root    557 :    74.324820767842060
 Root    558 :    74.719877992324640
 Root    559 :    75.694735453846650
 Root    560 :    75.729311690019810
 Root    561 :    75.729335409126430
 Root    562 :    75.983233548080720
 Root    563 :    75.983452939016520
 Root    564 :    76.080811906119810
 Root    565 :    76.334293105541620
 Root    566 :    77.372549199300850
 Root    567 :    77.372661249741570
 Root    568 :    77.613944876757970
 Root    569 :    77.963288794363720
 Root    570 :    77.963354378803910
 Root    571 :    78.681413308761510
 Root    572 :    78.740167597195300
 Root    573 :    78.740214140099610
 Root    574 :    78.843850583672860
 Root    575 :    79.195116820251940
 Root    576 :    79.195163405345970
 Root    577 :    79.296534474054180
 Root    578 :    79.914093827760280
 Root    579 :    79.914485071381260
 Root    580 :    80.096420806149940
 Root    581 :    80.859692106803080
 Root    582 :    80.859795381411840
 Root    583 :    81.301237656842690
 Root    584 :    82.379275898406820
 Root    585 :    82.939457140756820
 Root    586 :    82.939494327467970
 Root    587 :    84.037918136506380
 Root    588 :    84.038366482209000
 Root    589 :    85.519290463795700
 Root    590 :    85.822667893618800
 Root    591 :    85.822770808483380
 Root    592 :    86.628853306228270
 Root    593 :    86.671693554475550
 Root    594 :    86.671696467646410
 Root    595 :    86.798823323318200
 Root    596 :    87.093195376201630
 Root    597 :    87.388585024576020
 Root    598 :    87.523969770430280
 Root    599 :    87.524424765035520
 Root    600 :    89.911591256600910
 Root    601 :    89.912034447204320
 Root    602 :    91.125109583358930
 Root    603 :    91.228235374562710
 Root    604 :    91.228254399949920
 Root    605 :    91.380161142706970
 Root    606 :    91.528665896559660
 Root    607 :    91.945148084761580
 Root    608 :    91.945484876676360
 Root    609 :    92.246201704530490
 Root    610 :    92.246211568304160
 Root    611 :    92.653677695288850
 Root    612 :    92.666945813921740
 Root    613 :    92.674215608305840
 Root    614 :    92.674217527940850
 Root    615 :    94.496671364919960
 Root    616 :    94.723713970493820
 Root    617 :    94.723916549544810
 Root    618 :    95.363585368739090
 Root    619 :    95.363591123432000
 Root    620 :    95.388588088505000
 Root    621 :    95.742486527534070
 Root    622 :    95.896999246173820
 Root    623 :    95.897073134762680
 Root    624 :    97.230684366204460
 Root    625 :    98.122367496627130
 Root    626 :    98.122478460076520
 Root    627 :    98.374819326953980
 Root    628 :    99.400732138399720
 Root    629 :    99.401011878407230
 Root    630 :   100.437248808242600
 Root    631 :   100.584258458691300
 Root    632 :   100.584482655772000
 Root    633 :   101.371341132508800
 Root    634 :   101.371639794940000
 Root    635 :   103.990585054775900
 Root    636 :   103.990711329674000
 Root    637 :   105.172677887872500
 Root    638 :   106.304951019833200
 Root    639 :   106.305218154178800
 Root    640 :   107.497518037993800
 Root    641 :   112.147299910571700
 Root    642 :   112.147307427435200
 Root    643 :   118.733162994746400
 Root    644 :   119.952215895513100
 Root    645 :   119.952327399587000
 Root    646 :   120.498462662623100
 Root    647 :   125.276598747523900
 Root    648 :   129.120173057886600
 Convergence achieved for final wavefunctions.
 ***********************************************************************
 Excited states from <AA,BB:AA,BB> singles matrix:
 ***********************************************************************
 
 1PDM for each excited state written to RWF  633
 Ground to excited state transition densities written to RWF  633
 Ground to excited state transition electric dipole moments (Au):
       state          X           Y           Z        Dip. S.      Osc.
         1        -0.0000      0.0000     -0.0000      0.0000      0.0000
         2         0.0591     -0.0123      0.0002      0.0036      0.0006
         3         0.0123      0.0591     -0.0009      0.0036      0.0006
         4        -0.3738      0.1262     -0.0020      0.1556      0.0303
         5        -0.1262     -0.3737      0.0056      0.1556      0.0303
         6        -0.2786      0.0607     -0.0010      0.0813      0.0181
         7        -0.0607     -0.2785      0.0042      0.0813      0.0181
         8        -0.5758      0.0581     -0.0010      0.3350      0.0808
         9        -0.0581     -0.5758      0.0087      0.3350      0.0808
        10        -0.0005      0.0322      2.1312      4.5432      1.1303
        11         0.0000     -0.0000     -0.0000      0.0000      0.0000
        12        -0.0694      0.1587     -0.0025      0.0300      0.0082
        13        -0.1587     -0.0694      0.0010      0.0300      0.0082
        14        -0.0000      0.0000     -0.0000      0.0000      0.0000
        15         0.0002     -0.0136     -0.9003      0.8108      0.2261
        16        -0.0561      0.1157     -0.0019      0.0165      0.0046
        17        -0.1158     -0.0560      0.0009      0.0165      0.0046
        18         0.0004     -0.0023     -0.1707      0.0291      0.0083
        19        -0.1942     -0.0225     -0.0001      0.0382      0.0109
        20         0.0225     -0.1942      0.0028      0.0382      0.0109
        21        -0.6112     -0.0785      0.0011      0.3797      0.1142
        22         0.0785     -0.6111      0.0092      0.3797      0.1142
        23         0.0000      0.0000     -0.0000      0.0000      0.0000
        24        -0.1511     -0.2356      0.0035      0.0784      0.0238
        25        -0.2356      0.1512     -0.0023      0.0784      0.0238
        26        -0.0473     -0.0217      0.0003      0.0027      0.0008
        27         0.0217     -0.0473      0.0007      0.0027      0.0008
        28         0.0000     -0.0023     -0.1548      0.0240      0.0076
        29         0.0001     -0.0001      0.0000      0.0000      0.0000
        30         0.1039      0.0204     -0.0003      0.0112      0.0036
        31        -0.0204      0.1039     -0.0016      0.0112      0.0036
        32        -0.2353      0.2225     -0.0033      0.1049      0.0342
        33        -0.2225     -0.2353      0.0032      0.1049      0.0342
        34         0.0002     -0.0143     -0.9511      0.9048      0.2955
        35        -0.0001      0.0013      0.0883      0.0078      0.0026
        36         0.0000     -0.0000      0.0000      0.0000      0.0000
        37        -0.0708     -0.0103      0.0001      0.0051      0.0018
        38         0.0103     -0.0707      0.0011      0.0051      0.0018
        39        -0.0001      0.0050      0.3295      0.1086      0.0376
        40        -0.6867      0.0400     -0.0007      0.4732      0.1659
        41        -0.0399     -0.6867      0.0103      0.4732      0.1659
        42        -0.0001      0.0033      0.2207      0.0487      0.0173
        43        -0.2350      0.3851     -0.0059      0.2035      0.0738
        44         0.3851      0.2349     -0.0034      0.2035      0.0738
        45         0.0002     -0.0003     -0.0000      0.0000      0.0000
        46        -0.0002      0.0136      0.9019      0.8136      0.2970
        47         0.0754     -0.1946      0.0030      0.0435      0.0160
        48        -0.1944     -0.0753      0.0011      0.0435      0.0160
        49         0.0003     -0.0004      0.0000      0.0000      0.0000
        50        -0.4388     -0.0417      0.0005      0.1943      0.0719
        51         0.0416     -0.4388      0.0066      0.1943      0.0719
        52        -0.4813     -0.0466      0.0006      0.2338      0.0871
        53         0.0466     -0.4811      0.0073      0.2337      0.0871
        54        -0.0002      0.0004     -0.0000      0.0000      0.0000
        55         0.0001     -0.0015     -0.0991      0.0098      0.0037
        56         0.3079      0.0564     -0.0007      0.0980      0.0371
        57        -0.0564      0.3079     -0.0046      0.0980      0.0371
        58        -0.2033     -0.0902      0.0014      0.0495      0.0189
        59        -0.0902      0.2032     -0.0031      0.0494      0.0189
        60         0.0001     -0.0067     -0.4457      0.1987      0.0767
        61        -0.0001      0.0016      0.1046      0.0109      0.0042
        62        -0.0016      0.0004     -0.0289      0.0008      0.0003
        63         0.1515     -0.2688      0.0040      0.0952      0.0374
        64         0.2692      0.1515     -0.0023      0.0954      0.0375
        65         1.2341      0.0655     -0.0007      1.5273      0.6046
        66        -0.0655      1.2341     -0.0186      1.5276      0.6047
        67         0.0001     -0.0011     -0.0756      0.0057      0.0023
        68         0.2981      0.0209     -0.0002      0.0893      0.0362
        69        -0.0210      0.2979     -0.0045      0.0892      0.0361
        70         0.5318     -0.4247      0.0065      0.4632      0.1889
        71         0.4249      0.5317     -0.0079      0.4633      0.1890
        72         0.0002      0.0003     -0.0000      0.0000      0.0000
        73        -0.2787     -0.0413      0.0005      0.0794      0.0326
        74         0.0415     -0.2788      0.0042      0.0795      0.0326
        75        -0.0001      0.0033      0.2197      0.0483      0.0202
        76        -0.0461      0.0069     -0.0000      0.0022      0.0009
        77        -0.0069     -0.0461      0.0006      0.0022      0.0009
        78        -0.0001      0.0056      0.3736      0.1396      0.0593
        79         0.0030     -0.0904      0.0013      0.0082      0.0035
        80         0.0904      0.0030     -0.0000      0.0082      0.0035
        81        -0.3915      0.0358     -0.0006      0.1545      0.0667
        82        -0.0358     -0.3914      0.0059      0.1545      0.0667
        83         0.1159     -0.2801      0.0043      0.0919      0.0399
        84         0.2802      0.1159     -0.0017      0.0919      0.0399
        85        -0.0029     -0.0099     -0.5827      0.3397      0.1481
        86         0.2920      0.1198     -0.0077      0.0996      0.0434
        87         0.1199     -0.2920      0.0042      0.0996      0.0434
        88        -0.0001     -0.0000     -0.0000      0.0000      0.0000
        89        -0.3454     -0.0064      0.0001      0.1194      0.0524
        90         0.0065     -0.3455      0.0052      0.1194      0.0524
        91        -0.0000     -0.0064     -0.4273      0.1826      0.0804
        92        -0.5723     -0.0510      0.0007      0.3302      0.1465
        93         0.0510     -0.5722      0.0086      0.3301      0.1464
        94         0.0000     -0.0000     -0.0000      0.0000      0.0000
        95         0.1012     -0.0013      0.0001      0.0102      0.0046
        96        -0.0013     -0.1011      0.0015      0.0102      0.0046
        97        -0.0000      0.0017      0.1143      0.0131      0.0059
        98         0.0576      0.0528     -0.0008      0.0061      0.0028
        99         0.0528     -0.0576      0.0008      0.0061      0.0028
       100         0.0003     -0.0186     -1.2339      1.5229      0.7008
       101         0.0761     -0.0546      0.0009      0.0088      0.0041
       102         0.0546      0.0762     -0.0011      0.0088      0.0041
       103        -0.0000     -0.0001      0.0000      0.0000      0.0000
       104         0.1875     -0.1764      0.0026      0.0663      0.0313
       105         0.1764      0.1875     -0.0028      0.0663      0.0313
       106         0.0001      0.0014      0.0955      0.0091      0.0043
[...]
      9   0.272308D-01  0.181867D-03  0.417262D+00  0.430222D-03 -0.647910D-05
     10  -0.529837D-01 -0.142682D-03 -0.418821D-03  0.417246D+00 -0.198433D-04
     11   0.123822D-02 -0.560770D+00  0.151799D-03 -0.773634D-04  0.432719D+00
     12   0.719968D-03 -0.343798D+00 -0.196167D+00  0.169059D+00  0.564201D-02
     13   0.731210D-03 -0.343738D+00  0.196276D+00 -0.169125D+00  0.565868D-02
     14   0.481547D-01  0.256332D-04 -0.331607D-03  0.338041D+00 -0.251269D-04
     15   0.247310D-01  0.242168D-04 -0.338082D+00 -0.356284D-03 -0.348302D-05
     16   0.983197D-05  0.111665D-04  0.169074D+00  0.196239D+00 -0.684402D-05
               581           582           583           584           585 
      1  -0.113224D+03 -0.113224D+03 -0.113207D+03 -0.113168D+03 -0.113147D+03
      2   0.629739D-05  0.283531D-05 -0.388255D-01 -0.827703D-01 -0.610005D-05
      3  -0.172464D-01  0.316765D-01 -0.652276D-05 -0.181916D-05  0.270486D-03
      4   0.316764D-01  0.172477D-01  0.243078D-05  0.000000D+00 -0.852174D-02
      5  -0.169897D-04 -0.723329D-05  0.111951D+00  0.213434D+00  0.180323D-04
      6   0.435994D-01 -0.800802D-01  0.167281D-04  0.373077D-05 -0.932440D-03
      7  -0.800803D-01 -0.436040D-01 -0.533642D-05  0.000000D+00  0.293918D-01
      8   0.341695D-05 -0.220281D-05  0.000000D+00  0.000000D+00  0.167316D-05
      9  -0.425123D+00 -0.231467D+00 -0.788607D-05 -0.325723D-04  0.252444D+00
     10  -0.231475D+00  0.425129D+00 -0.262102D-04  0.896410D-05  0.799720D-02
     11  -0.284543D-05 -0.845243D-04 -0.481768D+00  0.556615D+00 -0.148924D-04
     12  -0.124773D-01 -0.331268D-01 -0.467693D-01 -0.454327D-01 -0.638230D-01
     13   0.124722D-01  0.331041D-01 -0.467780D-01 -0.454064D-01  0.638209D-01
     14  -0.227465D+00  0.417762D+00 -0.277581D-04  0.538179D-05  0.898167D-02
     15   0.417762D+00  0.227457D+00  0.229304D-05  0.284904D-04 -0.283550D+00
     16   0.331202D-01 -0.124539D-01  0.221397D-05  0.215036D-05  0.587371D-01
               586           587           588           589           590 
      1  -0.113147D+03 -0.113107D+03 -0.113107D+03 -0.113052D+03 -0.113041D+03
      2  -0.260225D-05  0.000000D+00  0.000000D+00 -0.410868D-01  0.145373D-05
      3  -0.852283D-02 -0.726728D-02 -0.619859D-01 -0.452238D-05 -0.596347D-02
      4  -0.269576D-03  0.619874D-01 -0.726397D-02  0.000000D+00 -0.744221D-01
      5   0.803064D-05  0.000000D+00 -0.133166D-05  0.119374D+00 -0.267526D-05
      6   0.293924D-01  0.196142D-01  0.167301D+00  0.112198D-04  0.124165D-01
      7   0.930190D-03 -0.167304D+00  0.196058D-01  0.146254D-05  0.154946D+00
      8  -0.233805D-05 -0.159684D-05  0.000000D+00  0.000000D+00 -0.272109D-05
      9   0.800084D-02 -0.328009D+00  0.384423D-01  0.514255D-05 -0.116067D+00
     10  -0.252452D+00 -0.384516D-01 -0.328012D+00 -0.101567D-04  0.930449D-02
     11  -0.158164D-04  0.183621D-04  0.000000D+00 -0.619067D+00 -0.964782D-04
     12  -0.587373D-01 -0.113949D-01  0.124444D-01 -0.516678D-02 -0.136056D-01
     13   0.587409D-01  0.113958D-01 -0.124342D-01 -0.516756D-02  0.136019D-01
     14  -0.283544D+00 -0.512434D-01 -0.437139D+00 -0.127089D-04  0.200034D-01
     15  -0.898720D-02  0.437129D+00 -0.512319D-01 -0.136926D-04  0.249610D+00
     16  -0.638290D-01  0.124265D-01  0.113951D-01 -0.176701D-05  0.996648D-02
               591           592           593           594           595 
      1  -0.113041D+03 -0.113012D+03 -0.113010D+03 -0.113010D+03 -0.113005D+03
      2  -0.376221D-05 -0.857601D-01 -0.517784D-04  0.652042D-05  0.000000D+00
      3  -0.744274D-01 -0.246370D-04  0.278657D-01  0.196914D-01  0.235158D-04
      4   0.596182D-02  0.122555D-04 -0.196895D-01  0.278742D-01  0.315729D-04
      5   0.118526D-04  0.279899D+00  0.171483D-03 -0.201771D-04  0.000000D+00
      6   0.154961D+00  0.633107D-04 -0.710307D-01 -0.501941D-01 -0.595676D-04
      7  -0.124122D-01 -0.320272D-04  0.501870D-01 -0.710495D-01 -0.808741D-04
      8   0.427800D-05  0.000000D+00  0.000000D+00 -0.446010D-05  0.490987D-02
      9   0.929585D-02  0.372464D-04 -0.667617D-01  0.944730D-01  0.836109D-04
     10   0.116099D+00  0.735478D-04 -0.944810D-01 -0.667362D-01 -0.599670D-04
     11  -0.269235D-04  0.397099D+00  0.584792D-03 -0.240722D-04  0.000000D+00
     12  -0.996404D-02 -0.561728D-01 -0.396790D-02 -0.401524D-01 -0.427703D-04
     13   0.995783D-02 -0.561928D-01  0.386026D-02  0.401523D-01  0.427710D-04
     14   0.249635D+00  0.965151D-04 -0.120196D+00 -0.849056D-01 -0.799182D-04
     15  -0.199943D-01 -0.413859D-04  0.849347D-01 -0.120197D+00 -0.111104D-03
     16  -0.135960D-01  0.374973D-04 -0.401575D-01  0.391324D-02  0.115175D-04
               596           597           598           599           600 
      1  -0.112994D+03 -0.112984D+03 -0.112979D+03 -0.112979D+03 -0.112891D+03
      2  -0.505171D-01 -0.116096D+00 -0.583483D-05  0.157930D-05  0.000000D+00
      3   0.282297D-05  0.158452D-05  0.146309D-02  0.376194D-01 -0.337547D-02
      4   0.000000D+00  0.261548D-05 -0.376189D-01  0.146441D-02  0.408111D-01
      5   0.142065D+00  0.373533D+00  0.171041D-04 -0.285651D-05 -0.237954D-05
      6  -0.665404D-05 -0.292614D-05 -0.384670D-02 -0.989021D-01  0.838937D-02
      7   0.000000D+00 -0.610863D-05  0.989006D-01 -0.384976D-02 -0.101431D+00
      8   0.000000D+00  0.000000D+00  0.000000D+00  0.000000D+00  0.000000D+00
      9   0.368023D-05 -0.148936D-04 -0.125715D+00  0.489003D-02 -0.160604D-01
     10  -0.225697D-04 -0.135031D-04 -0.489284D-02 -0.125709D+00 -0.132912D-02
     11  -0.663733D+00 -0.140658D+01 -0.516221D-04 -0.131881D-05  0.567027D-05
     12  -0.904670D-04  0.335176D-01 -0.880276D-01  0.821944D-01  0.471742D-01
     13  -0.116052D-03  0.335112D-01  0.880195D-01 -0.821848D-01 -0.471702D-01
     14  -0.420378D-04 -0.180290D-04 -0.132288D-01 -0.339819D+00 -0.744707D-02
     15  -0.144393D-04 -0.265275D-05  0.339814D+00 -0.132156D-01  0.900902D-01
     16   0.584584D-05 -0.129489D-04  0.821873D-01  0.880238D-01 -0.480634D-01
               601           602           603           604           605 
      1  -0.112891D+03 -0.112846D+03 -0.112843D+03 -0.112843D+03 -0.112837D+03
      2  -0.120595D-05  0.000000D+00  0.638750D-05  0.000000D+00  0.911703D-02
      3  -0.408068D-01  0.107175D-03  0.113048D+00 -0.417023D-02 -0.981190D-04
      4  -0.337277D-02 -0.205997D-03 -0.417300D-02 -0.113048D+00 -0.100891D-04
      5   0.302661D-05  0.000000D+00  0.342752D-04 -0.972338D-05  0.332996D-01
      6   0.101419D+00 -0.305833D-03 -0.323196D+00  0.119228D-01  0.280704D-03
      7   0.838244D-02  0.587397D-03  0.119299D-01  0.323197D+00  0.300311D-04
      8   0.000000D+00 -0.304834D-02  0.417058D-05  0.689664D-05  0.000000D+00
      9   0.132710D-02 -0.119797D-02 -0.247206D-01 -0.670032D+00 -0.781114D-04
     10  -0.160656D-01 -0.621186D-03 -0.670055D+00  0.247304D-01  0.553172D-03
     11   0.109430D-04  0.000000D+00 -0.126342D-02  0.241026D-03 -0.149661D+01
     12  -0.480594D-01  0.763524D-04 -0.583218D-01  0.727773D-01 -0.381803D-01
     13   0.480586D-01 -0.764015D-04  0.582403D-01 -0.727619D-01 -0.382999D-01
     14  -0.900996D-01 -0.596360D-03 -0.640969D+00  0.236563D-01  0.530233D-03
     15  -0.745118D-02  0.114231D-02  0.236471D-01  0.640921D+00  0.682329D-04
     16  -0.471723D-01 -0.175825D-03 -0.727563D-01 -0.582861D-01  0.455139D-04
               606           607           608           609           610 
      1  -0.112831D+03 -0.112816D+03 -0.112816D+03 -0.112805D+03 -0.112805D+03
      2  -0.795212D-02  0.000000D+00  0.000000D+00 -0.303442D-05  0.409664D-05
      3  -0.828132D-05 -0.206443D-01  0.106558D-01  0.110100D+00 -0.485672D-01
      4  -0.199258D-05 -0.106735D-01 -0.206168D-01  0.485602D-01  0.110098D+00
      5   0.387632D-01  0.152851D-05  0.178715D-05  0.139146D-04 -0.138841D-04
      6   0.248658D-04  0.475364D-01 -0.245296D-01 -0.299938D+00  0.132308D+00
      7   0.752882D-05  0.245787D-01  0.474625D-01 -0.132290D+00 -0.299931D+00
      8   0.000000D+00 -0.115361D-05  0.000000D+00 -0.151911D-05  0.302869D-05
      9   0.972893D-05 -0.358265D-01 -0.693444D-01 -0.113865D+00 -0.258118D+00
     10   0.352671D-04  0.692432D-01 -0.358142D-01  0.258088D+00 -0.113829D+00
     11   0.305263D+00 -0.467894D-04 -0.651687D-04 -0.201978D-04  0.749890D-04
     12  -0.378289D-01 -0.887363D-01 -0.355736D-01  0.223169D-01  0.106068D-01
     13  -0.378621D-01  0.887241D-01  0.355702D-01 -0.223184D-01 -0.106069D-01
     14   0.158159D-04  0.257747D+00 -0.133246D+00  0.147962D+00 -0.652280D-01
     15  -0.329866D-04  0.133265D+00  0.257815D+00  0.652980D-01  0.147954D+00
     16   0.180138D-05 -0.355972D-01  0.887050D-01  0.105882D-01 -0.223395D-01
               611           612           613           614           615 
      1  -0.112790D+03 -0.112790D+03 -0.112789D+03 -0.112789D+03 -0.112722D+03
      2   0.000000D+00  0.165667D-01  0.417174D-04  0.228827D-03 -0.252320D-01
      3   0.103158D-03  0.284166D-03  0.719276D-02 -0.220161D-01  0.572438D-05
      4  -0.136833D-03  0.156845D-03 -0.220365D-01 -0.720325D-02  0.555430D-05
      5   0.000000D+00 -0.454581D-01 -0.118136D-03 -0.622678D-03  0.649283D-01
      6  -0.283095D-03 -0.775909D-03 -0.196831D-01  0.602483D-01 -0.175274D-04
      7   0.372808D-03 -0.429358D-03  0.603048D-01  0.197125D-01 -0.161746D-04
      8   0.173789D-01  0.000000D+00 -0.116186D-03  0.324391D-04  0.000000D+00
      9  -0.103902D-02  0.134539D-02 -0.176971D+00 -0.578251D-01 -0.178697D-04
     10  -0.729828D-03 -0.236895D-02 -0.578498D-01  0.177003D+00  0.265363D-04
     11   0.328429D-05  0.618099D+00  0.171845D-02  0.870932D-02  0.542916D+00
     12   0.841846D-04 -0.218136D-01  0.256984D-01  0.424116D-01 -0.121533D+00
     13  -0.843246D-04 -0.204617D-01 -0.258028D-01 -0.430036D-01 -0.121533D+00
     14  -0.115457D-02 -0.374307D-02 -0.919217D-01  0.281276D+00  0.264036D-04
     15   0.167635D-02 -0.207770D-02  0.281266D+00  0.919120D-01  0.212680D-04
     16  -0.340371D-03 -0.245290D-03 -0.427082D-01  0.257650D-01 -0.120817D-05
               616           617           618           619           620 
      1  -0.112714D+03 -0.112714D+03 -0.112691D+03 -0.112691D+03 -0.112690D+03
      2  -0.283441D-05 -0.145384D-05 -0.257819D-05 -0.115874D-04  0.000000D+00
      3  -0.301393D-01  0.202586D-01  0.422701D-01  0.447575D-01 -0.283199D-03
      4  -0.202625D-01 -0.301431D-01  0.447608D-01 -0.422721D-01  0.435296D-04
      5   0.823177D-05  0.452814D-05  0.702344D-05  0.392823D-04  0.000000D+00
      6   0.961811D-01 -0.646502D-01 -0.118794D+00 -0.125784D+00  0.797106D-03
      7   0.646603D-01  0.961913D-01 -0.125793D+00  0.118799D+00 -0.122642D-03
      8   0.123767D-05  0.268521D-05 -0.779441D-04 -0.109668D-03 -0.293406D-01
      9   0.110266D+00  0.163969D+00  0.317333D+00 -0.299731D+00  0.297185D-03
     10  -0.163984D+00  0.110180D+00 -0.299713D+00 -0.317393D+00  0.195168D-02
     11   0.659791D-04 -0.341557D-04  0.296024D-04  0.131246D-03  0.000000D+00
     12  -0.913969D-02 -0.251373D-02 -0.153029D-01  0.682666D-03  0.404782D-04
     13   0.913061D-02  0.250711D-02  0.152992D-01 -0.686747D-03 -0.404439D-04
     14  -0.186062D+00  0.125018D+00 -0.171664D+00 -0.181814D+00  0.110061D-02
     15  -0.125103D+00 -0.186037D+00 -0.181741D+00  0.171681D+00 -0.169563D-03
     16  -0.248899D-02  0.916071D-02 -0.679823D-03 -0.152879D-01  0.638383D-04
               621           622           623           624           625 
      1  -0.112677D+03 -0.112671D+03 -0.112671D+03 -0.112622D+03 -0.112589D+03
      2  -0.104420D+00 -0.362518D-05 -0.251883D-04  0.440337D-01  0.140630D-04
      3  -0.278536D-05  0.149758D-01 -0.194588D-02  0.000000D+00 -0.518116D-03
      4   0.962039D-05 -0.195084D-02 -0.149674D-01  0.000000D+00 -0.754572D-02
      5   0.351879D+00  0.130809D-04  0.841499D-04 -0.132133D+00 -0.476253D-04
      6   0.767534D-05 -0.395285D-01  0.513462D-02  0.000000D+00  0.192004D-02
      7  -0.268109D-04  0.515050D-02  0.395047D-01  0.117126D-05  0.279627D-01
      8   0.000000D+00 -0.559356D-05 -0.126851D-05  0.000000D+00  0.000000D+00
      9  -0.100425D-03  0.712417D-01  0.547413D+00  0.429461D-05 -0.290187D+00
     10   0.235843D-04  0.547384D+00 -0.712316D-01 -0.235423D-05  0.199327D-01
     11   0.110991D+01  0.570676D-04  0.251055D-03  0.586210D+00 -0.256202D-03
     12  -0.188610D-02 -0.270093D-01  0.409884D-01  0.576847D-01 -0.746307D-01
     13  -0.186882D-02  0.270175D-01 -0.410018D-01  0.576813D-01  0.746493D-01
     14   0.298421D-05  0.610000D+00 -0.793726D-01 -0.108603D-04  0.289023D-01
     15   0.127689D-03 -0.793970D-01 -0.610021D+00 -0.161711D-04  0.420830D+00
     16   0.123223D-04 -0.409802D-01 -0.270264D-01  0.000000D+00  0.559969D-01
               626           627           628           629           630 
      1  -0.112589D+03 -0.112580D+03 -0.112542D+03 -0.112542D+03 -0.112504D+03
      2  -0.227174D-05 -0.732368D-01 -0.324157D-05  0.000000D+00 -0.387280D-01
      3  -0.754743D-02 -0.390397D-05  0.777076D-01 -0.490618D-01  0.421388D-05
      4   0.518653D-03 -0.373681D-05  0.490572D-01  0.777003D-01  0.121830D-04
      5   0.102050D-04  0.250413D+00  0.108330D-04  0.200237D-05  0.140162D+00
      6   0.279683D-01  0.106384D-04 -0.220008D+00  0.138905D+00 -0.103464D-04
      7  -0.192194D-02  0.119771D-04 -0.138892D+00 -0.219987D+00 -0.340320D-04
      8   0.000000D+00  0.000000D+00  0.000000D+00  0.000000D+00  0.000000D+00
      9   0.199349D-01 -0.529849D-04  0.149465D+00  0.236717D+00  0.237245D-04
     10   0.290199D+00  0.109410D-04 -0.236766D+00  0.149475D+00 -0.464904D-04
     11   0.143650D-04  0.141723D+01  0.207419D-04 -0.108092D-04 -0.155720D+00
     12  -0.559906D-01 -0.256570D-01  0.731055D-01  0.222377D-01 -0.707164D-01
     13   0.559919D-01 -0.256323D-01 -0.731021D-01 -0.222393D-01 -0.707659D-01
     14   0.420833D+00  0.197012D-04 -0.293803D+00  0.185484D+00 -0.150009D-04
     15  -0.289129D-01  0.746795D-04 -0.185491D+00 -0.293775D+00  0.276850D-04
     16  -0.746295D-01  0.102931D-04  0.222516D-01 -0.731021D-01 -0.219984D-05
               631           632           633           634           635 
      1  -0.112499D+03 -0.112499D+03 -0.112470D+03 -0.112470D+03 -0.112373D+03
      2   0.949781D-05 -0.103711D-04  0.000000D+00  0.176361D-05 -0.216596D-05
      3   0.444661D-01  0.383904D-02 -0.575864D-01  0.198902D-01  0.198100D-01
      4   0.385287D-02 -0.444751D-01 -0.198827D-01 -0.575881D-01 -0.688349D-02
      5  -0.348828D-04  0.379467D-04 -0.181307D-05 -0.518517D-05  0.520306D-05
      6  -0.124647D+00 -0.107609D-01  0.167643D+00 -0.579036D-01 -0.634875D-01
      7  -0.108010D-01  0.124673D+00  0.578817D-01  0.167648D+00  0.220598D-01
      8   0.000000D+00  0.000000D+00  0.000000D+00  0.000000D+00  0.171649D-05
      9   0.137210D-01 -0.158275D+00 -0.158539D+00 -0.459138D+00 -0.127529D+00
     10  -0.158224D+00 -0.136507D-01  0.459164D+00 -0.158575D+00 -0.367107D+00
     11   0.128840D-04 -0.749097D-04  0.195307D-04 -0.229883D-04  0.212673D-04
     12   0.535245D-01 -0.521589D-01 -0.494461D-01 -0.287091D-01  0.441133D-01
     13  -0.534983D-01  0.521164D-01  0.494514D-01  0.287057D-01 -0.441254D-01
     14   0.974031D-02  0.865977D-03  0.342491D+00 -0.118271D+00 -0.327656D+00
     15   0.814203D-03 -0.968744D-02  0.118263D+00  0.342468D+00  0.113826D+00
     16   0.521227D-01  0.535190D-01 -0.287187D-01  0.494551D-01  0.111148D+00
               636           637           638           639           640 
      1  -0.112373D+03 -0.112330D+03 -0.112288D+03 -0.112288D+03 -0.112245D+03
      2   0.332680D-05 -0.485508D-01  0.185378D-05 -0.241369D-05  0.280732D-01
      3  -0.688131D-02  0.000000D+00 -0.322292D-01  0.277434D-02  0.000000D+00
      4  -0.198159D-01 -0.219978D-05  0.277337D-02  0.322290D-01  0.270379D-05
      5  -0.100564D-04  0.140808D+00 -0.493975D-05  0.620770D-05 -0.550767D-01
      6   0.220534D-01  0.000000D+00  0.956373D-01 -0.823260D-02  0.000000D+00
      7   0.635049D-01  0.644346D-05 -0.822972D-02 -0.956367D-01 -0.784723D-05
      8   0.000000D+00  0.000000D+00  0.000000D+00  0.000000D+00  0.000000D+00
      9  -0.367139D+00 -0.255706D-04  0.169764D-01  0.197250D+00  0.112720D-04
     10   0.127526D+00  0.133474D-04  0.197253D+00 -0.169771D-01 -0.886994D-05
     11  -0.730596D-05 -0.420130D+00 -0.424712D-04  0.392358D-04 -0.118267D+01
     12  -0.111144D+00 -0.140090D+00 -0.251600D-01  0.347635D-01 -0.307443D-01
     13   0.111159D+00 -0.140076D+00  0.251597D-01 -0.347724D-01 -0.307516D-01
     14   0.113816D+00  0.113600D-04  0.237950D+00 -0.204811D-01 -0.138175D-04
     15   0.327678D+00  0.304308D-04 -0.204772D-01 -0.237940D+00 -0.137783D-04
     16   0.441314D-01  0.000000D+00 -0.347699D-01 -0.251571D-01  0.110209D-05
               641           642           643           644           645 
      1  -0.112074D+03 -0.112074D+03 -0.111832D+03 -0.111787D+03 -0.111787D+03
      2   0.000000D+00  0.000000D+00 -0.583960D-01  0.000000D+00  0.152766D-05
      3   0.960626D-02 -0.210237D-01  0.000000D+00 -0.431687D-03 -0.783511D-02
      4  -0.210238D-01 -0.960621D-02  0.000000D+00 -0.783499D-02  0.431731D-03
      5   0.385565D-05 -0.165083D-05  0.209319D+00 -0.312887D-05 -0.612121D-05
      6  -0.308915D-01  0.676075D-01  0.000000D+00  0.148970D-02  0.270395D-01
      7   0.676077D-01  0.308914D-01 -0.134810D-05  0.270390D-01 -0.149000D-02
      8   0.227589D-05  0.000000D+00  0.000000D+00  0.000000D+00  0.000000D+00
      9   0.439314D+00  0.200732D+00 -0.247027D-05 -0.890805D-01  0.490927D-02
     10   0.200733D+00 -0.439313D+00  0.162661D-05  0.490738D-02  0.890812D-01
     11  -0.606524D-05 -0.381685D-05 -0.721286D+00 -0.940475D-04 -0.118771D-04
     12   0.357452D-02  0.781727D-02 -0.519301D-02 -0.288456D-01 -0.222620D-01
     13  -0.358013D-02 -0.780247D-02 -0.519485D-02  0.288742D-01  0.222682D-01
     14   0.240165D+00 -0.525615D+00  0.215530D-05  0.716772D-02  0.130059D+00
     15  -0.525615D+00 -0.240166D+00  0.279190D-05  0.130056D+00 -0.716452D-02
     16  -0.780206D-02  0.358192D-02  0.000000D+00  0.222704D-01 -0.288569D-01
               646           647           648 
      1  -0.111767D+03 -0.111591D+03 -0.111450D+03
      2  -0.196585D-01 -0.630026D-01  0.192332D-02
      3   0.000000D+00  0.209910D-05  0.138661D-05
      4   0.000000D+00  0.000000D+00  0.000000D+00
      5   0.738910D-01  0.246251D+00  0.318860D-01
      6   0.000000D+00 -0.711973D-05 -0.450855D-05
      7   0.333219D-05  0.000000D+00 -0.172216D-05
      8   0.000000D+00  0.000000D+00  0.000000D+00
      9  -0.744316D-05 -0.192961D-05  0.239507D-05
     10   0.253333D-05  0.164428D-04  0.425275D-05
     11   0.908214D+00 -0.156428D+00 -0.624595D+00
     12  -0.162363D+00  0.429083D-01 -0.744744D-02
     13  -0.162359D+00  0.429084D-01 -0.744639D-02
     14  -0.267126D-05  0.167524D-04  0.000000D+00
     15   0.849182D-05  0.000000D+00 -0.657749D-05
     16   0.177644D-05  0.000000D+00 -0.102223D-05
 Unable to Open any file for archive entry.
 1\1\GINC-HEL22\SP\RLC-BLYP TD-FC\Gen\C3H4\SABYASACHI\21-Mar-2022\0\\#P
  TD(Nstates=10000) lc-blyp/Gen SCF(maxcycles=100) Int(Grid=ultrafine)\
 \xGDB7_00001_tier4.com\\0,1\C,0,1.236673,0.000003,0.000003\C,0,-0.2187
 42,-0.000006,-0.000005\C,0,-1.41578,0.000004,-0.000001\H,0,1.622045,0.
 979039,0.288094\H,0,1.62207,-0.240023,-0.991898\H,0,1.622037,-0.739019
 ,0.703815\H,0,-2.479058,-0.000005,0.000008\\Version=EM64L-G16RevC.01\S
 tate=1-A\HF=-116.195083\RMSD=4.297e-09\PG=C01 [X(C3H4)]\\@
 The archive entry for this job was punched.


 KNOWLEDGE IS OF TWO KINDS:  WE KNOW A SUBJECT OURSELVES OR WE KNOW 
 WHERE WE CAN FIND INFORMATION UPON IT.

                                    -- SAMUEL JOHNSON
 Job cpu time:       0 days  0 hours  9 minutes 16.2 seconds.
 Elapsed time:       0 days  0 hours  1 minutes  9.9 seconds.
 File lengths (MBytes):  RWF=    545 Int=      0 D2E=      0 Chk=    132 Scr=      1
 Normal termination of Gaussian 16 at Mon Mar 21 20:17:22 2022.
