 Entering Gaussian System, Link 0=g16
 Input=000006.com
 Output=000006.log
 Initial command:
 /home/sabyasachi/g16/l1.exe "/scratch/sabyasachi/PBS_7976206.helios/Gau-45139.inp" -scrdir="/scratch/sabyasachi/PBS_7976206.helios/"
 Entering Link 1 = /home/sabyasachi/g16/l1.exe PID=     45140.
  
 Copyright (c) 1988-2019, Gaussian, Inc.  All Rights Reserved.
  
 This is part of the Gaussian(R) 16 program.  It is based on
 the Gaussian(R) 09 system (copyright 2009, Gaussian, Inc.),
 the Gaussian(R) 03 system (copyright 2003, Gaussian, Inc.),
 the Gaussian(R) 98 system (copyright 1998, Gaussian, Inc.),
 the Gaussian(R) 94 system (copyright 1995, Gaussian, Inc.),
 the Gaussian 92(TM) system (copyright 1992, Gaussian, Inc.),
 the Gaussian 90(TM) system (copyright 1990, Gaussian, Inc.),
 the Gaussian 88(TM) system (copyright 1988, Gaussian, Inc.),
 the Gaussian 86(TM) system (copyright 1986, Carnegie Mellon
 University), and the Gaussian 82(TM) system (copyright 1983,
 Carnegie Mellon University). Gaussian is a federally registered
 trademark of Gaussian, Inc.
  
 This software contains proprietary and confidential information,
 including trade secrets, belonging to Gaussian, Inc.
  
 This software is provided under written license and may be
 used, copied, transmitted, or stored only in accord with that
 written license.
  
 The following legend is applicable only to US Government
 contracts under FAR:
  
                    RESTRICTED RIGHTS LEGEND
  
 Use, reproduction and disclosure by the US Government is
 subject to restrictions as set forth in subparagraphs (a)
 and (c) of the Commercial Computer Software - Restricted
 Rights clause in FAR 52.227-19.
  
 Gaussian, Inc.
 340 Quinnipiac St., Bldg. 40, Wallingford CT 06492
  
  
 ---------------------------------------------------------------
 Warning -- This program may not be used in any manner that
 competes with the business of Gaussian, Inc. or will provide
 assistance to any competitor of Gaussian, Inc.  The licensee
 of this program is prohibited from giving any competitor of
 Gaussian, Inc. access to this program.  By using this program,
 the user acknowledges that Gaussian, Inc. is engaged in the
 business of creating and licensing software in the field of
 computational chemistry and represents and warrants to the
 licensee that it is not a competitor of Gaussian, Inc. and that
 it will not use this program in any manner prohibited above.
 ---------------------------------------------------------------
  

 Cite this work as:
 Gaussian 16, Revision C.01,
 M. J. Frisch, G. W. Trucks, H. B. Schlegel, G. E. Scuseria, 
 M. A. Robb, J. R. Cheeseman, G. Scalmani, V. Barone, 
 G. A. Petersson, H. Nakatsuji, X. Li, M. Caricato, A. V. Marenich, 
 J. Bloino, B. G. Janesko, R. Gomperts, B. Mennucci, H. P. Hratchian, 
 J. V. Ortiz, A. F. Izmaylov, J. L. Sonnenberg, D. Williams-Young, 
 F. Ding, F. Lipparini, F. Egidi, J. Goings, B. Peng, A. Petrone, 
 T. Henderson, D. Ranasinghe, V. G. Zakrzewski, J. Gao, N. Rega, 
 G. Zheng, W. Liang, M. Hada, M. Ehara, K. Toyota, R. Fukuda, 
 J. Hasegawa, M. Ishida, T. Nakajima, Y. Honda, O. Kitao, H. Nakai, 
 T. Vreven, K. Throssell, J. A. Montgomery, Jr., J. E. Peralta, 
 F. Ogliaro, M. J. Bearpark, J. J. Heyd, E. N. Brothers, K. N. Kudin, 
 V. N. Staroverov, T. A. Keith, R. Kobayashi, J. Normand, 
 K. Raghavachari, A. P. Rendell, J. C. Burant, S. S. Iyengar, 
 J. Tomasi, M. Cossi, J. M. Millam, M. Klene, C. Adamo, R. Cammi, 
 J. W. Ochterski, R. L. Martin, K. Morokuma, O. Farkas, 
 J. B. Foresman, and D. J. Fox, Gaussian, Inc., Wallingford CT, 2019.
 
 ******************************************
 Gaussian 16:  EM64L-G16RevC.01  3-Jul-2019
                21-Mar-2022 
 ******************************************
 %mem=64gb
 %nproc=8
 Will use up to    8 processors via shared memory.
 ----------------------------------------------------------------------
 #P TD(Nstates=10000) lc-blyp/Gen SCF(maxcycles=100) Int(Grid=ultrafine
 )
 ----------------------------------------------------------------------
 1/38=1,172=1/1;
 2/12=2,17=6,18=5,40=1/2;
 3/5=7,11=9,25=1,30=1,74=1000402,75=-5/1,2,3,8;
 4//1;
 5/5=2,7=100,38=5/2;
 8/6=1,10=1,108=10000/1;
 9/41=10000,42=1,70=2/14;
 6/7=2,8=2,9=2,10=2/1;
 99/5=1,9=1/99;
 Leave Link    1 at Mon Mar 21 20:06:43 2022, MaxMem=  8589934592 cpu:               0.4 elap:               0.1
 (Enter /home/sabyasachi/g16/l101.exe)
 ---------------------
 xGDB7_00001_tier4.com
 ---------------------
 Symbolic Z-matrix:
 Charge =  0 Multiplicity = 1
 6                    -0.04908   0.70204   0. 
 7                    -0.04908  -0.75424   0. 
 1                     0.94611   1.1666    0. 
 1                    -0.58757   1.0626    0.87777 
 1                    -0.58757   1.0626   -0.87777 
 1                     0.43353  -1.11218   0.8125 
 1                     0.43353  -1.11218  -0.8125 
 
 ITRead=  0  0  0  0  0  0  0
 MicOpt= -1 -1 -1 -1 -1 -1 -1
 NAtoms=      7 NQM=        7 NQMF=       0 NMMI=      0 NMMIF=      0
                NMic=       0 NMicF=      0.
                    Isotopes and Nuclear Properties:
 (Nuclear quadrupole moments (NQMom) in fm**2, nuclear magnetic moments (NMagM)
  in nuclear magnetons)

  Atom         1           2           3           4           5           6           7
 IAtWgt=          12          14           1           1           1           1           1
 AtmWgt=  12.0000000  14.0030740   1.0078250   1.0078250   1.0078250   1.0078250   1.0078250
 NucSpn=           0           2           1           1           1           1           1
 AtZEff=  -0.0000000  -0.0000000  -0.0000000  -0.0000000  -0.0000000  -0.0000000  -0.0000000
 NQMom=    0.0000000   2.0440000   0.0000000   0.0000000   0.0000000   0.0000000   0.0000000
 NMagM=    0.0000000   0.4037610   2.7928460   2.7928460   2.7928460   2.7928460   2.7928460
 AtZNuc=   6.0000000   7.0000000   1.0000000   1.0000000   1.0000000   1.0000000   1.0000000
 Leave Link  101 at Mon Mar 21 20:06:43 2022, MaxMem=  8589934592 cpu:               0.6 elap:               0.1
 (Enter /home/sabyasachi/g16/l202.exe)
                          Input orientation:                          
 ---------------------------------------------------------------------
 Center     Atomic      Atomic             Coordinates (Angstroms)
 Number     Number       Type             X           Y           Z
 ---------------------------------------------------------------------
      1          6           0       -0.049078    0.702042    0.000000
      2          7           0       -0.049078   -0.754243    0.000000
      3          1           0        0.946109    1.166603    0.000000
      4          1           0       -0.587574    1.062597    0.877770
      5          1           0       -0.587574    1.062597   -0.877770
      6          1           0        0.433525   -1.112175    0.812504
      7          1           0        0.433525   -1.112175   -0.812504
 ---------------------------------------------------------------------
                    Distance matrix (angstroms):
                    1          2          3          4          5
     1  C    0.000000
     2  N    1.456285   0.000000
     3  H    1.098278   2.163342   0.000000
     4  H    1.091081   2.088388   1.770164   0.000000
     5  H    1.091081   2.088388   1.770164   1.755540   0.000000
     6  H    2.045593   1.010536   2.473001   2.403443   2.937567
     7  H    2.045593   1.010536   2.473001   2.937567   2.403443
                    6          7
     6  H    0.000000
     7  H    1.625008   0.000000
 Stoichiometry    CH5N
 Framework group  CS[SG(CHN),X(H4)]
 Deg. of freedom     9
 Full point group                 CS      NOp   2
 Largest Abelian subgroup         CS      NOp   2
 Largest concise Abelian subgroup CS      NOp   2
                         Standard orientation:                         
 ---------------------------------------------------------------------
 Center     Atomic      Atomic             Coordinates (Angstroms)
 Number     Number       Type             X           Y           Z
 ---------------------------------------------------------------------
      1          6           0       -0.049078    0.702042   -0.000000
      2          7           0       -0.049078   -0.754243    0.000000
      3          1           0        0.946109    1.166603   -0.000000
      4          1           0       -0.587574    1.062597    0.877770
      5          1           0       -0.587574    1.062597   -0.877770
      6          1           0        0.433525   -1.112175    0.812504
      7          1           0        0.433525   -1.112175   -0.812504
 ---------------------------------------------------------------------
 Rotational constants (GHZ):         104.1843361          22.9598117          22.0420045
 Leave Link  202 at Mon Mar 21 20:06:43 2022, MaxMem=  8589934592 cpu:               0.1 elap:               0.0
 (Enter /home/sabyasachi/g16/l301.exe)
 General basis read from cards:  (5D, 7F)
 Centers:       3      4      5      6      7
 S 3 1.00
     Exponent=  1.3010701000D+01 Coefficients=  1.9682158000D-02
     Exponent=  1.9622572000D+00 Coefficients=  1.3796524000D-01
     Exponent=  4.4453796000D-01 Coefficients=  4.7831935000D-01
 S 1 1.00
     Exponent=  1.2194962000D-01 Coefficients=  1.0000000000D+00
 P 1 1.00
     Exponent=  8.0000000000D-01 Coefficients=  1.0000000000D+00
 P 1 1.00
     Exponent=  1.1704099050D-01 Coefficients=  1.0000000000D+00
 ****
 Centers:       1
 S 5 1.00
     Exponent=  1.2384016938D+03 Coefficients=  5.4568832082D-03
     Exponent=  1.8629004992D+02 Coefficients=  4.0638409211D-02
     Exponent=  4.2251176346D+01 Coefficients=  1.8025593888D-01
     Exponent=  1.1676557932D+01 Coefficients=  4.6315121755D-01
     Exponent=  3.5930506482D+00 Coefficients=  4.4087173314D-01
 S 1 1.00
     Exponent=  4.0245147363D-01 Coefficients=  1.0000000000D+00
 S 1 1.00
     Exponent=  1.3090182668D-01 Coefficients=  1.0000000000D+00
 S 1 1.00
     Exponent=  6.7053540256D-02 Coefficients=  1.0000000000D+00
 P 3 1.00
     Exponent=  9.4680970621D+00 Coefficients=  3.8387871728D-02
     Exponent=  2.0103545142D+00 Coefficients=  2.1117025112D-01
     Exponent=  5.4771004707D-01 Coefficients=  5.1328172114D-01
 P 1 1.00
     Exponent=  1.5268613795D-01 Coefficients=  1.0000000000D+00
 D 1 1.00
     Exponent=  8.0000000000D-01 Coefficients=  1.0000000000D+00
 D 1 1.00
     Exponent=  1.1713185140D-01 Coefficients=  1.0000000000D+00
 ****
 Centers:       2
 S 5 1.00
     Exponent=  1.7128415853D+03 Coefficients= -5.3934125305D-03
     Exponent=  2.5764812677D+02 Coefficients= -4.0221581118D-02
     Exponent=  5.8458245853D+01 Coefficients= -1.7931144990D-01
     Exponent=  1.6198367905D+01 Coefficients= -4.6376317823D-01
     Exponent=  5.0052600809D+00 Coefficients= -4.4171422662D-01
 S 1 1.00
     Exponent=  5.8731856571D-01 Coefficients=  1.0000000000D+00
 S 1 1.00
     Exponent=  1.8764592253D-01 Coefficients=  1.0000000000D+00
 S 1 1.00
     Exponent=  9.6171241529D-02 Coefficients=  1.0000000000D+00
 P 3 1.00
     Exponent=  1.3571470233D+01 Coefficients= -4.0072398852D-02
     Exponent=  2.9257372874D+00 Coefficients= -2.1807045028D-01
     Exponent=  7.9927750754D-01 Coefficients= -5.1294466049D-01
 P 1 1.00
     Exponent=  2.1954348034D-01 Coefficients=  1.0000000000D+00
 D 1 1.00
     Exponent=  1.0000000000D+00 Coefficients=  1.0000000000D+00
 D 1 1.00
     Exponent=  1.6697708112D-01 Coefficients=  1.0000000000D+00
 ****
 Ernie: Thresh=  0.10000D-02 Tol=  0.10000D-05 Strict=F.
 There are    54 symmetry adapted cartesian basis functions of A'  symmetry.
 There are    30 symmetry adapted cartesian basis functions of A"  symmetry.
 There are    50 symmetry adapted basis functions of A'  symmetry.
 There are    30 symmetry adapted basis functions of A"  symmetry.
    80 basis functions,   114 primitive gaussians,    84 cartesian basis functions
     9 alpha electrons        9 beta electrons
       nuclear repulsion energy        42.1215507304 Hartrees.
 IExCor=10402 DFT=T Ex=LC-B+HF Corr=LYP ExCW=0 ScaHFX=  1.000000
 ScaDFX=  1.000000  1.000000  1.000000  1.000000 ScalE2=  1.000000  1.000000
 IRadAn=      5 IRanWt=     -1 IRanGd=            0 ICorTp=0 IEmpDi=  4
 HFx  wShort=  0.000000 wLong=  0.470000 cFull=  0.000000 cShort=  0.000000 cLong=  1.000000
 DFx  wShort=  0.000000 wLong=  0.470000 cFull=  0.000000 cShort=  0.000000 cLong=  1.000000
 NAtoms=    7 NActive=    7 NUniq=    5 SFac= 1.96D+00 NAtFMM=   60 NAOKFM=F Big=F
 Integral buffers will be    131072 words long.
 Raffenetti 1 integral format.
 Two-electron integral symmetry is turned on.
 Leave Link  301 at Mon Mar 21 20:06:43 2022, MaxMem=  8589934592 cpu:               0.6 elap:               0.1
 (Enter /home/sabyasachi/g16/l302.exe)
 NPDir=0 NMtPBC=     1 NCelOv=     1 NCel=       1 NClECP=     1 NCelD=      1
         NCelK=      1 NCelE2=     1 NClLst=     1 CellRange=     0.0.
 One-electron integrals computed using PRISM.
 One-electron integral symmetry used in STVInt
 NBasis=    80 RedAO= T EigKep=  5.26D-04  NBF=    50    30
 NBsUse=    80 1.00D-06 EigRej= -1.00D+00 NBFU=    50    30
 Precomputing XC quadrature grid using
 IXCGrd= 4 IRadAn=           5 IRanWt=          -1 IRanGd=           0 AccXCQ= 0.00D+00.
 Generated NRdTot=       0 NPtTot=           0 NUsed=           0 NTot=          32
 NSgBfM=    84    84    84    84    84 MxSgAt=     7 MxSgA2=     7.
 Leave Link  302 at Mon Mar 21 20:06:43 2022, MaxMem=  8589934592 cpu:               0.9 elap:               0.1
 (Enter /home/sabyasachi/g16/l303.exe)
 DipDrv:  MaxL=1.
 Leave Link  303 at Mon Mar 21 20:06:43 2022, MaxMem=  8589934592 cpu:               0.2 elap:               0.0
 (Enter /home/sabyasachi/g16/l308.exe)
 Leave Link  308 at Mon Mar 21 20:06:44 2022, MaxMem=  8589934592 cpu:               0.2 elap:               0.0
 (Enter /home/sabyasachi/g16/l401.exe)
 ExpMin= 6.71D-02 ExpMax= 1.71D+03 ExpMxC= 2.58D+02 IAcc=3 IRadAn=         5 AccDes= 0.00D+00
 Harris functional with IExCor=10402 and IRadAn=       5 diagonalized for initial guess.
 HarFok:  IExCor=10402 AccDes= 0.00D+00 IRadAn=         5 IDoV= 1 UseB2=F ITyADJ=14
 ICtDFT=  3500011 ScaDFX=  1.000000  1.000000  1.000000  1.000000
 FoFCou: FMM=F IPFlag=           0 FMFlag=      100000 FMFlg1=           0
         NFxFlg=           0 DoJE=T BraDBF=F KetDBF=T FulRan=T
         wScrn=  0.000000 ICntrl=       500 IOpCl=  0 I1Cent=   200000004 NGrid=           0
         NMat0=    1 NMatS0=      1 NMatT0=    0 NMatD0=    1 NMtDS0=    0 NMtDT0=    0
 Petite list used in FoFCou.
 Harris En= -91.5547690109687    
 JPrj=0 DoOrth=F DoCkMO=F.
 Initial guess orbital symmetries:
       Occupied  (A') (A') (A') (A') (A") (A') (A') (A") (A')
       Virtual   (A') (A') (A") (A') (A") (A') (A') (A") (A') (A')
                 (A") (A') (A") (A') (A') (A') (A") (A") (A') (A")
                 (A') (A') (A") (A') (A') (A") (A') (A") (A') (A")
                 (A') (A") (A') (A') (A') (A") (A') (A') (A') (A")
                 (A') (A") (A') (A') (A") (A') (A') (A") (A") (A")
                 (A') (A") (A') (A') (A") (A') (A") (A') (A") (A')
                 (A') (A") (A') (A') (A') (A") (A') (A") (A') (A')
                 (A")
 The electronic state of the initial guess is 1-A'.
 Leave Link  401 at Mon Mar 21 20:06:44 2022, MaxMem=  8589934592 cpu:               1.7 elap:               0.2
 (Enter /home/sabyasachi/g16/l502.exe)
 Keep R1 ints in memory in symmetry-blocked form, NReq=18054812.
 FoFCou: FMM=F IPFlag=           0 FMFlag=           0 FMFlg1=           0
         NFxFlg=           0 DoJE=F BraDBF=F KetDBF=F FulRan=T
         wScrn=  0.000000 ICntrl=       600 IOpCl=  0 I1Cent=           0 NGrid=           0
         NMat0=    1 NMatS0=   3240 NMatT0=    0 NMatD0=    1 NMtDS0=    0 NMtDT0=    0
 Petite list used in FoFCou.
 Closed shell SCF:
 Using DIIS extrapolation, IDIIS=  1040.
 NGot=  8589934592 LenX=  8587270692 LenY=  8587263195
 Requested convergence on RMS density matrix=1.00D-08 within 100 cycles.
 Requested convergence on MAX density matrix=1.00D-06.
 Requested convergence on             energy=1.00D-06.
 No special actions if energy rises.
 Integral accuracy reduced to 1.0D-05 until final iterations.

 Cycle   1  Pass 0  IDiag  1:
 E= -95.4918100058243    
 DIIS: error= 1.80D-02 at cycle   1 NSaved=   1.
 NSaved= 1 IEnMin= 1 EnMin= -95.4918100058243     IErMin= 1 ErrMin= 1.80D-02
 ErrMax= 1.80D-02  0.00D+00 EMaxC= 1.00D-01 BMatC= 3.20D-02 BMatP= 3.20D-02
 IDIUse=3 WtCom= 8.20D-01 WtEn= 1.80D-01
 Coeff-Com:  0.100D+01
 Coeff-En:   0.100D+01
 Coeff:      0.100D+01
 Gap=     0.401 Goal=   None    Shift=    0.000
 GapD=    0.401 DampG=2.000 DampE=0.500 DampFc=1.0000 IDamp=-1.
 RMSDP=5.11D-03 MaxDP=9.27D-02              OVMax= 6.17D-02

 Cycle   2  Pass 0  IDiag  1:
 E= -95.5097258895736     Delta-E=       -0.017915883749 Rises=F Damp=F
 DIIS: error= 1.37D-02 at cycle   2 NSaved=   2.
 NSaved= 2 IEnMin= 2 EnMin= -95.5097258895736     IErMin= 2 ErrMin= 1.37D-02
 ErrMax= 1.37D-02  0.00D+00 EMaxC= 1.00D-01 BMatC= 1.51D-02 BMatP= 3.20D-02
 IDIUse=3 WtCom= 8.63D-01 WtEn= 1.37D-01
 Coeff-Com:  0.401D+00 0.599D+00
 Coeff-En:   0.206D+00 0.794D+00
 Coeff:      0.374D+00 0.626D+00
 Gap=     0.459 Goal=   None    Shift=    0.000
 RMSDP=4.34D-03 MaxDP=2.10D-01 DE=-1.79D-02 OVMax= 3.70D-02

 Cycle   3  Pass 0  IDiag  1:
 E= -95.5233073657969     Delta-E=       -0.013581476223 Rises=F Damp=F
 DIIS: error= 1.91D-03 at cycle   3 NSaved=   3.
 NSaved= 3 IEnMin= 3 EnMin= -95.5233073657969     IErMin= 3 ErrMin= 1.91D-03
 ErrMax= 1.91D-03  0.00D+00 EMaxC= 1.00D-01 BMatC= 4.49D-04 BMatP= 1.51D-02
 IDIUse=3 WtCom= 9.81D-01 WtEn= 1.91D-02
 Coeff-Com:  0.356D-01 0.156D+00 0.808D+00
 Coeff-En:   0.000D+00 0.000D+00 0.100D+01
 Coeff:      0.349D-01 0.153D+00 0.812D+00
 Gap=     0.451 Goal=   None    Shift=    0.000
 RMSDP=5.25D-04 MaxDP=1.97D-02 DE=-1.36D-02 OVMax= 5.66D-03

 Cycle   4  Pass 0  IDiag  1:
 E= -95.5236833745491     Delta-E=       -0.000376008752 Rises=F Damp=F
 DIIS: error= 5.78D-04 at cycle   4 NSaved=   4.
 NSaved= 4 IEnMin= 4 EnMin= -95.5236833745491     IErMin= 4 ErrMin= 5.78D-04
 ErrMax= 5.78D-04  0.00D+00 EMaxC= 1.00D-01 BMatC= 3.66D-05 BMatP= 4.49D-04
 IDIUse=3 WtCom= 9.94D-01 WtEn= 5.78D-03
 Coeff-Com: -0.235D-01-0.314D-02 0.239D+00 0.787D+00
 Coeff-En:   0.000D+00 0.000D+00 0.000D+00 0.100D+01
 Coeff:     -0.234D-01-0.313D-02 0.238D+00 0.789D+00
 Gap=     0.452 Goal=   None    Shift=    0.000
 RMSDP=4.60D-04 MaxDP=2.26D-02 DE=-3.76D-04 OVMax= 2.67D-03

 Cycle   5  Pass 0  IDiag  1:
 E= -95.5237257447216     Delta-E=       -0.000042370172 Rises=F Damp=F
 DIIS: error= 1.62D-04 at cycle   5 NSaved=   5.
 NSaved= 5 IEnMin= 5 EnMin= -95.5237257447216     IErMin= 5 ErrMin= 1.62D-04
 ErrMax= 1.62D-04  0.00D+00 EMaxC= 1.00D-01 BMatC= 2.37D-06 BMatP= 3.66D-05
 IDIUse=3 WtCom= 9.98D-01 WtEn= 1.62D-03
 Coeff-Com: -0.767D-02-0.136D-01-0.314D-01 0.156D+00 0.897D+00
 Coeff-En:   0.000D+00 0.000D+00 0.000D+00 0.000D+00 0.100D+01
 Coeff:     -0.765D-02-0.136D-01-0.313D-01 0.155D+00 0.897D+00
 Gap=     0.452 Goal=   None    Shift=    0.000
 RMSDP=1.34D-04 MaxDP=6.26D-03 DE=-4.24D-05 OVMax= 7.16D-04

 Cycle   6  Pass 0  IDiag  1:
 E= -95.5237289799111     Delta-E=       -0.000003235190 Rises=F Damp=F
 DIIS: error= 2.68D-05 at cycle   6 NSaved=   6.
 NSaved= 6 IEnMin= 6 EnMin= -95.5237289799111     IErMin= 6 ErrMin= 2.68D-05
 ErrMax= 2.68D-05  0.00D+00 EMaxC= 1.00D-01 BMatC= 4.33D-08 BMatP= 2.37D-06
 IDIUse=1 WtCom= 1.00D+00 WtEn= 0.00D+00
 Coeff-Com:  0.162D-02 0.122D-02-0.828D-02-0.449D-01-0.835D-01 0.113D+01
 Coeff:      0.162D-02 0.122D-02-0.828D-02-0.449D-01-0.835D-01 0.113D+01
 Gap=     0.452 Goal=   None    Shift=    0.000
 RMSDP=4.63D-05 MaxDP=2.20D-03 DE=-3.24D-06 OVMax= 2.91D-04

 Cycle   7  Pass 0  IDiag  1:
 E= -95.5237291430376     Delta-E=       -0.000000163126 Rises=F Damp=F
 DIIS: error= 4.76D-06 at cycle   7 NSaved=   7.
 NSaved= 7 IEnMin= 7 EnMin= -95.5237291430376     IErMin= 7 ErrMin= 4.76D-06
 ErrMax= 4.76D-06  0.00D+00 EMaxC= 1.00D-01 BMatC= 1.96D-09 BMatP= 4.33D-08
 IDIUse=1 WtCom= 1.00D+00 WtEn= 0.00D+00
 Coeff-Com:  0.172D-05 0.205D-03 0.257D-02 0.320D-02-0.192D-01-0.220D+00
 Coeff-Com:  0.123D+01
 Coeff:      0.172D-05 0.205D-03 0.257D-02 0.320D-02-0.192D-01-0.220D+00
 Coeff:      0.123D+01
 Gap=     0.452 Goal=   None    Shift=    0.000
 RMSDP=8.51D-06 MaxDP=3.69D-04 DE=-1.63D-07 OVMax= 7.90D-05

 Initial convergence to 1.0D-05 achieved.  Increase integral accuracy.
 Cycle   8  Pass 1  IDiag  1:
 E= -95.5237283549025     Delta-E=        0.000000788135 Rises=F Damp=F
 DIIS: error= 1.16D-06 at cycle   1 NSaved=   1.
 NSaved= 1 IEnMin= 1 EnMin= -95.5237283549025     IErMin= 1 ErrMin= 1.16D-06
 ErrMax= 1.16D-06  0.00D+00 EMaxC= 1.00D-01 BMatC= 8.29D-11 BMatP= 8.29D-11
 IDIUse=1 WtCom= 1.00D+00 WtEn= 0.00D+00
 Coeff-Com:  0.100D+01
 Coeff:      0.100D+01
 Gap=     0.452 Goal=   None    Shift=    0.000
 RMSDP=8.51D-06 MaxDP=3.69D-04 DE= 7.88D-07 OVMax= 1.13D-05

 Cycle   9  Pass 1  IDiag  1:
 E= -95.5237283551537     Delta-E=       -0.000000000251 Rises=F Damp=F
 DIIS: error= 4.77D-07 at cycle   2 NSaved=   2.
 NSaved= 2 IEnMin= 2 EnMin= -95.5237283551537     IErMin= 2 ErrMin= 4.77D-07
 ErrMax= 4.77D-07  0.00D+00 EMaxC= 1.00D-01 BMatC= 1.20D-11 BMatP= 8.29D-11
 IDIUse=1 WtCom= 1.00D+00 WtEn= 0.00D+00
 Coeff-Com: -0.343D-01 0.103D+01
 Coeff:     -0.343D-01 0.103D+01
 Gap=     0.452 Goal=   None    Shift=    0.000
 RMSDP=2.74D-07 MaxDP=6.93D-06 DE=-2.51D-10 OVMax= 5.21D-06

 Cycle  10  Pass 1  IDiag  1:
 E= -95.5237283551973     Delta-E=       -0.000000000044 Rises=F Damp=F
 DIIS: error= 2.03D-07 at cycle   3 NSaved=   3.
 NSaved= 3 IEnMin= 3 EnMin= -95.5237283551973     IErMin= 3 ErrMin= 2.03D-07
 ErrMax= 2.03D-07  0.00D+00 EMaxC= 1.00D-01 BMatC= 2.87D-12 BMatP= 1.20D-11
 IDIUse=1 WtCom= 1.00D+00 WtEn= 0.00D+00
 Coeff-Com: -0.140D+00 0.127D+00 0.101D+01
 Coeff:     -0.140D+00 0.127D+00 0.101D+01
 Gap=     0.452 Goal=   None    Shift=    0.000
 RMSDP=1.22D-07 MaxDP=3.32D-06 DE=-4.36D-11 OVMax= 2.97D-06

 Cycle  11  Pass 1  IDiag  1:
 E= -95.5237283552066     Delta-E=       -0.000000000009 Rises=F Damp=F
 DIIS: error= 7.04D-08 at cycle   4 NSaved=   4.
 NSaved= 4 IEnMin= 4 EnMin= -95.5237283552066     IErMin= 4 ErrMin= 7.04D-08
 ErrMax= 7.04D-08  0.00D+00 EMaxC= 1.00D-01 BMatC= 6.41D-13 BMatP= 2.87D-12
 IDIUse=1 WtCom= 1.00D+00 WtEn= 0.00D+00
 Coeff-Com: -0.481D-01-0.894D-01 0.390D+00 0.747D+00
 Coeff:     -0.481D-01-0.894D-01 0.390D+00 0.747D+00
 Gap=     0.452 Goal=   None    Shift=    0.000
 RMSDP=3.67D-08 MaxDP=1.24D-06 DE=-9.32D-12 OVMax= 8.87D-07

 Cycle  12  Pass 1  IDiag  1:
 E= -95.5237283552084     Delta-E=       -0.000000000002 Rises=F Damp=F
 DIIS: error= 1.60D-08 at cycle   5 NSaved=   5.
 NSaved= 5 IEnMin= 5 EnMin= -95.5237283552084     IErMin= 5 ErrMin= 1.60D-08
 ErrMax= 1.60D-08  0.00D+00 EMaxC= 1.00D-01 BMatC= 2.21D-14 BMatP= 6.41D-13
 IDIUse=1 WtCom= 1.00D+00 WtEn= 0.00D+00
 Coeff-Com:  0.203D-01-0.930D-02-0.148D+00-0.601D-01 0.120D+01
 Coeff:      0.203D-01-0.930D-02-0.148D+00-0.601D-01 0.120D+01
 Gap=     0.452 Goal=   None    Shift=    0.000
 RMSDP=3.74D-08 MaxDP=1.76D-06 DE=-1.79D-12 OVMax= 3.39D-07

 Cycle  13  Pass 1  IDiag  1:
 E= -95.5237283552090     Delta-E=       -0.000000000001 Rises=F Damp=F
 DIIS: error= 2.48D-09 at cycle   6 NSaved=   6.
 NSaved= 6 IEnMin= 6 EnMin= -95.5237283552090     IErMin= 6 ErrMin= 2.48D-09
 ErrMax= 2.48D-09  0.00D+00 EMaxC= 1.00D-01 BMatC= 4.97D-16 BMatP= 2.21D-14
 IDIUse=1 WtCom= 1.00D+00 WtEn= 0.00D+00
 Coeff-Com: -0.366D-02 0.328D-02 0.295D-01 0.179D-02-0.318D+00 0.129D+01
 Coeff:     -0.366D-02 0.328D-02 0.295D-01 0.179D-02-0.318D+00 0.129D+01
 Gap=     0.452 Goal=   None    Shift=    0.000
 RMSDP=3.67D-09 MaxDP=1.75D-07 DE=-5.68D-13 OVMax= 4.95D-08

 SCF Done:  E(RLC-B+HF-LYP) =  -95.5237283552     A.U. after   13 cycles
            NFock= 13  Conv=0.37D-08     -V/T= 2.0108
 KE= 9.450765960547D+01 PE=-3.060913261764D+02 EE= 7.393838748531D+01
 Leave Link  502 at Mon Mar 21 20:06:45 2022, MaxMem=  8589934592 cpu:               9.2 elap:               1.2
 (Enter /home/sabyasachi/g16/l801.exe)
 DoSCS=F DFT=T ScalE2(SS,OS)=  1.000000  1.000000
 ExpMin= 6.71D-02 ExpMax= 1.71D+03 ExpMxC= 2.58D+02 IAcc=3 IRadAn=         5 AccDes= 0.00D+00
 HarFok:  IExCor=  205 AccDes= 0.00D+00 IRadAn=         5 IDoV=-2 UseB2=F ITyADJ=14
 ICtDFT= 12500011 ScaDFX=  1.000000  1.000000  1.000000  1.000000
 Largest valence mixing into a core orbital is  6.04D-05
 Largest core mixing into a valence orbital is  5.64D-06
 Range of M.O.s used for correlation:     3    80
 NBasis=    80 NAE=     9 NBE=     9 NFC=     2 NFV=     0
 NROrb=     78 NOA=     7 NOB=     7 NVA=    71 NVB=    71

 **** Warning!!: The largest alpha MO coefficient is  0.21374151D+02

 Leave Link  801 at Mon Mar 21 20:06:45 2022, MaxMem=  8589934592 cpu:               0.4 elap:               0.1
 (Enter /home/sabyasachi/g16/l914.exe)
 RHF ground state
 Keep R1, R2, and R3 ints in memory in symmetry-blocked form, NReq=316935880.
 FoFCou: FMM=F IPFlag=           0 FMFlag=           0 FMFlg1=           0
         NFxFlg=           0 DoJE=F BraDBF=F KetDBF=F FulRan=T
         wScrn=  0.000000 ICntrl=       600 IOpCl=  0 I1Cent=           0 NGrid=           0
         NMat0=    1 NMatS0=   3240 NMatT0=    0 NMatD0=    1 NMtDS0=    0 NMtDT0=    0
 Petite list used in FoFCou.
 MDV=  8589934592 DFT=T DoStab=F Mixed=T DoRPA=T DoScal=F NonHer=T
 Making orbital integer symmetry assigments:
 Orbital symmetries:
       Occupied  (A') (A') (A') (A') (A") (A') (A') (A") (A')
       Virtual   (A') (A') (A") (A') (A") (A') (A') (A") (A') (A")
                 (A') (A") (A') (A') (A') (A') (A") (A") (A") (A')
                 (A') (A") (A') (A') (A') (A") (A') (A") (A') (A")
                 (A') (A") (A') (A') (A') (A") (A') (A') (A') (A")
                 (A') (A") (A') (A") (A') (A') (A') (A") (A") (A")
                 (A') (A") (A') (A') (A") (A') (A') (A") (A") (A')
                 (A') (A") (A') (A') (A') (A") (A') (A") (A') (A')
                 (A")
   497 initial guesses have been made.
 Convergence on wavefunction:    0.001000000000000
 Davidson Disk Diagonalization:  ConvIn= 1.00D-03 SkipCon=T Conv= 1.00D-03.
 Max sub-space:  2982 roots to seek:   994 dimension of matrix:          994
 *** WARNING: Number of orthogonal guesses is          497
 Iteration     1 Dimension   497 NMult     0 NNew    497
 CISAX will form   497 AO SS matrices at one time.
 NMat=   497 NSing=   497 JSym2X=-1.
 New state     12 was old state     15
 New state     13 was old state     14
 New state     14 was old state     12
 New state     15 was old state     13
 New state     17 was old state     18
 New state     18 was old state     17
 New state     21 was old state     27
 New state     22 was old state     24
 New state     24 was old state     22
 New state     25 was old state     21
 New state     27 was old state     30
 New state     29 was old state     25
 New state     30 was old state     29
 New state     32 was old state     33
 New state     33 was old state     35
 New state     34 was old state     37
 New state     35 was old state     36
 New state     36 was old state     39
 New state     37 was old state     32
 New state     38 was old state     43
 New state     39 was old state     40
 New state     40 was old state     42
 New state     41 was old state     38
 New state     42 was old state     41
 New state     43 was old state     44
 New state     44 was old state     51
 New state     45 was old state     46
 New state     46 was old state     62
 New state     49 was old state     45
 New state     50 was old state     53
 New state     51 was old state     49
 New state     52 was old state     50
 New state     53 was old state     54
 New state     54 was old state     55
 New state     55 was old state     52
 New state     56 was old state     58
 New state     58 was old state     61
 New state     59 was old state     60
 New state     60 was old state     59
 New state     61 was old state     56
 New state     62 was old state     67
 New state     63 was old state     66
 New state     65 was old state     63
 New state     66 was old state     68
 New state     67 was old state     70
 New state     68 was old state     69
 New state     69 was old state     76
 New state     70 was old state     73
 New state     71 was old state     65
 New state     72 was old state     75
 New state     73 was old state     71
 New state     74 was old state     83
 New state     75 was old state     74
 New state     76 was old state     97
 New state     78 was old state     72
 New state     79 was old state     81
 New state     80 was old state     78
 New state     81 was old state     79
 New state     82 was old state     80
 New state     83 was old state     82
 New state     84 was old state     86
 New state     85 was old state     87
 New state     86 was old state     92
 New state     87 was old state     85
 New state     88 was old state     84
 New state     89 was old state     90
 New state     90 was old state     93
 New state     91 was old state     88
 New state     92 was old state     89
 New state     93 was old state     91
 New state     94 was old state    101
 New state     95 was old state     94
 New state     97 was old state    111
 New state     98 was old state     95
 New state     99 was old state    106
 New state    101 was old state    109
 New state    102 was old state    104
 New state    103 was old state    107
 New state    104 was old state    105
 New state    105 was old state     99
 New state    106 was old state    103
 New state    107 was old state     98
 New state    108 was old state    102
 New state    109 was old state    108
 New state    110 was old state    123
 New state    111 was old state    118
 New state    112 was old state    114
 New state    113 was old state    120
 New state    114 was old state    110
 New state    115 was old state    112
 New state    116 was old state    117
 New state    117 was old state    113
 New state    118 was old state    121
 New state    120 was old state    115
 New state    121 was old state    116
 New state    122 was old state    128
 New state    123 was old state    133
 New state    124 was old state    149
 New state    125 was old state    126
 New state    126 was old state    124
 New state    127 was old state    122
 New state    128 was old state    125
 New state    130 was old state    127
 New state    132 was old state    142
 New state    133 was old state    132
 New state    134 was old state    140
 New state    135 was old state    138
 New state    136 was old state    130
 New state    137 was old state    136
 New state    138 was old state    145
 New state    139 was old state    135
 New state    140 was old state    137
 New state    141 was old state    144
 New state    142 was old state    139
 New state    143 was old state    146
 New state    144 was old state    147
 New state    145 was old state    134
 New state    146 was old state    143
 New state    147 was old state    151
 New state    148 was old state    157
 New state    149 was old state    148
 New state    150 was old state    153
 New state    151 was old state    150
 New state    152 was old state    164
 New state    153 was old state    156
 New state    154 was old state    158
 New state    155 was old state    152
 New state    156 was old state    154
 New state    157 was old state    160
 New state    158 was old state    163
 New state    160 was old state    161
 New state    161 was old state    155
 New state    162 was old state    166
 New state    163 was old state    169
 New state    164 was old state    165
 New state    165 was old state    162
 New state    166 was old state    170
 New state    167 was old state    175
 New state    168 was old state    167
 New state    169 was old state    174
 New state    170 was old state    168
 New state    171 was old state    177
 New state    172 was old state    171
 New state    174 was old state    179
 New state    175 was old state    172
 New state    176 was old state    190
 New state    177 was old state    185
 New state    178 was old state    186
 New state    179 was old state    176
 New state    180 was old state    181
 New state    181 was old state    178
 New state    182 was old state    183
 New state    183 was old state    200
 New state    184 was old state    182
 New state    185 was old state    187
 New state    186 was old state    193
 New state    187 was old state    184
 New state    188 was old state    180
 New state    189 was old state    191
 New state    190 was old state    194
 New state    191 was old state    189
 New state    193 was old state    188
 New state    194 was old state    197
 New state    195 was old state    198
 New state    197 was old state    195
 No map to state    198
 New state    199 was old state    201
 New state    200 was old state    199
 New state    201 was old state    205
 New state    202 was old state    204
 New state    203 was old state    206
 New state    204 was old state    210
 New state    205 was old state    202
 New state    206 was old state    207
 New state    207 was old state    211
 New state    208 was old state    203
 New state    209 was old state    208
 New state    210 was old state    209
 New state    211 was old state    213
 New state    212 was old state    219
 New state    213 was old state    217
 New state    214 was old state    212
 New state    215 was old state    220
 New state    216 was old state    214
 New state    217 was old state    216
 New state    218 was old state    226
 New state    219 was old state    228
 New state    220 was old state    215
 New state    221 was old state    223
 New state    222 was old state    218
 New state    223 was old state    230
 New state    224 was old state    222
 New state    226 was old state    221
 New state    227 was old state    224
 New state    228 was old state    233
 New state    229 was old state    232
 New state    230 was old state    242
 New state    231 was old state    241
 New state    232 was old state    231
 New state    233 was old state    240
 New state    234 was old state    239
 New state    235 was old state    227
 New state    236 was old state    229
 New state    237 was old state    243
 New state    239 was old state    234
 New state    240 was old state    236
 New state    241 was old state    235
 New state    242 was old state    246
 No map to state    243
 New state    244 was old state    237
 New state    245 was old state    249
 New state    246 was old state    248
 New state    247 was old state    252
 New state    248 was old state    244
 New state    249 was old state    245
 New state    250 was old state    247
 New state    251 was old state    250
 New state    252 was old state    255
 New state    254 was old state    258
 New state    255 was old state    259
 New state    256 was old state    254
 New state    257 was old state    256
 New state    258 was old state    257
 New state    259 was old state    263
 New state    260 was old state    265
 New state    261 was old state    260
 New state    262 was old state    261
 New state    263 was old state    266
 New state    264 was old state    262
 New state    265 was old state    264
 New state    266 was old state    269
 New state    267 was old state    271
 New state    268 was old state    267
 New state    269 was old state    268
 New state    270 was old state    274
 New state    271 was old state    270
 New state    274 was old state    282
 New state    275 was old state    277
 New state    276 was old state    275
 New state    277 was old state    278
 New state    278 was old state    281
 New state    279 was old state    276
 New state    280 was old state    279
 New state    281 was old state    284
 New state    282 was old state    280
 New state    284 was old state    287
 New state    287 was old state    288
 New state    288 was old state    290
 New state    290 was old state    292
 New state    291 was old state    293
 New state    292 was old state    296
 New state    293 was old state    291
 New state    295 was old state    299
 New state    296 was old state    295
 New state    298 was old state    300
 New state    299 was old state    298
 New state    300 was old state    302
 New state    301 was old state    306
 New state    302 was old state    301
 New state    306 was old state    310
 New state    310 was old state    315
 New state    312 was old state    314
 New state    313 was old state    319
 New state    314 was old state    312
 New state    315 was old state    316
 New state    316 was old state    313
 New state    317 was old state    320
 New state    318 was old state    317
 New state    319 was old state    318
 New state    320 was old state    321
 New state    321 was old state    322
 New state    322 was old state    323
 New state    323 was old state    329
 New state    326 was old state    327
 New state    327 was old state    330
 New state    328 was old state    326
 New state    329 was old state    328
 New state    330 was old state    335
 New state    333 was old state    336
 New state    334 was old state    333
 New state    335 was old state    334
 New state    336 was old state    339
 New state    337 was old state    340
 New state    338 was old state    337
 New state    339 was old state    341
 New state    340 was old state    351
 New state    341 was old state    338
 New state    345 was old state    346
 New state    346 was old state    347
 New state    347 was old state    345
 New state    349 was old state    350
 New state    350 was old state    349
 New state    351 was old state    354
 New state    352 was old state    356
 New state    354 was old state    355
 New state    355 was old state    359
 New state    356 was old state    352
 New state    359 was old state    361
 New state    360 was old state    365
 New state    361 was old state    363
 New state    362 was old state    360
 New state    363 was old state    364
 New state    364 was old state    362
 New state    365 was old state    369
 New state    367 was old state    368
 New state    368 was old state    375
 New state    369 was old state    367
 New state    370 was old state    371
 New state    371 was old state    374
 New state    372 was old state    370
 New state    373 was old state    372
 No map to state    374
 New state    375 was old state    373
 New state    378 was old state    380
 New state    380 was old state    378
 New state    382 was old state    383
 New state    383 was old state    384
 New state    384 was old state    382
 New state    386 was old state    391
 New state    387 was old state    386
 New state    388 was old state    389
 New state    389 was old state    387
 New state    390 was old state    388
 New state    391 was old state    390
 New state    392 was old state    393
 New state    393 was old state    395
 New state    394 was old state    397
 New state    395 was old state    392
 New state    396 was old state    398
 New state    397 was old state    396
 New state    398 was old state    394
 New state    399 was old state    401
 New state    400 was old state    399
 New state    401 was old state    400
 New state    404 was old state    405
 New state    405 was old state    407
 New state    406 was old state    404
 New state    407 was old state    408
 New state    408 was old state    406
 New state    413 was old state    416
 New state    415 was old state    413
 New state    416 was old state    417
 New state    417 was old state    415
 New state    418 was old state    419
 New state    419 was old state    418
 New state    420 was old state    421
 New state    421 was old state    420
 New state    424 was old state    428
 New state    426 was old state    424
 New state    428 was old state    426
 New state    434 was old state    435
 New state    435 was old state    437
 New state    436 was old state    434
 New state    437 was old state    438
 New state    438 was old state    439
 New state    439 was old state    436
 New state    449 was old state    450
 New state    450 was old state    449
 New state    452 was old state    453
 New state    453 was old state    452
 New state    455 was old state    456
 New state    456 was old state    458
 New state    457 was old state    455
 New state    458 was old state    457
 New state    463 was old state    465
 New state    464 was old state    463
 New state    465 was old state    464
 New state    466 was old state    467
 New state    467 was old state    466
 New state    468 was old state    469
 New state    469 was old state    471
 New state    470 was old state    468
 New state    471 was old state    473
 New state    472 was old state    470
 New state    473 was old state    472
 New state    480 was old state    481
 New state    481 was old state    480
 New state    482 was old state    485
 New state    484 was old state    482
 New state    485 was old state    484
 New state    491 was old state    492
 New state    492 was old state    491
 Excitation Energies [eV] at current iteration:
 Root      1 :     6.640100763790195
 Root      2 :     8.142218734933358
 Root      3 :     8.402606893364590
 Root      4 :     9.356932246143685
 Root      5 :     9.736570220395972
 Root      6 :    10.128973547437150
 Root      7 :    10.232559316967390
 Root      8 :    10.278554597498920
 Root      9 :    10.971890570782650
 Root     10 :    11.331987480172020
 Root     11 :    11.363642674121020
 Root     12 :    11.802589723408200
 Root     13 :    11.909525259268320
 Root     14 :    11.985779118229940
 Root     15 :    12.340798640874300
 Root     16 :    12.479271209565000
 Root     17 :    12.528502622511340
 Root     18 :    12.834900758099040
 Root     19 :    13.108235926327580
 Root     20 :    13.220277083039720
 Root     21 :    13.315609692272700
 Root     22 :    13.374834460000330
 Root     23 :    13.417557485420020
 Root     24 :    13.644871508748890
 Root     25 :    13.646528217835240
 Root     26 :    13.868048419169940
 Root     27 :    14.005556339091130
 Root     28 :    14.089561774448860
 Root     29 :    14.205977167531750
 Root     30 :    14.412908121686940
 Root     31 :    14.441934491512170
 Root     32 :    14.826772649933160
 Root     33 :    14.894264341052430
 Root     34 :    14.936938153943730
 Root     35 :    14.984428019682570
 Root     36 :    15.048197641881080
 Root     37 :    15.181258619603920
 Root     38 :    15.311454453477600
 Root     39 :    15.526073385203990
 Root     40 :    15.687339168966150
 Root     41 :    15.694133434728470
 Root     42 :    15.792689504065240
 Root     43 :    15.857805064934410
 Root     44 :    15.921738887566000
 Root     45 :    16.014653748895310
 Root     46 :    16.201969806532610
 Root     47 :    16.250501537994630
 Root     48 :    16.391461212833890
 Root     49 :    16.429353413610780
 Root     50 :    16.562399396880970
 Root     51 :    16.580582620827730
 Root     52 :    16.692069735551730
 Root     53 :    16.781377227221100
 Root     54 :    16.805493848060420
 Root     55 :    16.870987905739500
 Root     56 :    16.981149427198130
 Root     57 :    16.990252125695510
 Root     58 :    17.274955333356310
 Root     59 :    17.306167403502530
 Root     60 :    17.510101098267610
 Root     61 :    17.529554622254270
 Root     62 :    17.625248413183890
 Root     63 :    17.640238521646060
 Root     64 :    17.767648995985900
 Root     65 :    17.921566834558440
 Root     66 :    18.012700489930720
 Root     67 :    18.086219967024820
 Root     68 :    18.304723549549050
 Root     69 :    18.392330308610380
 Root     70 :    18.508654180441440
 Root     71 :    18.598526138464930
 Root     72 :    18.641822009942570
 Root     73 :    18.664214653085070
 Root     74 :    18.866748397753690
 Root     75 :    18.984165511398840
 Root     76 :    19.042386238861000
 Root     77 :    19.096204724877240
 Root     78 :    19.128078124728880
 Root     79 :    19.221489932686010
 Root     80 :    19.321391563739830
 Root     81 :    19.333540495785270
 Root     82 :    19.509010711094290
 Root     83 :    19.560851734894840
 Root     84 :    19.612582507033770
 Root     85 :    19.739950075642990
 Root     86 :    19.878191954633970
 Root     87 :    19.893812832406980
 Root     88 :    19.936991140472170
 Root     89 :    20.094227002782600
 Root     90 :    20.288786323822780
 Root     91 :    20.313907250597340
 Root     92 :    20.334456286451740
 Root     93 :    20.391248832140530
 Root     94 :    20.458188939568090
 Root     95 :    20.567116458048470
 Root     96 :    20.863491582278850
 Root     97 :    20.934008206372940
 Root     98 :    20.934507460825130
 Root     99 :    20.981457078330720
 Root    100 :    21.107594982404360
 Root    101 :    21.122479309951970
 Root    102 :    21.152913021279890
 Root    103 :    21.166904175377410
 Root    104 :    21.188685838747290
 Root    105 :    21.297025625398410
 Root    106 :    21.356997979632560
 Root    107 :    21.378020539293100
 Root    108 :    21.579027180767570
 Root    109 :    21.735748910976370
 Root    110 :    21.770119853494800
 Root    111 :    21.970954610576130
 Root    112 :    22.101890171079830
 Root    113 :    22.195676341236170
 Root    114 :    22.251433350824000
 Root    115 :    22.287468782998180
 Root    116 :    22.316174272361940
 Root    117 :    22.337991887473090
 Root    118 :    22.462565619974860
 Root    119 :    22.473720059553970
 Root    120 :    22.474362752518600
 Root    121 :    22.685061650945930
 Root    122 :    22.755466082842620
 Root    123 :    22.853978602346070
 Root    124 :    22.966961995701450
 Root    125 :    22.971242550105680
 Root    126 :    23.125123730350650
 Root    127 :    23.189027957951740
 Root    128 :    23.241636092923200
 Root    129 :    23.289059274137440
 Root    130 :    23.499900292627750
 Root    131 :    23.577819367962940
 Root    132 :    23.627253043136430
 Root    133 :    23.774474174327070
 Root    134 :    23.824652862644260
 Root    135 :    23.922901427638750
 Root    136 :    23.935228546397500
 Root    137 :    23.949993939672950
 Root    138 :    24.002880431717650
 Root    139 :    24.114231946169550
 Root    140 :    24.158507198596330
 Root    141 :    24.221708847495490
 Root    142 :    24.372118481953600
 Root    143 :    24.378931951375080
 Root    144 :    24.486310059378640
 Root    145 :    24.557797141057050
 Root    146 :    24.720958026548740
 Root    147 :    24.846919209708130
 Root    148 :    24.883917853656150
 Root    149 :    24.923757163960560
 Root    150 :    25.003437302792400
 Root    151 :    25.044924261717110
 Root    152 :    25.416149257695690
 Root    153 :    25.504135901218080
 Root    154 :    25.718461539983130
 Root    155 :    25.861112630059290
 Root    156 :    25.908678419819350
 Root    157 :    25.976196593786430
 Root    158 :    26.024738486462780
 Root    159 :    26.165016159588780
 Root    160 :    26.448169985328900
 Root    161 :    26.488442497392270
 Root    162 :    26.573279109780480
 Root    163 :    26.642212245608090
 Root    164 :    26.807758474714510
 Root    165 :    26.851278020212950
 Root    166 :    26.968189475351730
 Root    167 :    27.144779604281890
 Root    168 :    27.223654664756840
 Root    169 :    27.253548768960490
 Root    170 :    27.375048373199520
 Root    171 :    27.445172599397020
 Root    172 :    27.549136371468650
 Root    173 :    27.767786208857490
 Root    174 :    27.785827175424670
 Root    175 :    27.833974586785530
 Root    176 :    27.933703262872130
 Root    177 :    27.962705878631830
 Root    178 :    28.206108454306980
 Root    179 :    28.363398357698020
 Root    180 :    28.509563139309840
 Root    181 :    28.545483360953690
 Root    182 :    28.604084535405200
 Root    183 :    28.778844018310290
 Root    184 :    28.843606903013880
 Root    185 :    28.863377511616790
 Root    186 :    28.986672065491250
 Root    187 :    29.143708550018390
 Root    188 :    29.148439446199330
 Root    189 :    29.310088154312790
 Root    190 :    29.419241454348960
 Root    191 :    29.485759725729090
 Root    192 :    29.637866814470350
 Root    193 :    29.638899221103090
 Root    194 :    29.862667970152410
 Root    195 :    30.011707996273240
 Root    196 :    30.135312752325730
 Root    197 :    30.257336575165370
 Root    198 :    30.361639472586630
 Root    199 :    30.396185974358580
 Root    200 :    30.606840336123500
 Root    201 :    30.832607667074150
 Root    202 :    31.092191610740850
 Root    203 :    31.172353106641640
 Root    204 :    31.331930989590890
 Root    205 :    31.393235486465640
 Root    206 :    31.524564240347220
 Root    207 :    31.570322225123440
 Root    208 :    31.712414824267190
 Root    209 :    31.970114650989530
 Root    210 :    31.985734907527560
 Root    211 :    32.207114307013120
 Root    212 :    32.330430473665520
 Root    213 :    32.672321450349760
 Root    214 :    32.882148548248380
 Root    215 :    33.076202875746970
 Root    216 :    33.553195886317630
 Root    217 :    33.662173629266830
 Root    218 :    33.798419988620810
 Root    219 :    33.984619246217360
 Root    220 :    33.989716889644000
 Root    221 :    34.039754595873140
 Root    222 :    34.115493769725040
 Root    223 :    34.325628504262920
 Root    224 :    34.486075028910400
 Root    225 :    34.701103328846460
 Root    226 :    34.709520784660170
 Root    227 :    34.785684522615090
 Root    228 :    34.814530021715250
 Root    229 :    34.955765308837440
 Root    230 :    35.441096510315870
 Root    231 :    35.560631828336340
 Root    232 :    35.566821913267840
 Root    233 :    35.687228822046580
 Root    234 :    35.737369457630010
 Root    235 :    35.776854689016780
 Root    236 :    35.822693683196030
 Root    237 :    35.939324290366990
 Root    238 :    35.958774893093430
 Root    239 :    36.051259638258860
 Root    240 :    36.210180783723600
 Root    241 :    36.539460129298730
 Root    242 :    36.672572511953960
 Root    243 :    36.754102811530710
 Root    244 :    36.945970985352290
 Root    245 :    37.227490080901980
 Root    246 :    37.442463835669850
 Root    247 :    37.466821887590300
 Root    248 :    37.513526673336480
 Root    249 :    37.594798327593440
 Root    250 :    37.764028325550740
 Root    251 :    38.133776273985700
 Root    252 :    38.331162413591880
 Root    253 :    38.484768923981260
 Root    254 :    38.507157573651380
 Root    255 :    38.634344391536620
 Root    256 :    38.768182434007620
 Root    257 :    39.059764487944530
 Root    258 :    39.192451801128570
 Root    259 :    39.247694696559980
 Root    260 :    39.582895839558890
 Root    261 :    39.700429852149740
 Root    262 :    39.874822997969400
 Root    263 :    39.961614181275470
 Root    264 :    40.023580190185430
 Root    265 :    40.060435731008970
 Root    266 :    40.564492406058060
 Root    267 :    40.671953524773310
 Root    268 :    40.845571782660120
 Root    269 :    40.865267397737850
 Root    270 :    41.246008423066850
 Root    271 :    41.590257311037670
 Root    272 :    41.937922675729890
 Root    273 :    42.358433636895950
 Root    274 :    42.870808479964500
 Root    275 :    43.172836771714480
 Root    276 :    43.277971866385240
 Root    277 :    43.606629171751340
 Root    278 :    43.616262191699260
 Root    279 :    43.707918884675120
 Root    280 :    43.910678262842810
 Root    281 :    44.043836403345000
 Root    282 :    44.250843763588210
 Root    283 :    44.501278719211140
 Root    284 :    45.245033619996950
 Root    285 :    45.334457248867120
 Root    286 :    46.022080996438310
 Root    287 :    46.333933959269790
 Root    288 :    46.436877696997480
 Root    289 :    46.590800732531480
 Root    290 :    46.922281651264240
 Root    291 :    47.335530102663970
 Root    292 :    47.460270025447910
 Root    293 :    47.826958685690750
 Root    294 :    47.967192661392130
 Root    295 :    48.402756048528650
 Root    296 :    48.626200848565940
 Root    297 :    48.732154388986420
 Root    298 :    48.985561095129820
 Root    299 :    49.275700896345060
 Root    300 :    49.547259517148870
 Root    301 :    49.647804395822170
 Root    302 :    49.784788901187080
 Root    303 :    50.227062438588210
 Root    304 :    50.258030648067140
 Root    305 :    50.634937740269840
 Root    306 :    50.787722716771070
 Root    307 :    51.333877329741030
 Root    308 :    51.432917480142900
 Root    309 :    51.665472218809070
 Root    310 :    51.806319840068830
 Root    311 :    52.280938157185950
 Root    312 :    52.434694590632960
 Root    313 :    52.478030306552300
 Root    314 :    52.604434362735590
 Root    315 :    53.043529277664730
 Root    316 :    53.141977759496410
 Root    317 :    53.434116751238490
 Root    318 :    53.469374238103320
 Root    319 :    53.649103468245370
 Root    320 :    54.129710496077640
 Root    321 :    54.187523868756660
 Root    322 :    54.663941433078710
 Root    323 :    54.918298931518440
 Root    324 :    55.048965527210240
 Root    325 :    55.444028453745640
 Root    326 :    56.172669496363920
 Root    327 :    56.615838374862680
 Root    328 :    56.681546639146090
 Root    329 :    56.756482361075090
 Root    330 :    56.968441816884590
 Root    331 :    57.194696617175170
 Root    332 :    57.452811274895640
 Root    333 :    57.463504611342870
 Root    334 :    57.630968916446100
 Root    335 :    57.776907607428460
 Root    336 :    58.673276697669820
 Root    337 :    59.158364326678140
 Root    338 :    59.250793559248490
 Root    339 :    59.726066569822970
 Root    340 :    60.004817144280880
 Root    341 :    60.479252180763070
 Root    342 :    60.515620611189820
 Root    343 :    60.628772175400170
 Root    344 :    60.703129255179420
 Root    345 :    61.119298530632900
 Root    346 :    61.177139652905880
 Root    347 :    61.265945433843850
 Root    348 :    61.706790713138620
 Root    349 :    61.715538689463950
 Root    350 :    61.817351323987520
 Root    351 :    61.932413023970210
 Root    352 :    62.282571857573690
 Root    353 :    62.399708692351650
 Root    354 :    62.509834089031750
 Root    355 :    62.602704799726810
 Root    356 :    62.609507992373570
 Root    357 :    63.383904086515880
 Root    358 :    63.572953736609250
 Root    359 :    63.657985411066330
 Root    360 :    63.790771535725590
 Root    361 :    63.809453017755520
 Root    362 :    64.026391265001910
 Root    363 :    64.394886730002530
 Root    364 :    64.463675241293640
 Root    365 :    64.693305912225530
 Root    366 :    65.023541650419560
 Root    367 :    65.405508676512230
 Root    368 :    65.924761773224700
 Root    369 :    66.138069147743380
 Root    370 :    66.221747005362000
 Root    371 :    66.449180058626180
 Root    372 :    66.535499338328620
 Root    373 :    66.696748315774760
 Root    374 :    66.813677805363770
 Root    375 :    66.906599110924740
 Root    376 :    66.933444659061310
 Root    377 :    67.443932399297720
 Root    378 :    67.666939501813260
 Root    379 :    67.868437717143440
 Root    380 :    67.949538065159100
 Root    381 :    68.191906557123520
 Root    382 :    68.425561954319410
 Root    383 :    68.756335076379200
 Root    384 :    68.849021967962950
 Root    385 :    69.180674832712820
 Root    386 :    69.338046287178340
 Root    387 :    69.526363978363240
 Root    388 :    69.635122152224600
 Root    389 :    69.892251713233830
 Root    390 :    69.967468707936650
 Root    391 :    70.033474573540830
 Root    392 :    70.480322589752800
 Root    393 :    70.713263874604660
 Root    394 :    70.917335075639440
 Root    395 :    71.039431568439510
 Root    396 :    71.117126378919270
 Root    397 :    71.269442596437340
 Root    398 :    71.773162097559320
 Root    399 :    71.925439747015890
 Root    400 :    72.055499935229380
 Root    401 :    72.309300563767790
 Root    402 :    72.908633915983420
 Root    403 :    73.081854217464330
 Root    404 :    73.809083454248050
 Root    405 :    73.823266877067210
 Root    406 :    73.826746444491920
 Root    407 :    74.143723721231740
 Root    408 :    74.339235657843630
 Root    409 :    75.126622171346230
 Root    410 :    75.340854989653280
 Root    411 :    75.678070195062190
 Root    412 :    76.020395391416200
 Root    413 :    76.179654622033550
 Root    414 :    76.266656551377950
 Root    415 :    76.524638202422200
 Root    416 :    76.837910460956080
 Root    417 :    76.985751938540010
 Root    418 :    77.284264295435090
 Root    419 :    77.390932825877850
 Root    420 :    77.506700256080320
 Root    421 :    78.277737463877800
 Root    422 :    78.315682061029930
 Root    423 :    78.929584791096520
 Root    424 :    79.976822467094810
 Root    425 :    80.063424791885230
 Root    426 :    80.131999095863950
 Root    427 :    80.163599303834150
 Root    428 :    80.767517962200130
 Root    429 :    80.987859030136140
 Root    430 :    81.168049361818720
 Root    431 :    81.615150361374930
 Root    432 :    81.769626471038010
 Root    433 :    81.866282756116180
 Root    434 :    82.545077801064760
 Root    435 :    82.860606165845850
 Root    436 :    83.011751025289940
 Root    437 :    83.393842290423090
 Root    438 :    83.602725049970970
 Root    439 :    83.939895005306170
 Root    440 :    84.555261515022450
 Root    441 :    85.070342715094450
 Root    442 :    85.775755758770690
 Root    443 :    86.309598967063510
 Root    444 :    86.317065199897640
 Root    445 :    86.814041025242740
 Root    446 :    87.503389236644110
 Root    447 :    87.793233180144910
 Root    448 :    87.801968955153630
 Root    449 :    88.201047545545720
 Root    450 :    88.449625427923910
 Root    451 :    88.837171338590990
 Root    452 :    89.137120528179270
 Root    453 :    89.147166857227530
 Root    454 :    89.864308440561060
 Root    455 :    90.519591291054520
 Root    456 :    90.725339346735380
 Root    457 :    90.748485271278710
 Root    458 :    91.029229643723610
 Root    459 :    91.355944477786010
 Root    460 :    91.523164990731970
 Root    461 :    92.229239892716960
 Root    462 :    92.621594553186400
 Root    463 :    93.368402449876970
 Root    464 :    93.444993136304820
 Root    465 :    94.150114527456340
 Root    466 :    94.212945174493260
 Root    467 :    94.244200330307140
 Root    468 :    94.610619257368900
 Root    469 :    95.182052887773150
 Root    470 :    95.383933105970020
 Root    471 :    95.613179781424880
 Root    472 :    96.132665516904850
 Root    473 :    96.276333854070630
 Root    474 :    97.960923775377410
 Root    475 :    98.045894075664560
 Root    476 :    98.215817878155930
 Root    477 :    99.271473218692190
 Root    478 :   100.121899478327000
 Root    479 :   100.232899661506500
 Root    480 :   100.902155345903000
 Root    481 :   101.219613995659300
 Root    482 :   101.761346865544100
 Root    483 :   101.971649277820400
 Root    484 :   102.371227906556400
 Root    485 :   102.513893985771700
 Root    486 :   103.282851090123600
 Root    487 :   104.257438857609700
 Root    488 :   106.900560801549200
 Root    489 :   107.299836748733100
 Root    490 :   108.385873114709100
 Root    491 :   108.502224268481100
 Root    492 :   108.946220419364800
 Root    493 :   109.298903604036300
 Root    494 :   109.972917142148900
 Root    495 :   113.390851399583600
 Root    496 :   115.455295933434700
 Root    497 :   119.840733145664300
 Convergence achieved for final wavefunctions.
 ***********************************************************************
 Excited states from <AA,BB:AA,BB> singles matrix:
 ***********************************************************************
 
 1PDM for each excited state written to RWF  633
 Ground to excited state transition densities written to RWF  633
 Ground to excited state transition electric dipole moments (Au):
       state          X           Y           Z        Dip. S.      Osc.
         1         0.2543      0.0134      0.0000      0.0648      0.0105
         2         0.4232      0.1682     -0.0000      0.2074      0.0414
         3        -0.0000     -0.0000     -0.1868      0.0349      0.0072
         4         0.2282      0.5294      0.0000      0.3323      0.0762
         5         0.0000      0.0000     -0.0332      0.0011      0.0003
         6         0.1110      0.2486      0.0000      0.0741      0.0184
         7         0.0000     -0.0000     -0.2859      0.0818      0.0205
         8        -0.1015     -0.2746      0.0000      0.0857      0.0216
         9        -0.0000     -0.0000     -0.0849      0.0072      0.0019
        10         0.0000      0.0000      0.6214      0.3861      0.1072
        11        -0.5061     -0.0201      0.0000      0.2565      0.0714
        12        -0.1493      0.2127      0.0000      0.0675      0.0195
        13        -0.0000      0.0000      0.1750      0.0306      0.0089
        14         0.1222     -0.3142     -0.0000      0.1136      0.0334
        15        -0.5058      0.7182      0.0000      0.7716      0.2333
        16        -0.3722      0.0824     -0.0000      0.1453      0.0444
        17        -0.0000      0.0000     -0.3917      0.1534      0.0471
        18        -0.0713     -0.3347      0.0000      0.1171      0.0368
        19         0.0683      0.3860     -0.0000      0.1537      0.0494
        20        -0.0000     -0.0000     -0.2540      0.0645      0.0209
        21         0.0000      0.0000      0.3501      0.1226      0.0400
        22         0.7825      0.4941     -0.0000      0.8564      0.2806
        23        -0.0000     -0.0000     -0.0960      0.0092      0.0030
        24        -0.0000      0.0000      0.7459      0.5563      0.1860
        25        -0.2089      0.3518     -0.0000      0.1674      0.0560
        26         0.0058     -0.2546     -0.0000      0.0649      0.0220
        27        -0.0000     -0.0000     -0.2255      0.0508      0.0174
        28        -0.2567      0.8425      0.0000      0.7757      0.2678
        29        -0.0000      0.0000      0.4086      0.1670      0.0581
        30        -0.0897     -0.1963     -0.0000      0.0466      0.0164
        31        -0.0000     -0.0000      0.5659      0.3203      0.1133
        32         0.3386      0.0933      0.0000      0.1234      0.0448
        33         0.6735      0.1879     -0.0000      0.4889      0.1784
        34        -0.0000      0.0000      0.0691      0.0048      0.0017
        35         0.2333      0.1129     -0.0000      0.0672      0.0247
        36         0.0000     -0.0000     -0.0581      0.0034      0.0012
        37         0.2348      0.4803      0.0000      0.2858      0.1063
        38        -0.0000      0.0000     -0.7464      0.5572      0.2090
        39        -0.0300      0.1323     -0.0000      0.0184      0.0070
        40         0.5012     -0.6189      0.0000      0.6342      0.2437
        41        -0.0000     -0.0000      0.0161      0.0003      0.0001
        42         0.0000      0.0000     -0.6513      0.4242      0.1641
        43        -0.1109      0.3945      0.0000      0.1679      0.0652
        44         0.0000      0.0000      0.2363      0.0558      0.0218
        45         0.4237     -0.4437      0.0000      0.3764      0.1477
        46         0.0000     -0.0000      0.1827      0.0334      0.0133
        47        -0.0293     -0.3908     -0.0000      0.1536      0.0611
        48        -0.0000     -0.0000      0.1933      0.0374      0.0150
        49        -0.1810     -0.0407      0.0000      0.0344      0.0139
        50        -0.0157     -0.0221     -0.0000      0.0007      0.0003
        51         0.0000     -0.0000     -0.2074      0.0430      0.0175
        52         0.0000     -0.0000      0.0329      0.0011      0.0004
        53        -0.5517      0.2715     -0.0000      0.3780      0.1554
        54        -0.0000      0.0000      0.2163      0.0468      0.0193
        55         0.5812      0.0793     -0.0000      0.3441      0.1422
        56        -0.0000     -0.0000     -0.6492      0.4214      0.1753
        57         0.2642      0.5333     -0.0000      0.3543      0.1475
        58        -0.0000     -0.0000      0.1448      0.0210      0.0089
        59        -0.0264      0.1435      0.0000      0.0213      0.0090
        60         0.0000      0.0000      0.0045      0.0000      0.0000
        61         0.1413      0.3305     -0.0000      0.1292      0.0555
        62         0.1476      0.4049      0.0000      0.1857      0.0802
        63        -0.0000     -0.0000     -0.4018      0.1615      0.0698
        64         0.3043      0.2352     -0.0000      0.1479      0.0644
        65        -0.0000     -0.0000      0.3996      0.1597      0.0701
        66         0.0000      0.0000     -0.2199      0.0484      0.0213
        67         0.0000      0.0000      0.3018      0.0911      0.0404
        68         0.0733      0.5855      0.0000      0.3481      0.1561
        69         0.0000      0.0000     -0.3014      0.0908      0.0409
        70        -0.1924      0.0554      0.0000      0.0401      0.0182
        71        -0.1913      0.1227     -0.0000      0.0517      0.0235
        72         0.0000     -0.0000      0.1416      0.0201      0.0092
        73         0.1427     -0.0325      0.0000      0.0214      0.0098
        74         0.0000     -0.0000     -0.1936      0.0375      0.0173
        75        -0.1152      0.1239     -0.0000      0.0286      0.0133
        76         0.0000      0.0000     -0.1974      0.0390      0.0182
        77         0.2039     -0.1387     -0.0000      0.0608      0.0284
        78         0.0971      0.0161      0.0000      0.0097      0.0045
        79         0.2079     -0.1096      0.0000      0.0552      0.0260
        80        -0.0000      0.0000      0.0166      0.0003      0.0001
        81        -0.0185     -0.1737      0.0000      0.0305      0.0145
        82         0.3660     -0.2534     -0.0000      0.1982      0.0947
        83        -0.0000     -0.0000      0.1577      0.0249      0.0119
        84         0.0046     -0.0109      0.0000      0.0001      0.0001
        85         0.0000     -0.0000      0.0894      0.0080      0.0039
        86         0.0000      0.0000     -0.2029      0.0412      0.0200
        87         0.3006      0.1742      0.0000      0.1207      0.0588
        88         0.1875     -0.3628     -0.0000      0.1668      0.0815
        89         0.4261      0.2567      0.0000      0.2475      0.1218
        90         0.0000      0.0000     -0.4461      0.1990      0.0989
        91        -0.2889      0.0481     -0.0000      0.0858      0.0427
        92         0.0069     -0.6201     -0.0000      0.3846      0.1916
        93         0.0000      0.0000      0.2242      0.0503      0.0251
        94        -0.0000     -0.0000     -0.0738      0.0055      0.0027
        95         0.0830      0.3319      0.0000      0.1171      0.0590
        96         0.0000     -0.0000      0.0323      0.0010      0.0005
        97         0.0000      0.0000      0.1563      0.0244      0.0125
        98        -0.0909      0.1924      0.0000      0.0453      0.0232
        99         0.1216      0.0152      0.0000      0.0150      0.0077
       100        -0.0000      0.0000     -0.0947      0.0090      0.0046
       101        -0.0495      0.3322      0.0000      0.1128      0.0584
       102         0.0000     -0.0000     -0.1926      0.0371      0.0192
       103        -0.1781      0.2775      0.0000      0.1088      0.0564
       104         0.0000     -0.0000      0.3335      0.1112      0.0577
       105         0.0655      0.1594     -0.0000      0.0297      0.0155
       106         0.0000      0.0000      0.0601      0.0036      0.0019
       107        -0.0306      0.1827     -0.0000      0.0343      0.0180
       108        -0.1330     -0.0281      0.0000      0.0185      0.0098
       109        -0.0000      0.0000      0.0451      0.0020      0.0011
       110         0.0000     -0.0000      0.0935      0.0087      0.0047
       111        -0.0000     -0.0000      0.0793      0.0063      0.0034
       112        -0.0000     -0.0000      0.1531      0.0234      0.0127
       113         0.2045     -0.1041      0.0000      0.0527      0.0286
       114         0.0000     -0.0000     -0.1309      0.0171      0.0093
       115         0.1265     -0.0681     -0.0000      0.0207      0.0113
       116        -0.0000      0.0000     -0.3521      0.1240      0.0678
       117         0.0000     -0.0000      0.5027      0.2527      0.1383
       118         0.0226     -0.0272     -0.0000      0.0013      0.0007
       119         0.0000      0.0000     -0.3406      0.1160      0.0639
       120        -0.1044     -0.2126     -0.0000      0.0561      0.0309
       121        -0.0415     -0.1405      0.0000      0.0215      0.0119
       122         0.0000     -0.0000     -0.3006      0.0904      0.0504
       123         0.2761     -0.2730     -0.0000      0.1507      0.0844
       124         0.0000     -0.0000     -0.1612      0.0260      0.0146
       125        -0.0544      0.1087     -0.0000      0.0148      0.0083
       126         0.0274      0.2827      0.0000      0.0807      0.0457
       127        -0.0000     -0.0000      0.0353      0.0012      0.0007
       128        -0.1855      0.0259     -0.0000      0.0351      0.0200
       129         0.1916     -0.0551      0.0000      0.0398      0.0227
       130         0.0000      0.0000     -0.0095      0.0001      0.0001
       131        -0.1995     -0.0843      0.0000      0.0469      0.0271
       132         0.0000     -0.0000      0.1715      0.0294      0.0170
       133         0.0439     -0.2827     -0.0000      0.0818      0.0477
       134        -0.1511      0.2841     -0.0000      0.1036      0.0605
       135         0.0000     -0.0000      0.0190      0.0004      0.0002
       136        -0.0409      0.3236     -0.0000      0.1064      0.0624
       137         0.0000     -0.0000     -0.1646      0.0271      0.0159
       138        -0.1820      0.0573     -0.0000      0.0364      0.0214
       139         0.1814     -0.0030      0.0000      0.0329      0.0195
       140         0.0000     -0.0000      0.3210      0.1030      0.0610
       141         0.2995     -0.4962     -0.0000      0.3359      0.1993
       142        -0.0000      0.0000      0.2832      0.0802      0.0479
       143         0.2725      0.0642     -0.0000      0.0784      0.0468
       144        -0.0000     -0.0000      0.2735      0.0748      0.0449
       145        -0.5179     -0.3088      0.0000      0.3636      0.2187
       146         0.3757     -0.0920      0.0000      0.1496      0.0906
       147         0.0000      0.0000      0.0513      0.0026      0.0016
       148        -0.0000     -0.0000     -0.0743      0.0055      0.0034
       149         0.0168     -0.0352      0.0000      0.0015      0.0009
       150        -0.0121      0.2326     -0.0000      0.0542      0.0332
       151         0.0000     -0.0000      0.0242      0.0006      0.0004
       152         0.1548      0.1698      0.0000      0.0528      0.0329
       153        -0.0000      0.0000     -0.2653      0.0704      0.0440
       154        -0.3060     -0.3263     -0.0000      0.2001      0.1261
       155         0.0000     -0.0000      0.0209      0.0004      0.0003
       156         0.2529      0.0722      0.0000      0.0692      0.0439
       157        -0.2516     -0.1001     -0.0000      0.0733      0.0467
       158        -0.0000     -0.0000     -0.2245      0.0504      0.0321
       159        -0.0000      0.0000      0.0826      0.0068      0.0044
       160        -0.3727      0.1546      0.0000      0.1628      0.1055
       161        -0.3193      0.0363     -0.0000      0.1032      0.0670
       162        -0.0000     -0.0000      0.3129      0.0979      0.0637
       163         0.0000     -0.0000     -0.1691      0.0286      0.0187
       164        -0.0000     -0.0000      0.4564      0.2083      0.1368
       165        -0.0709      0.0808     -0.0000      0.0116      0.0076
       166         0.1534      0.1394      0.0000      0.0429      0.0284
       167         0.0000      0.0000     -0.2328      0.0542      0.0360
       168         0.0897      0.0500      0.0000      0.0105      0.0070
       169         0.1747      0.1397      0.0000      0.0500      0.0334
       170        -0.0409     -0.0521     -0.0000      0.0044      0.0029
       171         0.0000      0.0000     -0.1097      0.0120      0.0081
       172        -0.1826      0.0298     -0.0000      0.0342      0.0231
       173        -0.0000     -0.0000      0.1209      0.0146      0.0099
       174        -0.0964      0.4322      0.0000      0.1961      0.1335
       175        -0.0000      0.0000     -0.1254      0.0157      0.0107
       176         0.3410      0.1550     -0.0000      0.1403      0.0960
       177         0.0000     -0.0000      0.0786      0.0062      0.0042
       178         0.0000     -0.0000      0.1850      0.0342      0.0236
       179        -0.0381     -0.0392     -0.0000      0.0030      0.0021
       180        -0.0000     -0.0000      0.0752      0.0056      0.0039
       181        -0.0335     -0.1136     -0.0000      0.0140      0.0098
       182        -0.0296     -0.0525      0.0000      0.0036      0.0025
       183         0.0000     -0.0000     -0.5152      0.2654      0.1871
       184         0.0000     -0.0000      0.2162      0.0467      0.0330
       185         0.1993     -0.0168      0.0000      0.0400      0.0283
       186        -0.0277      0.2496     -0.0000      0.0630      0.0448
       187        -0.1703     -0.1140      0.0000      0.0420      0.0300
       188        -0.0000     -0.0000      0.1203      0.0145      0.0103
       189        -0.1705      0.0698     -0.0000      0.0339      0.0244
       190         0.0000      0.0000      0.1514      0.0229      0.0165
       191        -0.2439      0.0771      0.0000      0.0654      0.0473
       192        -0.2330     -0.0418      0.0000      0.0560      0.0407
       193        -0.0000      0.0000     -0.0179      0.0003      0.0002
       194        -0.0334     -0.0798     -0.0000      0.0075      0.0055
       195         0.1492     -0.0003     -0.0000      0.0223      0.0164
       196        -0.2467      0.0282      0.0000      0.0616      0.0455
       197         0.0000     -0.0000     -0.2973      0.0884      0.0655
       198         0.0000      0.0000      0.2649      0.0702      0.0522
       199         0.2495      0.0018     -0.0000      0.0622      0.0463
       200        -0.0365      0.0632     -0.0000      0.0053      0.0040
       201        -0.0984     -0.0773     -0.0000      0.0157      0.0118
       202         0.0927      0.1909     -0.0000      0.0450      0.0343
       203         0.0000      0.0000      0.1514      0.0229      0.0175
       204         0.0000      0.0000     -0.1889      0.0357      0.0274
       205        -0.0000      0.0000     -0.0907      0.0082      0.0063
       206        -0.1669     -0.0809      0.0000      0.0344      0.0266
       207        -0.1349     -0.0215      0.0000      0.0187      0.0144
       208         0.0000      0.0000      0.0179      0.0003      0.0003
       209         0.0000      0.0000      0.1416      0.0200      0.0157
       210        -0.0598     -0.0120     -0.0000      0.0037      0.0029
       211        -0.0000     -0.0000      0.1062      0.0113      0.0089
       212        -0.0040     -0.1942      0.0000      0.0377      0.0299
       213        -0.0642     -0.2378     -0.0000      0.0607      0.0486
       214         0.0160     -0.1320     -0.0000      0.0177      0.0142
       215        -0.0742      0.0242      0.0000      0.0061      0.0049
       216         0.0509      0.0922     -0.0000      0.0111      0.0091
       217         0.2286     -0.0992     -0.0000      0.0621      0.0512
       218         0.0000      0.0000      0.0725      0.0053      0.0043
       219        -0.0339      0.0619     -0.0000      0.0050      0.0042
       220         0.0000      0.0000      0.1790      0.0321      0.0267
       221         0.0000     -0.0000     -0.2116      0.0448      0.0374
       222        -0.0000     -0.0000     -0.0819      0.0067      0.0056
       223         0.0439      0.1997     -0.0000      0.0418      0.0352
       224        -0.0000     -0.0000     -0.0027      0.0000      0.0000
       225        -0.0294     -0.0258     -0.0000      0.0015      0.0013
       226         0.0000      0.0000      0.0241      0.0006      0.0005
       227         0.0840      0.0433     -0.0000      0.0089      0.0076
       228        -0.0000      0.0000      0.0237      0.0006      0.0005
       229        -0.0336      0.1209     -0.0000      0.0157      0.0135
       230        -0.0907     -0.0797     -0.0000      0.0146      0.0127
       231        -0.0000     -0.0000      0.0964      0.0093      0.0081
       232         0.0719      0.0130      0.0000      0.0053      0.0047
       233        -0.1103      0.0728      0.0000      0.0175      0.0153
       234        -0.0000      0.0000      0.0326      0.0011      0.0009
       235         0.0000      0.0000     -0.0251      0.0006      0.0006
       236         0.1280      0.0636      0.0000      0.0204      0.0179
       237         0.0000     -0.0000      0.0732      0.0054      0.0047
       238         0.0465     -0.0406     -0.0000      0.0038      0.0034
       239         0.0000      0.0000     -0.0371      0.0014      0.0012
       240        -0.0768     -0.1317     -0.0000      0.0232      0.0206
       241        -0.0744     -0.0209     -0.0000      0.0060      0.0053
       242        -0.0000      0.0000     -0.0123      0.0002      0.0001
       243         0.0322     -0.0212      0.0000      0.0015      0.0013
       244         0.0370     -0.0162     -0.0000      0.0016      0.0015
       245         0.1187      0.0680      0.0000      0.0187      0.0171
       246         0.0000     -0.0000      0.3042      0.0925      0.0849
       247         0.0594     -0.0345     -0.0000      0.0047      0.0043
       248        -0.0000     -0.0000      0.0382      0.0015      0.0013
       249         0.0336     -0.0307     -0.0000      0.0021      0.0019
       250        -0.0000      0.0000      0.0499      0.0025      0.0023
       251        -0.0000     -0.0000      0.0292      0.0009      0.0008
       252        -0.0995     -0.0685     -0.0000      0.0146      0.0137
       253         0.1164     -0.0804      0.0000      0.0200      0.0189
       254        -0.0000     -0.0000      0.0582      0.0034      0.0032
       255         0.0000     -0.0000      0.0286      0.0008      0.0008
       256         0.0739     -0.1296      0.0000      0.0223      0.0211
       257        -0.1080      0.0380     -0.0000      0.0131      0.0125
       258         0.0000     -0.0000     -0.0509      0.0026      0.0025
       259        -0.0000     -0.0000      0.1516      0.0230      0.0221
       260        -0.0288      0.0474      0.0000      0.0031      0.0030
       261        -0.1453     -0.0430     -0.0000      0.0230      0.0223
       262         0.0000      0.0000      0.0204      0.0004      0.0004
       263        -0.0908      0.0300     -0.0000      0.0091      0.0089
       264        -0.0000     -0.0000      0.1230      0.0151      0.0148
       265         0.0000      0.0000     -0.0188      0.0004      0.0003
[...]
      5   0.000000D+00 -0.115474D-01 -0.129839D+00 -0.219240D+00  0.925128D-01
      6   0.000000D+00  0.236948D-01  0.922161D-01  0.578528D-01 -0.210826D+00
      7  -0.566092D-01  0.000000D+00  0.000000D+00  0.000000D+00  0.000000D+00
      8  -0.143369D+00  0.000000D+00  0.000000D+00  0.000000D+00  0.000000D+00
      9  -0.319919D-01  0.000000D+00  0.000000D+00  0.000000D+00  0.000000D+00
     10   0.000000D+00 -0.230421D-01 -0.367860D+00 -0.288734D+00 -0.251642D+00
     11   0.000000D+00 -0.261476D+00 -0.731754D-01  0.244774D+00  0.185181D+00
     12   0.000000D+00  0.256447D+00 -0.538056D+00  0.141928D+00  0.441105D-02
     13   0.000000D+00  0.295740D-02 -0.107055D+00  0.521469D-01 -0.118070D+00
     14   0.000000D+00  0.453734D-01  0.310463D+00  0.443889D+00  0.203082D+00
     15   0.990871D-01  0.000000D+00  0.000000D+00  0.000000D+00  0.000000D+00
     16   0.156570D-01  0.000000D+00  0.000000D+00  0.000000D+00  0.000000D+00
               431           432           433           434           435 
      1  -0.925244D+02 -0.925187D+02 -0.925152D+02 -0.924903D+02 -0.924787D+02
      2  -0.676916D-01  0.000000D+00 -0.134565D-01 -0.294434D-01  0.000000D+00
      3  -0.778568D-02  0.000000D+00 -0.945954D-02  0.759550D-01  0.000000D+00
      4   0.000000D+00  0.195407D-01  0.000000D+00  0.000000D+00 -0.204279D-01
      5   0.169986D+00  0.000000D+00  0.415846D-01  0.908877D-01  0.000000D+00
      6  -0.300576D-01  0.000000D+00  0.128688D-01 -0.223432D+00  0.000000D+00
      7   0.000000D+00 -0.528672D-01  0.000000D+00  0.000000D+00  0.107798D+00
      8   0.000000D+00  0.518388D-01  0.000000D+00  0.000000D+00 -0.210720D+00
      9   0.000000D+00  0.866264D-01  0.000000D+00  0.000000D+00  0.276762D-01
     10   0.272216D+00  0.000000D+00  0.151793D+00  0.226426D+00  0.000000D+00
     11  -0.247891D+00  0.000000D+00 -0.606043D-01 -0.101138D+00  0.000000D+00
     12  -0.818671D-01  0.000000D+00 -0.282867D-02  0.450455D+00  0.000000D+00
     13  -0.159087D+00  0.000000D+00 -0.164925D+00  0.128528D+00  0.000000D+00
     14  -0.229403D+00  0.000000D+00 -0.217324D+00  0.441560D-01  0.000000D+00
     15   0.000000D+00 -0.141202D-01  0.000000D+00  0.000000D+00 -0.730033D-01
     16   0.000000D+00  0.762719D-02  0.000000D+00  0.000000D+00 -0.299682D+00
               436           437           438           439           440 
      1  -0.924731D+02 -0.924591D+02 -0.924514D+02 -0.924390D+02 -0.924164D+02
      2  -0.538901D-01  0.000000D+00  0.000000D+00  0.000000D+00 -0.594195D-01
      3   0.574671D-01  0.000000D+00  0.000000D+00  0.000000D+00 -0.111968D-01
      4   0.000000D+00  0.258608D-01  0.114684D+00 -0.344202D-02  0.000000D+00
      5   0.136785D+00  0.000000D+00  0.000000D+00  0.000000D+00  0.124942D+00
      6  -0.160004D+00  0.000000D+00  0.000000D+00  0.000000D+00  0.400269D-01
      7   0.000000D+00 -0.868483D-01 -0.305704D+00 -0.202519D-01  0.000000D+00
      8   0.000000D+00  0.245835D+00  0.334951D+00  0.215799D+00  0.000000D+00
      9   0.000000D+00  0.742437D-01  0.157423D-01 -0.825344D-01  0.000000D+00
     10  -0.187878D-01  0.000000D+00  0.000000D+00  0.000000D+00  0.137371D+00
     11  -0.180376D+00  0.000000D+00  0.000000D+00  0.000000D+00  0.276794D-01
     12   0.577659D+00  0.000000D+00  0.000000D+00  0.000000D+00  0.481481D+00
     13  -0.182626D-02  0.000000D+00  0.000000D+00  0.000000D+00 -0.202175D+00
     14   0.809109D-01  0.000000D+00  0.000000D+00  0.000000D+00 -0.123533D+00
     15   0.000000D+00  0.919081D-01  0.165381D+00  0.824112D-01  0.000000D+00
     16   0.000000D+00  0.516102D+00  0.312241D+00  0.343854D+00  0.000000D+00
               441           442           443           444           445 
      1  -0.923975D+02 -0.923715D+02 -0.923519D+02 -0.923516D+02 -0.923334D+02
      2   0.000000D+00 -0.970800D-01 -0.100938D-01  0.000000D+00 -0.125852D+00
      3   0.000000D+00 -0.260815D-01 -0.127498D-01  0.000000D+00 -0.294502D-01
      4  -0.588296D-01  0.000000D+00  0.000000D+00  0.185759D-01  0.000000D+00
      5   0.000000D+00  0.242158D+00  0.108844D-01  0.000000D+00  0.368600D+00
      6   0.000000D+00  0.635484D-01  0.632460D-01  0.000000D+00  0.865764D-01
      7   0.148091D+00  0.000000D+00  0.000000D+00 -0.856554D-01  0.000000D+00
      8  -0.106488D+00  0.000000D+00  0.000000D+00  0.332082D+00  0.000000D+00
      9   0.119402D-01  0.000000D+00  0.000000D+00 -0.960694D-01  0.000000D+00
     10   0.000000D+00  0.813690D-01 -0.598163D-01  0.000000D+00  0.264421D+00
     11   0.000000D+00 -0.986768D-01 -0.125570D-01  0.000000D+00  0.156414D-01
     12   0.000000D+00 -0.482655D+00 -0.429762D+00  0.000000D+00 -0.399818D+00
     13   0.000000D+00  0.212786D+00  0.195336D+00  0.000000D+00 -0.197033D+00
     14   0.000000D+00 -0.426117D-02  0.247250D+00  0.000000D+00 -0.292479D+00
     15   0.191362D+00  0.000000D+00  0.000000D+00 -0.821458D-01  0.000000D+00
     16   0.956131D-01  0.000000D+00  0.000000D+00  0.464469D+00  0.000000D+00
               446           447           448           449           450 
      1  -0.923080D+02 -0.922974D+02 -0.922971D+02 -0.922824D+02 -0.922733D+02
      2  -0.338776D-01  0.000000D+00 -0.117550D+00  0.000000D+00  0.108640D-01
      3   0.493094D-01  0.000000D+00 -0.337214D-01  0.000000D+00  0.155452D-02
      4   0.000000D+00 -0.290001D-01  0.000000D+00 -0.869675D-01  0.000000D+00
      5   0.101199D+00  0.000000D+00  0.352124D+00  0.000000D+00 -0.367684D-01
      6  -0.139175D+00  0.000000D+00  0.877925D-01  0.000000D+00 -0.717826D-02
      7   0.000000D+00  0.924504D-01  0.000000D+00  0.262815D+00  0.000000D+00
      8   0.000000D+00  0.171522D-01  0.000000D+00 -0.453887D+00  0.000000D+00
      9   0.000000D+00  0.620845D-01  0.000000D+00  0.287102D-01  0.000000D+00
     10   0.390262D-01  0.000000D+00  0.705967D+00  0.000000D+00 -0.130831D+00
     11  -0.830632D-01  0.000000D+00 -0.420707D+00  0.000000D+00 -0.838636D-01
     12   0.331339D+00  0.000000D+00 -0.229944D+00  0.000000D+00  0.513084D+00
     13   0.492824D-01  0.000000D+00  0.171383D+00  0.000000D+00  0.137967D+00
     14   0.204512D+00  0.000000D+00 -0.679030D+00  0.000000D+00  0.254541D+00
     15   0.000000D+00  0.350407D-01  0.000000D+00 -0.515791D-02  0.000000D+00
     16   0.000000D+00  0.131290D+00  0.000000D+00 -0.273366D+00  0.000000D+00
               451           452           453           454           455 
      1  -0.922590D+02 -0.922480D+02 -0.922476D+02 -0.922213D+02 -0.921972D+02
      2   0.148536D+00  0.000000D+00 -0.208043D-01  0.000000D+00  0.000000D+00
      3   0.124314D-01  0.000000D+00 -0.142896D-01  0.000000D+00  0.000000D+00
      4   0.000000D+00 -0.540629D-01  0.000000D+00  0.135707D+00  0.205504D-02
      5  -0.435090D+00  0.000000D+00  0.462759D-01  0.000000D+00  0.000000D+00
      6  -0.795912D-02  0.000000D+00  0.362139D-01  0.000000D+00  0.000000D+00
      7   0.000000D+00  0.150214D+00  0.000000D+00 -0.392862D+00 -0.919005D-02
      8   0.000000D+00  0.317894D+00  0.000000D+00  0.131507D+00  0.696736D-01
      9   0.000000D+00  0.122464D-01  0.000000D+00 -0.112706D+00 -0.156832D-02
     10  -0.266213D+00  0.000000D+00 -0.271136D-01  0.000000D+00  0.000000D+00
     11   0.238536D+00  0.000000D+00  0.938168D-01  0.000000D+00  0.000000D+00
     12  -0.662003D+00  0.000000D+00  0.125353D+00  0.000000D+00  0.000000D+00
     13  -0.214270D+00  0.000000D+00 -0.116896D+00  0.000000D+00  0.000000D+00
     14   0.161105D+00  0.000000D+00  0.495564D-01  0.000000D+00  0.000000D+00
     15   0.000000D+00 -0.177146D+00  0.000000D+00  0.778313D-01  0.650885D-02
     16   0.000000D+00  0.187723D+00  0.000000D+00  0.244731D+00 -0.196616D-01
               456           457           458           459           460 
      1  -0.921896D+02 -0.921888D+02 -0.921785D+02 -0.921665D+02 -0.921603D+02
      2   0.141426D+00  0.000000D+00 -0.584304D-01  0.000000D+00 -0.270126D-01
      3   0.199569D-01  0.000000D+00  0.287240D-01  0.000000D+00 -0.120996D+00
      4   0.000000D+00 -0.309167D-01  0.000000D+00 -0.691553D-01  0.000000D+00
      5  -0.410933D+00  0.000000D+00  0.163435D+00  0.000000D+00  0.707226D-01
      6  -0.687112D-01  0.000000D+00 -0.665158D-01  0.000000D+00  0.379406D+00
      7   0.000000D+00  0.102029D+00  0.000000D+00  0.204244D+00  0.000000D+00
      8   0.000000D+00 -0.669297D-01  0.000000D+00 -0.131721D+00  0.000000D+00
      9   0.000000D+00 -0.109395D-01  0.000000D+00  0.865781D-02  0.000000D+00
     10  -0.102662D+00  0.000000D+00  0.496318D+00  0.000000D+00 -0.995464D-01
     11   0.222319D+00  0.000000D+00 -0.233874D-01  0.000000D+00 -0.839988D-01
     12   0.759382D-01  0.000000D+00 -0.562232D+00  0.000000D+00 -0.701653D+00
     13   0.159346D-01  0.000000D+00 -0.675094D-01  0.000000D+00 -0.642169D-02
     14   0.181128D+00  0.000000D+00 -0.529418D+00  0.000000D+00  0.103375D-01
     15   0.000000D+00 -0.109123D+00  0.000000D+00  0.236070D-01  0.000000D+00
     16   0.000000D+00 -0.302845D+00  0.000000D+00 -0.431922D-01  0.000000D+00
               461           462           463           464           465 
      1  -0.921344D+02 -0.921199D+02 -0.920925D+02 -0.920897D+02 -0.920638D+02
      2   0.168538D-01 -0.171494D-01  0.000000D+00 -0.604742D-01  0.000000D+00
      3   0.398405D-01  0.517881D-01  0.000000D+00  0.477835D-01  0.000000D+00
      4   0.000000D+00  0.000000D+00  0.887459D-02  0.000000D+00 -0.675732D-01
      5  -0.544330D-01  0.437400D-01  0.000000D+00  0.173274D+00  0.000000D+00
      6  -0.130246D+00 -0.165576D+00  0.000000D+00 -0.138489D+00  0.000000D+00
      7   0.000000D+00  0.000000D+00 -0.329689D-02  0.000000D+00  0.191461D+00
      8   0.000000D+00  0.000000D+00  0.206162D+00  0.000000D+00  0.219411D+00
      9   0.000000D+00  0.000000D+00 -0.123450D-01  0.000000D+00  0.603372D-01
     10  -0.234562D+00 -0.197039D+00  0.000000D+00 -0.258420D+00  0.000000D+00
     11   0.176980D+00 -0.202888D-02  0.000000D+00 -0.105267D-02  0.000000D+00
     12   0.786498D-01  0.372961D+00  0.000000D+00 -0.679521D+00  0.000000D+00
     13   0.508404D-01 -0.548676D-01  0.000000D+00 -0.716550D-01  0.000000D+00
     14   0.342997D+00  0.357073D+00  0.000000D+00  0.674821D-01  0.000000D+00
     15   0.000000D+00  0.000000D+00 -0.119851D+00  0.000000D+00  0.680065D-01
     16   0.000000D+00  0.000000D+00 -0.822961D-01  0.000000D+00  0.175423D+00
               466           467           468           469           470 
      1  -0.920615D+02 -0.920603D+02 -0.920469D+02 -0.920259D+02 -0.920184D+02
      2   0.000000D+00  0.176505D-01 -0.109573D+00  0.000000D+00 -0.354131D-01
      3   0.000000D+00  0.118529D-01 -0.668988D-02  0.000000D+00  0.863892D-01
      4  -0.286319D-01  0.000000D+00  0.000000D+00 -0.748537D-01  0.000000D+00
      5   0.000000D+00 -0.608571D-01  0.325643D+00  0.000000D+00  0.103023D+00
      6   0.000000D+00 -0.452382D-01 -0.896448D-03  0.000000D+00 -0.278434D+00
      7   0.688860D-01  0.000000D+00  0.000000D+00  0.207151D+00  0.000000D+00
      8   0.481482D+00  0.000000D+00  0.000000D+00  0.276502D-01  0.000000D+00
      9  -0.143645D-01  0.000000D+00  0.000000D+00  0.413799D-02  0.000000D+00
     10   0.000000D+00 -0.127938D+00  0.346213D+00  0.000000D+00 -0.564212D-02
     11   0.000000D+00  0.874690D-01 -0.540733D-01  0.000000D+00 -0.142127D+00
     12   0.000000D+00  0.107420D+00  0.846655D-01  0.000000D+00 -0.279485D+00
     13   0.000000D+00 -0.135473D+00  0.606357D-01  0.000000D+00  0.166599D+00
     14   0.000000D+00  0.284781D+00 -0.485553D+00  0.000000D+00  0.143419D+00
     15   0.777053D-01  0.000000D+00  0.000000D+00 -0.376933D-01  0.000000D+00
     16   0.531661D+00  0.000000D+00  0.000000D+00 -0.104145D+00  0.000000D+00
               471           472           473           474           475 
      1  -0.920100D+02 -0.919909D+02 -0.919856D+02 -0.919237D+02 -0.919206D+02
      2  -0.187376D-01  0.000000D+00  0.475246D-01  0.341069D-01  0.000000D+00
      3   0.144170D+00  0.000000D+00  0.624543D-01 -0.590561D-01  0.000000D+00
      4   0.000000D+00 -0.653970D-01  0.000000D+00  0.000000D+00  0.281513D-01
      5   0.410081D-01  0.000000D+00 -0.136817D+00 -0.840407D-01  0.000000D+00
      6  -0.447407D+00  0.000000D+00 -0.199431D+00  0.192374D+00  0.000000D+00
      7   0.000000D+00  0.177121D+00  0.000000D+00  0.000000D+00 -0.652028D-01
      8   0.000000D+00  0.278202D+00  0.000000D+00  0.000000D+00 -0.118274D+00
      9   0.000000D+00  0.247775D-01  0.000000D+00  0.000000D+00  0.240506D-01
     10  -0.288501D-01  0.000000D+00  0.460386D+00  0.163599D+00  0.000000D+00
     11   0.148283D+00  0.000000D+00  0.639856D-02 -0.137325D-01  0.000000D+00
     12   0.141026D+01  0.000000D+00  0.170130D+00 -0.252645D+00  0.000000D+00
     13  -0.158379D+00  0.000000D+00 -0.589563D-01  0.520756D-01  0.000000D+00
     14  -0.152544D-01  0.000000D+00 -0.459373D+00 -0.263843D+00  0.000000D+00
     15   0.000000D+00  0.369102D-01  0.000000D+00  0.000000D+00  0.330232D-01
     16   0.000000D+00  0.234506D+00  0.000000D+00  0.000000D+00 -0.231339D+00
               476           477           478           479           480 
      1  -0.919144D+02 -0.918756D+02 -0.918443D+02 -0.918402D+02 -0.918156D+02
      2   0.166445D-01  0.235096D-01  0.000000D+00 -0.425388D-01  0.000000D+00
      3   0.522849D-01  0.396652D-01  0.000000D+00 -0.307454D-02  0.000000D+00
      4   0.000000D+00  0.000000D+00 -0.851554D-01  0.000000D+00 -0.354917D-01
      5  -0.351864D-01 -0.583880D-01  0.000000D+00  0.113990D+00  0.000000D+00
      6  -0.173538D+00 -0.109289D+00  0.000000D+00  0.215244D-01  0.000000D+00
      7   0.000000D+00  0.000000D+00  0.270150D+00  0.000000D+00  0.104504D+00
      8   0.000000D+00  0.000000D+00 -0.213716D+00  0.000000D+00  0.218622D+00
      9   0.000000D+00  0.000000D+00  0.146027D-01  0.000000D+00  0.177761D-01
     10   0.243233D+00  0.135343D+00  0.000000D+00 -0.178512D+00  0.000000D+00
     11   0.222787D+00  0.445813D-01  0.000000D+00 -0.599552D-01  0.000000D+00
     12  -0.295356D+00 -0.696883D+00  0.000000D+00 -0.230505D+00  0.000000D+00
     13  -0.346542D-01  0.887828D-01  0.000000D+00  0.737927D-01  0.000000D+00
     14  -0.105368D+00 -0.249571D-01  0.000000D+00  0.148127D+00  0.000000D+00
     15   0.000000D+00  0.000000D+00 -0.118906D+00  0.000000D+00  0.126590D+00
     16   0.000000D+00  0.000000D+00 -0.219877D+00  0.000000D+00  0.123383D+00
               481           482           483           484           485 
      1  -0.918040D+02 -0.917841D+02 -0.917763D+02 -0.917617D+02 -0.917564D+02
      2  -0.682410D-01  0.000000D+00  0.000000D+00  0.184277D-02 -0.491735D-01
      3  -0.144261D+00  0.000000D+00  0.000000D+00  0.183813D-01 -0.350079D-01
      4   0.000000D+00  0.139437D+00  0.455812D-01  0.000000D+00  0.000000D+00
      5   0.208802D+00  0.000000D+00  0.000000D+00 -0.102595D-02  0.145898D+00
      6   0.513611D+00  0.000000D+00  0.000000D+00 -0.737615D-01  0.117680D+00
      7   0.000000D+00 -0.434301D+00 -0.159841D+00  0.000000D+00  0.000000D+00
      8   0.000000D+00  0.277730D+00  0.490055D+00  0.000000D+00  0.000000D+00
      9   0.000000D+00 -0.124895D-01  0.276837D-02  0.000000D+00  0.000000D+00
     10   0.285312D+00  0.000000D+00  0.000000D+00 -0.155817D+00 -0.194428D+00
     11  -0.365239D-01  0.000000D+00  0.000000D+00 -0.142030D+00 -0.202307D-01
     12  -0.118861D+01  0.000000D+00  0.000000D+00  0.568492D-01 -0.334555D+00
     13  -0.532743D-01  0.000000D+00  0.000000D+00  0.169247D+00  0.383437D-01
     14  -0.439640D+00  0.000000D+00  0.000000D+00  0.247961D+00  0.135574D+00
     15   0.000000D+00 -0.212082D-01  0.110989D+00  0.000000D+00  0.000000D+00
     16   0.000000D+00  0.151278D+00  0.327657D+00  0.000000D+00  0.000000D+00
               486           487           488           489           490 
      1  -0.917282D+02 -0.916923D+02 -0.915952D+02 -0.915805D+02 -0.915406D+02
      2   0.000000D+00  0.540538D-01  0.985601D-01  0.000000D+00  0.000000D+00
      3   0.000000D+00  0.354550D-01 -0.645331D-01  0.000000D+00  0.000000D+00
      4  -0.783056D-01  0.000000D+00  0.000000D+00  0.117471D+00 -0.250736D-01
      5   0.000000D+00 -0.181302D+00 -0.346754D+00  0.000000D+00  0.000000D+00
      6   0.000000D+00 -0.853346D-01  0.221909D+00  0.000000D+00  0.000000D+00
      7   0.251053D+00  0.000000D+00  0.000000D+00 -0.405064D+00  0.683647D-01
      8  -0.547007D+00  0.000000D+00  0.000000D+00  0.466219D+00  0.245399D+00
      9   0.134606D-01  0.000000D+00  0.000000D+00 -0.295700D-01  0.505247D-02
     10   0.000000D+00 -0.219138D+00 -0.444078D+00  0.000000D+00  0.000000D+00
     11   0.000000D+00 -0.116423D+00  0.125921D+00  0.000000D+00  0.000000D+00
     12   0.000000D+00 -0.579901D-01 -0.625154D+00  0.000000D+00  0.000000D+00
     13   0.000000D+00  0.820828D-01  0.930134D-01  0.000000D+00  0.000000D+00
     14   0.000000D+00  0.188404D+00  0.269402D+00  0.000000D+00  0.000000D+00
     15  -0.185081D+00  0.000000D+00  0.000000D+00  0.209199D+00  0.107970D+00
     16  -0.610203D+00  0.000000D+00  0.000000D+00  0.491295D+00  0.229832D+00
               491           492           493           494           495 
      1  -0.915363D+02 -0.915200D+02 -0.915071D+02 -0.914823D+02 -0.913567D+02
      2  -0.312535D-01  0.125127D-01  0.000000D+00  0.730618D-01 -0.481206D-01
      3   0.586999D-02 -0.442935D-02  0.000000D+00 -0.451751D-01  0.421560D-01
      4   0.000000D+00  0.000000D+00 -0.591866D-01  0.000000D+00  0.000000D+00
      5   0.938423D-01 -0.489369D-01  0.000000D+00 -0.252434D+00  0.162052D+00
      6  -0.177753D-01  0.304373D-01  0.000000D+00  0.172700D+00 -0.984974D-01
      7   0.000000D+00  0.000000D+00  0.200439D+00  0.000000D+00  0.000000D+00
      8   0.000000D+00  0.000000D+00 -0.356702D+00  0.000000D+00  0.000000D+00
      9   0.000000D+00  0.000000D+00 -0.764608D-02  0.000000D+00  0.000000D+00
     10  -0.194785D+00  0.814440D-02  0.000000D+00 -0.414156D+00  0.180910D+00
     11  -0.107436D+00  0.959697D-01  0.000000D+00  0.148442D+00  0.201385D-03
     12  -0.296908D+00 -0.960032D+00  0.000000D+00 -0.611406D+00  0.880505D-01
     13   0.129895D+00  0.149359D-01  0.000000D+00  0.432293D-01 -0.789329D-01
     14   0.118018D+00 -0.728086D-01  0.000000D+00  0.353991D+00 -0.816061D-01
     15   0.000000D+00  0.000000D+00 -0.646846D-01  0.000000D+00  0.000000D+00
     16   0.000000D+00  0.000000D+00 -0.379570D+00  0.000000D+00  0.000000D+00
               496           497 
      1  -0.912808D+02 -0.911197D+02
      2   0.000000D+00  0.000000D+00
      3   0.000000D+00  0.000000D+00
      4  -0.116002D-01  0.645750D-01
      5   0.000000D+00  0.000000D+00
      6   0.000000D+00  0.000000D+00
      7   0.377920D-01 -0.218878D+00
      8  -0.103305D+00  0.249583D+00
      9  -0.187232D-02 -0.855088D-02
     10   0.000000D+00  0.000000D+00
     11   0.000000D+00  0.000000D+00
     12   0.000000D+00  0.000000D+00
     13   0.000000D+00  0.000000D+00
     14   0.000000D+00  0.000000D+00
     15  -0.672809D-01  0.155592D+00
     16  -0.346741D-01  0.201706D+00
 Unable to Open any file for archive entry.
 1\1\GINC-HEL25\SP\RLC-BLYP TD-FC\Gen\C1H5N1\SABYASACHI\21-Mar-2022\0\\
 #P TD(Nstates=10000) lc-blyp/Gen SCF(maxcycles=100) Int(Grid=ultrafine
 )\\xGDB7_00001_tier4.com\\0,1\C,0,-0.049078,0.702042,0.\N,0,-0.049078,
 -0.754243,0.\H,0,0.946109,1.166603,0.\H,0,-0.587574,1.062597,0.87777\H
 ,0,-0.587574,1.062597,-0.87777\H,0,0.433525,-1.112175,0.812504\H,0,0.4
 33525,-1.112175,-0.812504\\Version=EM64L-G16RevC.01\State=1-A'\HF=-95.
 5237284\RMSD=3.667e-09\PG=CS [SG(C1H1N1),X(H4)]\\@
 The archive entry for this job was punched.


 I DON'T EXACTLY UNDERSTAND WHAT YOU ARE SAYING,
 BUT YOU ARE ABSOLUTELY RIGHT.
     M.S.GORDON, IN A NDSU FACULTY MEETING
 Job cpu time:       0 days  0 hours  3 minutes 10.6 seconds.
 Elapsed time:       0 days  0 hours  0 minutes 24.1 seconds.
 File lengths (MBytes):  RWF=    322 Int=      0 D2E=      0 Chk=     78 Scr=      1
 Normal termination of Gaussian 16 at Mon Mar 21 20:07:07 2022.
