 Entering Gaussian System, Link 0=g16
 Input=000014.com
 Output=000014.log
 Initial command:
 /home/sabyasachi/g16/l1.exe "/scratch/sabyasachi/PBS_7976214.helios/Gau-156998.inp" -scrdir="/scratch/sabyasachi/PBS_7976214.helios/"
 Entering Link 1 = /home/sabyasachi/g16/l1.exe PID=    156999.
  
 Copyright (c) 1988-2019, Gaussian, Inc.  All Rights Reserved.
  
 This is part of the Gaussian(R) 16 program.  It is based on
 the Gaussian(R) 09 system (copyright 2009, Gaussian, Inc.),
 the Gaussian(R) 03 system (copyright 2003, Gaussian, Inc.),
 the Gaussian(R) 98 system (copyright 1998, Gaussian, Inc.),
 the Gaussian(R) 94 system (copyright 1995, Gaussian, Inc.),
 the Gaussian 92(TM) system (copyright 1992, Gaussian, Inc.),
 the Gaussian 90(TM) system (copyright 1990, Gaussian, Inc.),
 the Gaussian 88(TM) system (copyright 1988, Gaussian, Inc.),
 the Gaussian 86(TM) system (copyright 1986, Carnegie Mellon
 University), and the Gaussian 82(TM) system (copyright 1983,
 Carnegie Mellon University). Gaussian is a federally registered
 trademark of Gaussian, Inc.
  
 This software contains proprietary and confidential information,
 including trade secrets, belonging to Gaussian, Inc.
  
 This software is provided under written license and may be
 used, copied, transmitted, or stored only in accord with that
 written license.
  
 The following legend is applicable only to US Government
 contracts under FAR:
  
                    RESTRICTED RIGHTS LEGEND
  
 Use, reproduction and disclosure by the US Government is
 subject to restrictions as set forth in subparagraphs (a)
 and (c) of the Commercial Computer Software - Restricted
 Rights clause in FAR 52.227-19.
  
 Gaussian, Inc.
 340 Quinnipiac St., Bldg. 40, Wallingford CT 06492
  
  
 ---------------------------------------------------------------
 Warning -- This program may not be used in any manner that
 competes with the business of Gaussian, Inc. or will provide
 assistance to any competitor of Gaussian, Inc.  The licensee
 of this program is prohibited from giving any competitor of
 Gaussian, Inc. access to this program.  By using this program,
 the user acknowledges that Gaussian, Inc. is engaged in the
 business of creating and licensing software in the field of
 computational chemistry and represents and warrants to the
 licensee that it is not a competitor of Gaussian, Inc. and that
 it will not use this program in any manner prohibited above.
 ---------------------------------------------------------------
  

 Cite this work as:
 Gaussian 16, Revision C.01,
 M. J. Frisch, G. W. Trucks, H. B. Schlegel, G. E. Scuseria, 
 M. A. Robb, J. R. Cheeseman, G. Scalmani, V. Barone, 
 G. A. Petersson, H. Nakatsuji, X. Li, M. Caricato, A. V. Marenich, 
 J. Bloino, B. G. Janesko, R. Gomperts, B. Mennucci, H. P. Hratchian, 
 J. V. Ortiz, A. F. Izmaylov, J. L. Sonnenberg, D. Williams-Young, 
 F. Ding, F. Lipparini, F. Egidi, J. Goings, B. Peng, A. Petrone, 
 T. Henderson, D. Ranasinghe, V. G. Zakrzewski, J. Gao, N. Rega, 
 G. Zheng, W. Liang, M. Hada, M. Ehara, K. Toyota, R. Fukuda, 
 J. Hasegawa, M. Ishida, T. Nakajima, Y. Honda, O. Kitao, H. Nakai, 
 T. Vreven, K. Throssell, J. A. Montgomery, Jr., J. E. Peralta, 
 F. Ogliaro, M. J. Bearpark, J. J. Heyd, E. N. Brothers, K. N. Kudin, 
 V. N. Staroverov, T. A. Keith, R. Kobayashi, J. Normand, 
 K. Raghavachari, A. P. Rendell, J. C. Burant, S. S. Iyengar, 
 J. Tomasi, M. Cossi, J. M. Millam, M. Klene, C. Adamo, R. Cammi, 
 J. W. Ochterski, R. L. Martin, K. Morokuma, O. Farkas, 
 J. B. Foresman, and D. J. Fox, Gaussian, Inc., Wallingford CT, 2019.
 
 ******************************************
 Gaussian 16:  EM64L-G16RevC.01  3-Jul-2019
                21-Mar-2022 
 ******************************************
 %mem=64gb
 %nproc=8
 Will use up to    8 processors via shared memory.
 ----------------------------------------------------------------------
 #P TD(Nstates=10000) lc-blyp/Gen SCF(maxcycles=100) Int(Grid=ultrafine
 )
 ----------------------------------------------------------------------
 1/38=1,172=1/1;
 2/12=2,17=6,18=5,40=1/2;
 3/5=7,11=9,25=1,30=1,74=1000402,75=-5/1,2,3,8;
 4//1;
 5/5=2,7=100,38=5/2;
 8/6=1,10=1,108=10000/1;
 9/41=10000,42=1,70=2/14;
 6/7=2,8=2,9=2,10=2/1;
 99/5=1,9=1/99;
 Leave Link    1 at Mon Mar 21 20:15:20 2022, MaxMem=  8589934592 cpu:               0.3 elap:               0.0
 (Enter /home/sabyasachi/g16/l101.exe)
 ---------------------
 xGDB7_00001_tier4.com
 ---------------------
 Symbolic Z-matrix:
 Charge =  0 Multiplicity = 1
 6                     0.        1.26773  -0.25908 
 6                     0.        0.        0.58555 
 6                     0.       -1.26773  -0.25908 
 1                     0.        2.16431   0.36309 
 1                    -0.88145   1.30768  -0.90365 
 1                     0.88145   1.30768  -0.90365 
 1                    -0.87453   0.        1.24206 
 1                     0.87453   0.        1.24206 
 1                    -0.88145  -1.30768  -0.90365 
 1                     0.       -2.16431   0.36309 
 1                     0.88145  -1.30768  -0.90365 
 
 ITRead=  0  0  0  0  0  0  0  0  0  0  0
 MicOpt= -1 -1 -1 -1 -1 -1 -1 -1 -1 -1 -1
 NAtoms=     11 NQM=       11 NQMF=       0 NMMI=      0 NMMIF=      0
                NMic=       0 NMicF=      0.
                    Isotopes and Nuclear Properties:
 (Nuclear quadrupole moments (NQMom) in fm**2, nuclear magnetic moments (NMagM)
  in nuclear magnetons)

  Atom         1           2           3           4           5           6           7           8           9          10
 IAtWgt=          12          12          12           1           1           1           1           1           1           1
 AtmWgt=  12.0000000  12.0000000  12.0000000   1.0078250   1.0078250   1.0078250   1.0078250   1.0078250   1.0078250   1.0078250
 NucSpn=           0           0           0           1           1           1           1           1           1           1
 AtZEff=  -0.0000000  -0.0000000  -0.0000000  -0.0000000  -0.0000000  -0.0000000  -0.0000000  -0.0000000  -0.0000000  -0.0000000
 NQMom=    0.0000000   0.0000000   0.0000000   0.0000000   0.0000000   0.0000000   0.0000000   0.0000000   0.0000000   0.0000000
 NMagM=    0.0000000   0.0000000   0.0000000   2.7928460   2.7928460   2.7928460   2.7928460   2.7928460   2.7928460   2.7928460
 AtZNuc=   6.0000000   6.0000000   6.0000000   1.0000000   1.0000000   1.0000000   1.0000000   1.0000000   1.0000000   1.0000000

  Atom        11
 IAtWgt=           1
 AtmWgt=   1.0078250
 NucSpn=           1
 AtZEff=  -0.0000000
 NQMom=    0.0000000
 NMagM=    2.7928460
 AtZNuc=   1.0000000
 Leave Link  101 at Mon Mar 21 20:15:20 2022, MaxMem=  8589934592 cpu:               0.7 elap:               0.1
 (Enter /home/sabyasachi/g16/l202.exe)
                          Input orientation:                          
 ---------------------------------------------------------------------
 Center     Atomic      Atomic             Coordinates (Angstroms)
 Number     Number       Type             X           Y           Z
 ---------------------------------------------------------------------
      1          6           0        0.000000    1.267731   -0.259082
      2          6           0        0.000000    0.000000    0.585552
      3          6           0        0.000000   -1.267731   -0.259082
      4          1           0        0.000000    2.164308    0.363087
      5          1           0       -0.881453    1.307675   -0.903652
      6          1           0        0.881453    1.307675   -0.903652
      7          1           0       -0.874532    0.000000    1.242055
      8          1           0        0.874532    0.000000    1.242055
      9          1           0       -0.881453   -1.307675   -0.903652
     10          1           0        0.000000   -2.164308    0.363087
     11          1           0        0.881453   -1.307675   -0.903652
 ---------------------------------------------------------------------
                    Distance matrix (angstroms):
                    1          2          3          4          5
     1  C    0.000000
     2  C    1.523335   0.000000
     3  C    2.535462   1.523335   0.000000
     4  H    1.091304   2.175711   3.487977   0.000000
     5  H    1.092715   2.169032   2.797346   1.765052   0.000000
     6  H    1.092715   2.169032   2.797346   1.765052   1.762906
     7  H    2.150665   1.093528   2.150665   2.494318   2.512791
     8  H    2.150665   1.093528   2.150665   2.494318   3.065543
     9  H    2.797346   2.169032   1.092715   3.799507   2.615350
    10  H    3.487977   2.175711   1.091304   4.328616   3.799507
    11  H    2.797346   2.169032   1.092715   3.799507   3.154028
                    6          7          8          9         10
     6  H    0.000000
     7  H    3.065543   0.000000
     8  H    2.512791   1.749064   0.000000
     9  H    3.154028   2.512791   3.065543   0.000000
    10  H    3.799507   2.494318   2.494318   1.765052   0.000000
    11  H    2.615350   3.065543   2.512791   1.762906   1.765052
                   11
    11  H    0.000000
 Stoichiometry    C3H8
 Framework group  C2V[C2(C),SGV(C2H2),SGV'(H2),X(H4)]
 Deg. of freedom     9
 Full point group                 C2V     NOp   4
 Largest Abelian subgroup         C2V     NOp   4
 Largest concise Abelian subgroup C2V     NOp   4
                         Standard orientation:                         
 ---------------------------------------------------------------------
 Center     Atomic      Atomic             Coordinates (Angstroms)
 Number     Number       Type             X           Y           Z
 ---------------------------------------------------------------------
      1          6           0        0.000000    1.267731   -0.259082
      2          6           0       -0.000000   -0.000000    0.585552
      3          6           0       -0.000000   -1.267731   -0.259082
      4          1           0        0.000000    2.164308    0.363087
      5          1           0       -0.881453    1.307675   -0.903652
      6          1           0        0.881453    1.307675   -0.903652
      7          1           0       -0.874532    0.000000    1.242055
      8          1           0        0.874532   -0.000000    1.242055
      9          1           0       -0.881453   -1.307675   -0.903652
     10          1           0       -0.000000   -2.164308    0.363087
     11          1           0        0.881453   -1.307675   -0.903652
 ---------------------------------------------------------------------
 Rotational constants (GHZ):          29.6189661           8.4822903           7.5098267
 Leave Link  202 at Mon Mar 21 20:15:20 2022, MaxMem=  8589934592 cpu:               0.1 elap:               0.0
 (Enter /home/sabyasachi/g16/l301.exe)
 General basis read from cards:  (5D, 7F)
 Centers:       4      5      6      7      8      9     10     11
 S 3 1.00
     Exponent=  1.3010701000D+01 Coefficients=  1.9682158000D-02
     Exponent=  1.9622572000D+00 Coefficients=  1.3796524000D-01
     Exponent=  4.4453796000D-01 Coefficients=  4.7831935000D-01
 S 1 1.00
     Exponent=  1.2194962000D-01 Coefficients=  1.0000000000D+00
 P 1 1.00
     Exponent=  8.0000000000D-01 Coefficients=  1.0000000000D+00
 P 1 1.00
     Exponent=  1.1704099050D-01 Coefficients=  1.0000000000D+00
 ****
 Centers:       1      2      3
 S 5 1.00
     Exponent=  1.2384016938D+03 Coefficients=  5.4568832082D-03
     Exponent=  1.8629004992D+02 Coefficients=  4.0638409211D-02
     Exponent=  4.2251176346D+01 Coefficients=  1.8025593888D-01
     Exponent=  1.1676557932D+01 Coefficients=  4.6315121755D-01
     Exponent=  3.5930506482D+00 Coefficients=  4.4087173314D-01
 S 1 1.00
     Exponent=  4.0245147363D-01 Coefficients=  1.0000000000D+00
 S 1 1.00
     Exponent=  1.3090182668D-01 Coefficients=  1.0000000000D+00
 S 1 1.00
     Exponent=  6.7053540256D-02 Coefficients=  1.0000000000D+00
 P 3 1.00
     Exponent=  9.4680970621D+00 Coefficients=  3.8387871728D-02
     Exponent=  2.0103545142D+00 Coefficients=  2.1117025112D-01
     Exponent=  5.4771004707D-01 Coefficients=  5.1328172114D-01
 P 1 1.00
     Exponent=  1.5268613795D-01 Coefficients=  1.0000000000D+00
 D 1 1.00
     Exponent=  8.0000000000D-01 Coefficients=  1.0000000000D+00
 D 1 1.00
     Exponent=  1.1713185140D-01 Coefficients=  1.0000000000D+00
 ****
 Ernie: Thresh=  0.10000D-02 Tol=  0.10000D-05 Strict=F.
 There are    48 symmetry adapted cartesian basis functions of A1  symmetry.
 There are    20 symmetry adapted cartesian basis functions of A2  symmetry.
 There are    26 symmetry adapted cartesian basis functions of B1  symmetry.
 There are    36 symmetry adapted cartesian basis functions of B2  symmetry.
 There are    44 symmetry adapted basis functions of A1  symmetry.
 There are    20 symmetry adapted basis functions of A2  symmetry.
 There are    26 symmetry adapted basis functions of B1  symmetry.
 There are    34 symmetry adapted basis functions of B2  symmetry.
   124 basis functions,   176 primitive gaussians,   130 cartesian basis functions
    13 alpha electrons       13 beta electrons
       nuclear repulsion energy        82.7165400226 Hartrees.
 IExCor=10402 DFT=T Ex=LC-B+HF Corr=LYP ExCW=0 ScaHFX=  1.000000
 ScaDFX=  1.000000  1.000000  1.000000  1.000000 ScalE2=  1.000000  1.000000
 IRadAn=      5 IRanWt=     -1 IRanGd=            0 ICorTp=0 IEmpDi=  4
 HFx  wShort=  0.000000 wLong=  0.470000 cFull=  0.000000 cShort=  0.000000 cLong=  1.000000
 DFx  wShort=  0.000000 wLong=  0.470000 cFull=  0.000000 cShort=  0.000000 cLong=  1.000000
 NAtoms=   11 NActive=   11 NUniq=    5 SFac= 4.00D+00 NAtFMM=   60 NAOKFM=F Big=F
 Integral buffers will be    131072 words long.
 Raffenetti 1 integral format.
 Two-electron integral symmetry is turned on.
 Leave Link  301 at Mon Mar 21 20:15:21 2022, MaxMem=  8589934592 cpu:               0.5 elap:               0.1
 (Enter /home/sabyasachi/g16/l302.exe)
 NPDir=0 NMtPBC=     1 NCelOv=     1 NCel=       1 NClECP=     1 NCelD=      1
         NCelK=      1 NCelE2=     1 NClLst=     1 CellRange=     0.0.
 One-electron integrals computed using PRISM.
 One-electron integral symmetry used in STVInt
 NBasis=   124 RedAO= T EigKep=  2.54D-04  NBF=    44    20    26    34
 NBsUse=   124 1.00D-06 EigRej= -1.00D+00 NBFU=    44    20    26    34
 Precomputing XC quadrature grid using
 IXCGrd= 4 IRadAn=           5 IRanWt=          -1 IRanGd=           0 AccXCQ= 0.00D+00.
 Generated NRdTot=       0 NPtTot=           0 NUsed=           0 NTot=          32
 NSgBfM=   130   130   130   130   130 MxSgAt=    11 MxSgA2=    11.
 Leave Link  302 at Mon Mar 21 20:15:21 2022, MaxMem=  8589934592 cpu:               1.1 elap:               0.2
 (Enter /home/sabyasachi/g16/l303.exe)
 DipDrv:  MaxL=1.
 Leave Link  303 at Mon Mar 21 20:15:21 2022, MaxMem=  8589934592 cpu:               0.2 elap:               0.0
 (Enter /home/sabyasachi/g16/l308.exe)
 Leave Link  308 at Mon Mar 21 20:15:21 2022, MaxMem=  8589934592 cpu:               0.2 elap:               0.1
 (Enter /home/sabyasachi/g16/l401.exe)
 ExpMin= 6.71D-02 ExpMax= 1.24D+03 ExpMxC= 1.86D+02 IAcc=3 IRadAn=         5 AccDes= 0.00D+00
 Harris functional with IExCor=10402 and IRadAn=       5 diagonalized for initial guess.
 HarFok:  IExCor=10402 AccDes= 0.00D+00 IRadAn=         5 IDoV= 1 UseB2=F ITyADJ=14
 ICtDFT=  3500011 ScaDFX=  1.000000  1.000000  1.000000  1.000000
 FoFCou: FMM=F IPFlag=           0 FMFlag=      100000 FMFlg1=           0
         NFxFlg=           0 DoJE=T BraDBF=F KetDBF=T FulRan=T
         wScrn=  0.000000 ICntrl=       500 IOpCl=  0 I1Cent=   200000004 NGrid=           0
         NMat0=    1 NMatS0=      1 NMatT0=    0 NMatD0=    1 NMtDS0=    0 NMtDT0=    0
 Petite list used in FoFCou.
 Harris En= -113.030048967299    
 JPrj=0 DoOrth=F DoCkMO=F.
 Initial guess orbital symmetries:
       Occupied  (B2) (A1) (A1) (A1) (B2) (A1) (B1) (A1) (B2) (A2)
                 (B2) (A1) (B1)
       Virtual   (A1) (B2) (A1) (B1) (A1) (B1) (A1) (B2) (A2) (A2)
                 (A1) (B2) (B1) (B2) (A1) (B1) (B2) (A1) (A1) (B2)
                 (A1) (A2) (B1) (A1) (B1) (A1) (B2) (B1) (A2) (A2)
                 (B2) (A1) (A1) (B2) (B1) (B2) (A1) (A2) (B1) (A1)
                 (A2) (B1) (A1) (B2) (B2) (A1) (B1) (B2) (A1) (B2)
                 (A2) (A2) (A1) (B2) (A1) (B1) (B2) (A1) (A1) (B1)
                 (B2) (A2) (A1) (B2) (A1) (B1) (A2) (B2) (B1) (A1)
                 (B2) (A1) (A1) (A2) (B1) (B2) (A2) (B1) (A1) (A2)
                 (B2) (B1) (A1) (A2) (B2) (B1) (A1) (B1) (B2) (A2)
                 (A1) (B1) (B2) (A1) (B2) (A1) (A2) (A1) (B2) (B1)
                 (A1) (B2) (A2) (A1) (B2) (B1) (A1) (B2) (A2) (A1)
                 (B1)
 The electronic state of the initial guess is 1-A1.
 Leave Link  401 at Mon Mar 21 20:15:21 2022, MaxMem=  8589934592 cpu:               2.0 elap:               0.3
 (Enter /home/sabyasachi/g16/l502.exe)
 Keep R1 ints in memory in symmetry-blocked form, NReq=75206329.
 FoFCou: FMM=F IPFlag=           0 FMFlag=           0 FMFlg1=           0
         NFxFlg=           0 DoJE=F BraDBF=F KetDBF=F FulRan=T
         wScrn=  0.000000 ICntrl=       600 IOpCl=  0 I1Cent=           0 NGrid=           0
         NMat0=    1 NMatS0=   7750 NMatT0=    0 NMatD0=    1 NMtDS0=    0 NMtDT0=    0
 Petite list used in FoFCou.
 Closed shell SCF:
 Using DIIS extrapolation, IDIIS=  1040.
 NGot=  8589934592 LenX=  8582321173 LenY=  8582303832
 Requested convergence on RMS density matrix=1.00D-08 within 100 cycles.
 Requested convergence on MAX density matrix=1.00D-06.
 Requested convergence on             energy=1.00D-06.
 No special actions if energy rises.
 Integral accuracy reduced to 1.0D-05 until final iterations.

 Cycle   1  Pass 0  IDiag  1:
 E= -118.589880467572    
 DIIS: error= 2.52D-02 at cycle   1 NSaved=   1.
 NSaved= 1 IEnMin= 1 EnMin= -118.589880467572     IErMin= 1 ErrMin= 2.52D-02
 ErrMax= 2.52D-02  0.00D+00 EMaxC= 1.00D-01 BMatC= 7.05D-02 BMatP= 7.05D-02
 IDIUse=3 WtCom= 7.48D-01 WtEn= 2.52D-01
 Coeff-Com:  0.100D+01
 Coeff-En:   0.100D+01
 Coeff:      0.100D+01
 Gap=     0.473 Goal=   None    Shift=    0.000
 GapD=    0.473 DampG=2.000 DampE=0.500 DampFc=1.0000 IDamp=-1.
 RMSDP=5.40D-03 MaxDP=1.30D-01              OVMax= 8.66D-02

 Cycle   2  Pass 0  IDiag  1:
 E= -118.632964634123     Delta-E=       -0.043084166551 Rises=F Damp=F
 DIIS: error= 2.14D-02 at cycle   2 NSaved=   2.
 NSaved= 2 IEnMin= 2 EnMin= -118.632964634123     IErMin= 2 ErrMin= 2.14D-02
 ErrMax= 2.14D-02  0.00D+00 EMaxC= 1.00D-01 BMatC= 3.09D-02 BMatP= 7.05D-02
 IDIUse=3 WtCom= 7.86D-01 WtEn= 2.14D-01
 Coeff-Com:  0.394D+00 0.606D+00
 Coeff-En:   0.211D+00 0.789D+00
 Coeff:      0.355D+00 0.645D+00
 Gap=     0.536 Goal=   None    Shift=    0.000
 RMSDP=2.04D-03 MaxDP=4.62D-02 DE=-4.31D-02 OVMax= 4.23D-02

 Cycle   3  Pass 0  IDiag  1:
 E= -118.664216860330     Delta-E=       -0.031252226207 Rises=F Damp=F
 DIIS: error= 2.35D-03 at cycle   3 NSaved=   3.
 NSaved= 3 IEnMin= 3 EnMin= -118.664216860330     IErMin= 3 ErrMin= 2.35D-03
 ErrMax= 2.35D-03  0.00D+00 EMaxC= 1.00D-01 BMatC= 3.86D-04 BMatP= 3.09D-02
 IDIUse=3 WtCom= 9.76D-01 WtEn= 2.35D-02
 Coeff-Com: -0.986D-02 0.750D-01 0.935D+00
 Coeff-En:   0.000D+00 0.000D+00 0.100D+01
 Coeff:     -0.963D-02 0.733D-01 0.936D+00
 Gap=     0.532 Goal=   None    Shift=    0.000
 RMSDP=3.60D-04 MaxDP=5.00D-03 DE=-3.13D-02 OVMax= 5.55D-03

 Cycle   4  Pass 0  IDiag  1:
 E= -118.664661462980     Delta-E=       -0.000444602649 Rises=F Damp=F
 DIIS: error= 5.12D-04 at cycle   4 NSaved=   4.
 NSaved= 4 IEnMin= 4 EnMin= -118.664661462980     IErMin= 4 ErrMin= 5.12D-04
 ErrMax= 5.12D-04  0.00D+00 EMaxC= 1.00D-01 BMatC= 1.28D-05 BMatP= 3.86D-04
 IDIUse=3 WtCom= 9.95D-01 WtEn= 5.12D-03
 Coeff-Com: -0.204D-01-0.197D-01 0.131D+00 0.909D+00
 Coeff-En:   0.000D+00 0.000D+00 0.000D+00 0.100D+01
 Coeff:     -0.203D-01-0.196D-01 0.131D+00 0.909D+00
 Gap=     0.532 Goal=   None    Shift=    0.000
 RMSDP=1.17D-04 MaxDP=1.83D-03 DE=-4.45D-04 OVMax= 1.56D-03

 Cycle   5  Pass 0  IDiag  1:
 E= -118.664679964666     Delta-E=       -0.000018501686 Rises=F Damp=F
 DIIS: error= 1.14D-04 at cycle   5 NSaved=   5.
 NSaved= 5 IEnMin= 5 EnMin= -118.664679964666     IErMin= 5 ErrMin= 1.14D-04
 ErrMax= 1.14D-04  0.00D+00 EMaxC= 1.00D-01 BMatC= 1.52D-06 BMatP= 1.28D-05
 IDIUse=3 WtCom= 9.99D-01 WtEn= 1.14D-03
 Coeff-Com: -0.490D-02-0.103D-01-0.267D-01 0.248D+00 0.794D+00
 Coeff-En:   0.000D+00 0.000D+00 0.000D+00 0.000D+00 0.100D+01
 Coeff:     -0.489D-02-0.103D-01-0.267D-01 0.247D+00 0.794D+00
 Gap=     0.532 Goal=   None    Shift=    0.000
 RMSDP=3.08D-05 MaxDP=6.63D-04 DE=-1.85D-05 OVMax= 3.68D-04

 Cycle   6  Pass 0  IDiag  1:
 E= -118.664681760490     Delta-E=       -0.000001795824 Rises=F Damp=F
 DIIS: error= 1.98D-05 at cycle   6 NSaved=   6.
 NSaved= 6 IEnMin= 6 EnMin= -118.664681760490     IErMin= 6 ErrMin= 1.98D-05
 ErrMax= 1.98D-05  0.00D+00 EMaxC= 1.00D-01 BMatC= 4.43D-08 BMatP= 1.52D-06
 IDIUse=1 WtCom= 1.00D+00 WtEn= 0.00D+00
 Coeff-Com:  0.688D-03-0.148D-03-0.121D-01-0.288D-01 0.932D-01 0.947D+00
 Coeff:      0.688D-03-0.148D-03-0.121D-01-0.288D-01 0.932D-01 0.947D+00
 Gap=     0.532 Goal=   None    Shift=    0.000
 RMSDP=5.54D-06 MaxDP=7.07D-05 DE=-1.80D-06 OVMax= 1.09D-04

 Initial convergence to 1.0D-05 achieved.  Increase integral accuracy.
 Cycle   7  Pass 1  IDiag  1:
 E= -118.664679872893     Delta-E=        0.000001887597 Rises=F Damp=F
 DIIS: error= 5.20D-06 at cycle   1 NSaved=   1.
 NSaved= 1 IEnMin= 1 EnMin= -118.664679872893     IErMin= 1 ErrMin= 5.20D-06
 ErrMax= 5.20D-06  0.00D+00 EMaxC= 1.00D-01 BMatC= 1.52D-09 BMatP= 1.52D-09
 IDIUse=1 WtCom= 1.00D+00 WtEn= 0.00D+00
 Coeff-Com:  0.100D+01
 Coeff:      0.100D+01
 Gap=     0.532 Goal=   None    Shift=    0.000
 RMSDP=5.54D-06 MaxDP=7.07D-05 DE= 1.89D-06 OVMax= 2.43D-05

 Cycle   8  Pass 1  IDiag  1:
 E= -118.664679876559     Delta-E=       -0.000000003666 Rises=F Damp=F
 DIIS: error= 1.99D-06 at cycle   2 NSaved=   2.
 NSaved= 2 IEnMin= 2 EnMin= -118.664679876559     IErMin= 2 ErrMin= 1.99D-06
 ErrMax= 1.99D-06  0.00D+00 EMaxC= 1.00D-01 BMatC= 1.88D-10 BMatP= 1.52D-09
 IDIUse=1 WtCom= 1.00D+00 WtEn= 0.00D+00
 Coeff-Com: -0.145D-02 0.100D+01
 Coeff:     -0.145D-02 0.100D+01
 Gap=     0.532 Goal=   None    Shift=    0.000
 RMSDP=3.96D-07 MaxDP=5.52D-06 DE=-3.67D-09 OVMax= 8.83D-06

 Cycle   9  Pass 1  IDiag  1:
 E= -118.664679876988     Delta-E=       -0.000000000429 Rises=F Damp=F
 DIIS: error= 7.45D-07 at cycle   3 NSaved=   3.
 NSaved= 3 IEnMin= 3 EnMin= -118.664679876988     IErMin= 3 ErrMin= 7.45D-07
 ErrMax= 7.45D-07  0.00D+00 EMaxC= 1.00D-01 BMatC= 4.58D-11 BMatP= 1.88D-10
 IDIUse=1 WtCom= 1.00D+00 WtEn= 0.00D+00
 Coeff-Com: -0.149D+00 0.233D+00 0.915D+00
 Coeff:     -0.149D+00 0.233D+00 0.915D+00
 Gap=     0.532 Goal=   None    Shift=    0.000
 RMSDP=1.45D-07 MaxDP=2.55D-06 DE=-4.29D-10 OVMax= 4.20D-06

 Cycle  10  Pass 1  IDiag  1:
 E= -118.664679877064     Delta-E=       -0.000000000076 Rises=F Damp=F
 DIIS: error= 1.06D-07 at cycle   4 NSaved=   4.
 NSaved= 4 IEnMin= 4 EnMin= -118.664679877064     IErMin= 4 ErrMin= 1.06D-07
 ErrMax= 1.06D-07  0.00D+00 EMaxC= 1.00D-01 BMatC= 1.33D-12 BMatP= 4.58D-11
 IDIUse=1 WtCom= 1.00D+00 WtEn= 0.00D+00
 Coeff-Com: -0.328D-01 0.777D-02 0.205D+00 0.820D+00
 Coeff:     -0.328D-01 0.777D-02 0.205D+00 0.820D+00
 Gap=     0.532 Goal=   None    Shift=    0.000
 RMSDP=1.96D-08 MaxDP=4.85D-07 DE=-7.61D-11 OVMax= 5.85D-07

 Cycle  11  Pass 1  IDiag  1:
 E= -118.664679877066     Delta-E=       -0.000000000002 Rises=F Damp=F
 DIIS: error= 2.54D-08 at cycle   5 NSaved=   5.
 NSaved= 5 IEnMin= 5 EnMin= -118.664679877066     IErMin= 5 ErrMin= 2.54D-08
 ErrMax= 2.54D-08  0.00D+00 EMaxC= 1.00D-01 BMatC= 2.33D-14 BMatP= 1.33D-12
 IDIUse=1 WtCom= 1.00D+00 WtEn= 0.00D+00
 Coeff-Com:  0.721D-02-0.971D-02-0.456D-01-0.554D-01 0.110D+01
 Coeff:      0.721D-02-0.971D-02-0.456D-01-0.554D-01 0.110D+01
 Gap=     0.532 Goal=   None    Shift=    0.000
 RMSDP=6.16D-09 MaxDP=8.06D-08 DE=-2.25D-12 OVMax= 1.30D-07

 SCF Done:  E(RLC-B+HF-LYP) =  -118.664679877     A.U. after   11 cycles
            NFock= 11  Conv=0.62D-08     -V/T= 2.0124
 KE= 1.172080075872D+02 PE=-4.390720642141D+02 EE= 1.204828367272D+02
 Leave Link  502 at Mon Mar 21 20:15:23 2022, MaxMem=  8589934592 cpu:              14.1 elap:               1.8
 (Enter /home/sabyasachi/g16/l801.exe)
 DoSCS=F DFT=T ScalE2(SS,OS)=  1.000000  1.000000
 ExpMin= 6.71D-02 ExpMax= 1.24D+03 ExpMxC= 1.86D+02 IAcc=3 IRadAn=         5 AccDes= 0.00D+00
 HarFok:  IExCor=  205 AccDes= 0.00D+00 IRadAn=         5 IDoV=-2 UseB2=F ITyADJ=14
 ICtDFT= 12500011 ScaDFX=  1.000000  1.000000  1.000000  1.000000
 Largest valence mixing into a core orbital is  6.32D-05
 Largest core mixing into a valence orbital is  8.53D-06
 Range of M.O.s used for correlation:     4   124
 NBasis=   124 NAE=    13 NBE=    13 NFC=     3 NFV=     0
 NROrb=    121 NOA=    10 NOB=    10 NVA=   111 NVB=   111

 **** Warning!!: The largest alpha MO coefficient is  0.24913757D+02

 Leave Link  801 at Mon Mar 21 20:15:23 2022, MaxMem=  8589934592 cpu:               0.6 elap:               0.1
 (Enter /home/sabyasachi/g16/l914.exe)
 RHF ground state
 Keep R1, R2, and R3 ints in memory in symmetry-blocked form, NReq=1530375828.
 FoFCou: FMM=F IPFlag=           0 FMFlag=           0 FMFlg1=           0
         NFxFlg=           0 DoJE=F BraDBF=F KetDBF=F FulRan=T
         wScrn=  0.000000 ICntrl=       600 IOpCl=  0 I1Cent=           0 NGrid=           0
         NMat0=    1 NMatS0=   7750 NMatT0=    0 NMatD0=    1 NMtDS0=    0 NMtDT0=    0
 Petite list used in FoFCou.
 MDV=  8589934592 DFT=T DoStab=F Mixed=T DoRPA=T DoScal=F NonHer=T
 Making orbital integer symmetry assigments:
 Orbital symmetries:
       Occupied  (A1) (B2) (A1) (A1) (B2) (A1) (B1) (A1) (B2) (A2)
                 (B2) (A1) (B1)
       Virtual   (A1) (B2) (A1) (B1) (A1) (B1) (A1) (B2) (A2) (A2)
                 (A1) (B2) (B1) (B2) (A1) (B1) (B2) (A1) (A2) (A1)
                 (B2) (A1) (B1) (A1) (A2) (B1) (A1) (B1) (B2) (A1)
                 (A2) (B2) (B1) (A1) (B2) (B2) (A2) (A1) (B1) (A1)
                 (A2) (B1) (B2) (A1) (B2) (A1) (B1) (B2) (A1) (B2)
                 (A2) (A2) (A1) (B2) (A1) (B1) (B2) (A1) (A1) (B1)
                 (B2) (A2) (A1) (B2) (A1) (B1) (A2) (B2) (B1) (A1)
                 (B2) (A1) (A1) (A2) (B1) (B2) (A2) (B1) (A1) (A2)
                 (B1) (B2) (A2) (A1) (B2) (B1) (A1) (B2) (B1) (A2)
                 (A1) (B2) (B1) (A1) (B2) (A2) (A1) (A1) (B2) (B1)
                 (A1) (B2) (A2) (A1) (B2) (B1) (A1) (B2) (A2) (A1)
                 (B1)
  1110 initial guesses have been made.
 Convergence on wavefunction:    0.001000000000000
 Davidson Disk Diagonalization:  ConvIn= 1.00D-03 SkipCon=T Conv= 1.00D-03.
 Max sub-space:  6660 roots to seek:  2220 dimension of matrix:         2220
 *** WARNING: Number of orthogonal guesses is         1110
 Iteration     1 Dimension  1110 NMult     0 NNew   1110
 CISAX will form  1110 AO SS matrices at one time.
 NMat=  1110 NSing=  1110 JSym2X=-1.
 New state     10 was old state     11
 New state     11 was old state     10
 New state     12 was old state     15
 New state     13 was old state     12
 New state     14 was old state     13
 New state     15 was old state     18
 New state     16 was old state     19
 New state     18 was old state     22
 New state     19 was old state     14
 New state     21 was old state     23
 New state     22 was old state     25
 New state     23 was old state     28
 New state     24 was old state     29
 New state     25 was old state     27
 New state     26 was old state     16
 New state     27 was old state     33
 New state     28 was old state     32
 New state     29 was old state     36
 New state     30 was old state     38
 New state     31 was old state     37
 New state     32 was old state     31
 New state     33 was old state     44
 New state     34 was old state     40
 New state     35 was old state     45
 New state     36 was old state     35
 New state     37 was old state     48
 New state     38 was old state     42
 New state     39 was old state     53
 New state     40 was old state     50
 New state     41 was old state     26
 New state     42 was old state     47
 New state     43 was old state     30
 New state     44 was old state     49
 New state     45 was old state     55
 New state     46 was old state     62
 New state     47 was old state     58
 New state     48 was old state     39
 New state     49 was old state     43
 New state     50 was old state     34
 New state     51 was old state     65
 New state     52 was old state     56
 New state     53 was old state     67
 New state     54 was old state     41
 New state     55 was old state     46
 New state     56 was old state     60
 New state     57 was old state     76
 New state     58 was old state     52
 New state     59 was old state     68
 New state     60 was old state     61
 New state     61 was old state     74
 New state     62 was old state     71
 New state     63 was old state    102
 New state     64 was old state     99
 New state     65 was old state     66
 New state     66 was old state     63
 New state     67 was old state     57
 New state     68 was old state     54
 New state     69 was old state     75
 New state     70 was old state     69
 New state     71 was old state     64
 New state     72 was old state     73
 New state     73 was old state     51
 New state     74 was old state     80
 New state     75 was old state     59
 New state     76 was old state     78
 New state     77 was old state     72
 New state     78 was old state     77
 New state     79 was old state     91
 New state     80 was old state     81
 New state     81 was old state     70
 New state     82 was old state     83
 New state     83 was old state     84
 New state     84 was old state     79
 New state     85 was old state     86
 New state     86 was old state     88
 New state     88 was old state     94
 New state     90 was old state    101
 New state     91 was old state     98
 New state     93 was old state    107
 New state     94 was old state     85
 New state     95 was old state    100
 New state     96 was old state     82
 New state     97 was old state     90
 New state     98 was old state     96
 New state     99 was old state     95
 New state    100 was old state    105
 New state    101 was old state    106
 New state    102 was old state     97
 New state    103 was old state    122
 New state    104 was old state    108
 New state    105 was old state     93
 New state    106 was old state    104
 New state    107 was old state    115
 New state    108 was old state    114
 New state    109 was old state    121
 New state    110 was old state    123
 New state    111 was old state    109
 New state    112 was old state    118
 New state    113 was old state    120
 New state    114 was old state    117
 New state    115 was old state    103
 New state    116 was old state    124
 New state    117 was old state    119
 New state    118 was old state    110
 New state    119 was old state    129
 New state    120 was old state    125
 New state    121 was old state    111
 New state    122 was old state    112
 New state    123 was old state    126
 New state    124 was old state    134
 New state    125 was old state    130
 New state    126 was old state    133
 New state    127 was old state    136
 New state    128 was old state    131
 New state    129 was old state    128
 New state    130 was old state    152
 New state    131 was old state    137
 New state    132 was old state    116
 New state    133 was old state    132
 New state    134 was old state    138
 New state    135 was old state    113
 New state    136 was old state    142
 New state    137 was old state    135
 New state    138 was old state    144
 New state    139 was old state    140
 New state    140 was old state    139
 New state    141 was old state    127
 New state    142 was old state    148
 New state    143 was old state    146
 New state    144 was old state    145
 New state    145 was old state    157
 New state    146 was old state    141
 New state    147 was old state    143
 New state    148 was old state    167
 New state    149 was old state    147
 New state    150 was old state    160
 New state    151 was old state    162
 New state    152 was old state    149
 New state    153 was old state    154
 New state    154 was old state    165
 New state    155 was old state    159
 New state    156 was old state    155
 New state    157 was old state    161
 New state    158 was old state    151
 New state    159 was old state    166
 New state    160 was old state    150
 New state    161 was old state    187
 New state    162 was old state    153
 New state    164 was old state    173
 New state    165 was old state    156
 New state    166 was old state    175
 New state    167 was old state    186
 New state    168 was old state    171
 New state    169 was old state    182
 New state    170 was old state    169
 New state    171 was old state    178
 New state    172 was old state    168
 New state    173 was old state    185
 New state    174 was old state    164
 New state    175 was old state    158
 New state    176 was old state    174
 New state    177 was old state    184
 New state    178 was old state    180
 New state    179 was old state    191
 New state    180 was old state    172
 New state    181 was old state    177
 New state    182 was old state    195
 New state    184 was old state    181
 New state    185 was old state    206
 New state    186 was old state    170
 New state    187 was old state    189
 New state    188 was old state    179
 New state    189 was old state    176
 New state    190 was old state    194
 New state    191 was old state    202
 New state    192 was old state    200
 New state    193 was old state    209
 New state    194 was old state    188
 New state    195 was old state    205
 New state    196 was old state    198
 New state    197 was old state    196
 New state    198 was old state    219
 New state    199 was old state    210
 New state    200 was old state    197
 New state    201 was old state    207
 New state    202 was old state    201
 New state    203 was old state    192
 New state    204 was old state    213
 New state    205 was old state    254
 New state    206 was old state    204
 New state    207 was old state    216
 New state    208 was old state    215
 New state    209 was old state    190
 New state    210 was old state    203
 New state    211 was old state    220
 New state    212 was old state    208
 New state    213 was old state    212
 New state    214 was old state    222
 New state    215 was old state    225
 New state    216 was old state    224
 New state    218 was old state    227
 New state    219 was old state    229
 New state    220 was old state    214
 New state    222 was old state    218
 New state    223 was old state    211
 New state    224 was old state    199
 New state    225 was old state    230
 New state    226 was old state    255
 New state    227 was old state    233
 New state    228 was old state    240
 New state    229 was old state    238
 New state    230 was old state    232
 New state    231 was old state    234
 New state    232 was old state    242
 New state    233 was old state    231
 New state    234 was old state    235
 New state    235 was old state    223
 New state    236 was old state    226
 New state    237 was old state    246
 New state    238 was old state    239
 New state    239 was old state    256
 New state    240 was old state    237
 New state    241 was old state    251
 New state    242 was old state    252
 New state    243 was old state    260
 New state    244 was old state    259
 New state    245 was old state    247
 New state    246 was old state    258
 New state    247 was old state    245
 New state    248 was old state    250
 New state    250 was old state    253
 New state    251 was old state    271
 New state    252 was old state    228
 New state    253 was old state    281
 New state    254 was old state    248
 New state    255 was old state    244
 New state    256 was old state    273
 New state    257 was old state    262
 New state    258 was old state    266
 New state    259 was old state    236
 New state    260 was old state    276
 New state    261 was old state    279
 New state    262 was old state    241
 New state    263 was old state    269
 New state    264 was old state    283
 New state    265 was old state    261
 New state    266 was old state    295
 New state    267 was old state    263
 New state    268 was old state    275
 New state    269 was old state    257
 New state    270 was old state    277
 New state    271 was old state    284
 New state    272 was old state    265
 New state    273 was old state    286
 New state    275 was old state    272
 New state    276 was old state    270
 New state    277 was old state    264
 New state    278 was old state    301
 New state    279 was old state    278
 New state    280 was old state    268
 New state    281 was old state    288
 New state    283 was old state    289
 New state    284 was old state    292
 New state    285 was old state    267
 New state    286 was old state    340
 New state    287 was old state    304
 New state    288 was old state    299
 New state    289 was old state    280
 New state    290 was old state    298
 New state    291 was old state    290
 New state    292 was old state    300
 New state    293 was old state    306
 New state    294 was old state    324
 New state    295 was old state    294
 New state    296 was old state    285
 New state    297 was old state    291
 New state    298 was old state    310
 New state    299 was old state    319
 New state    300 was old state    316
 New state    301 was old state    303
 New state    302 was old state    297
 New state    303 was old state    313
 New state    304 was old state    293
 New state    305 was old state    302
 New state    306 was old state    332
 New state    307 was old state    315
 New state    308 was old state    318
 New state    309 was old state    287
 New state    310 was old state    311
 New state    311 was old state    312
 New state    312 was old state    314
 New state    313 was old state    328
 New state    314 was old state    320
 New state    315 was old state    307
 New state    316 was old state    327
 New state    317 was old state    309
 New state    318 was old state    336
 New state    319 was old state    329
 New state    320 was old state    325
 New state    321 was old state    322
 New state    322 was old state    326
 New state    323 was old state    317
 New state    324 was old state    296
 New state    325 was old state    333
 New state    326 was old state    308
 New state    327 was old state    331
 New state    328 was old state    334
 New state    329 was old state    373
 New state    331 was old state    323
 New state    332 was old state    337
 New state    333 was old state    357
 New state    334 was old state    349
 New state    335 was old state    321
 New state    336 was old state    351
 New state    337 was old state    344
 New state    339 was old state    350
 New state    340 was old state    341
 New state    341 was old state    339
 New state    342 was old state    346
 New state    344 was old state    335
 New state    345 was old state    352
 New state    346 was old state    354
 New state    347 was old state    345
 New state    349 was old state    361
 New state    350 was old state    355
 New state    351 was old state    347
 New state    352 was old state    358
 New state    353 was old state    356
 New state    354 was old state    363
 New state    355 was old state    353
 New state    356 was old state    342
 New state    357 was old state    378
 New state    358 was old state    389
 New state    359 was old state    385
 New state    360 was old state    367
 New state    361 was old state    368
 New state    362 was old state    375
 New state    363 was old state    362
 New state    364 was old state    366
 New state    365 was old state    360
 New state    366 was old state    384
 New state    367 was old state    359
 New state    368 was old state    365
 New state    369 was old state    376
 New state    370 was old state    364
 New state    371 was old state    380
 New state    372 was old state    374
 New state    373 was old state    379
 New state    374 was old state    371
 New state    375 was old state    381
 New state    376 was old state    388
 New state    377 was old state    393
 New state    378 was old state    370
 New state    379 was old state    383
 New state    380 was old state    387
 New state    381 was old state    404
 New state    382 was old state    414
 New state    383 was old state    382
 New state    384 was old state    397
 New state    385 was old state    372
 New state    386 was old state    398
 New state    387 was old state    377
 New state    388 was old state    392
 New state    389 was old state    369
 New state    390 was old state    386
 New state    391 was old state    406
 New state    392 was old state    399
 New state    393 was old state    394
 New state    394 was old state    407
 New state    395 was old state    390
 New state    396 was old state    413
 New state    397 was old state    396
 New state    398 was old state    391
 New state    399 was old state    403
 New state    400 was old state    401
 New state    401 was old state    395
 New state    403 was old state    400
 New state    404 was old state    410
 New state    405 was old state    424
 New state    406 was old state    415
 New state    407 was old state    405
 New state    408 was old state    411
 New state    409 was old state    427
 New state    410 was old state    422
 New state    411 was old state    417
 New state    412 was old state    409
 New state    413 was old state    419
 New state    414 was old state    418
 New state    415 was old state    429
 New state    416 was old state    426
 New state    417 was old state    416
 New state    418 was old state    420
 New state    419 was old state    412
 New state    420 was old state    423
 No map to state    421
 New state    422 was old state    433
 New state    423 was old state    428
 New state    424 was old state    408
 New state    425 was old state    438
 New state    426 was old state    425
 New state    427 was old state    430
 New state    428 was old state    421
 New state    429 was old state    446
 New state    430 was old state    436
 New state    431 was old state    432
 New state    432 was old state    434
 New state    433 was old state    431
 New state    434 was old state    441
 New state    435 was old state    439
 New state    436 was old state    442
 New state    437 was old state    443
 New state    438 was old state    440
 New state    439 was old state    444
 New state    440 was old state    437
 New state    441 was old state    445
 New state    442 was old state    435
 New state    443 was old state    448
 No map to state    444
 New state    445 was old state    451
 New state    446 was old state    447
 New state    447 was old state    449
 New state    448 was old state    450
 New state    449 was old state    452
 New state    450 was old state    456
 New state    451 was old state    454
 New state    452 was old state    458
 New state    453 was old state    462
 New state    454 was old state    460
 New state    455 was old state    453
 New state    456 was old state    459
 New state    457 was old state    455
 New state    458 was old state    461
 New state    459 was old state    463
 New state    460 was old state    479
 New state    461 was old state    457
 New state    462 was old state    464
 New state    463 was old state    465
 New state    464 was old state    468
 New state    465 was old state    467
 New state    466 was old state    486
 New state    467 was old state    480
 New state    468 was old state    466
 New state    470 was old state    485
 New state    471 was old state    498
 New state    472 was old state    470
 New state    473 was old state    471
 New state    474 was old state    476
 New state    475 was old state    491
 New state    476 was old state    481
 New state    478 was old state    475
 New state    479 was old state    474
 New state    480 was old state    478
 New state    481 was old state    483
 New state    482 was old state    487
 New state    483 was old state    472
 New state    484 was old state    499
 New state    485 was old state    473
 New state    486 was old state    528
 New state    487 was old state    513
 New state    488 was old state    489
 New state    489 was old state    490
 New state    490 was old state    492
 New state    491 was old state    484
 New state    492 was old state    488
 New state    493 was old state    482
 New state    494 was old state    502
 New state    495 was old state    493
 New state    496 was old state    503
 New state    498 was old state    506
 New state    499 was old state    500
 New state    500 was old state    512
 New state    501 was old state    603
 New state    502 was old state    508
 New state    503 was old state    494
 New state    504 was old state    495
 New state    505 was old state    509
 New state    506 was old state    510
 New state    507 was old state    496
 New state    508 was old state    516
 New state    509 was old state    521
 New state    510 was old state    523
 New state    511 was old state    515
 New state    512 was old state    501
 New state    513 was old state    518
 New state    514 was old state    505
 New state    515 was old state    507
 New state    516 was old state    554
 New state    517 was old state    526
 New state    518 was old state    519
 New state    519 was old state    514
 New state    520 was old state    511
 New state    521 was old state    534
 New state    522 was old state    527
 New state    523 was old state    522
 New state    524 was old state    533
 New state    525 was old state    539
 New state    526 was old state    537
 New state    527 was old state    524
 New state    528 was old state    544
 New state    529 was old state    541
 New state    530 was old state    531
 New state    531 was old state    558
 New state    532 was old state    543
 New state    533 was old state    547
 New state    534 was old state    532
 New state    535 was old state    517
 New state    536 was old state    540
 New state    537 was old state    525
 New state    538 was old state    553
 New state    539 was old state    520
 New state    540 was old state    556
 New state    541 was old state    559
 New state    542 was old state    550
 New state    543 was old state    535
 New state    544 was old state    536
 New state    545 was old state    562
 New state    546 was old state    530
 New state    547 was old state    529
 New state    548 was old state    557
 New state    549 was old state    548
 New state    550 was old state    538
 New state    551 was old state    564
 New state    552 was old state    570
 New state    553 was old state    568
 New state    554 was old state    552
 New state    555 was old state    549
 New state    556 was old state    542
 New state    557 was old state    561
 New state    558 was old state    546
 New state    559 was old state    551
 New state    560 was old state    572
 New state    561 was old state    571
 New state    562 was old state    569
 New state    563 was old state    545
 New state    564 was old state    582
 New state    565 was old state    580
 New state    566 was old state    563
 New state    568 was old state    566
 New state    569 was old state    581
 New state    570 was old state    555
 New state    571 was old state    560
 New state    572 was old state    565
 New state    573 was old state    588
 New state    574 was old state    583
 New state    575 was old state    576
 New state    576 was old state    574
 New state    577 was old state    589
 New state    579 was old state    585
 New state    580 was old state    573
 New state    581 was old state    577
 New state    582 was old state    575
 New state    583 was old state    592
 New state    584 was old state    587
 New state    585 was old state    579
 New state    586 was old state    584
 New state    587 was old state    586
 New state    588 was old state    602
 New state    589 was old state    605
 New state    590 was old state    591
 New state    591 was old state    590
 New state    592 was old state    593
 New state    593 was old state    596
 New state    594 was old state    595
 New state    595 was old state    599
 New state    596 was old state    597
 New state    597 was old state    600
 New state    598 was old state    607
 New state    599 was old state    624
 New state    600 was old state    598
 New state    601 was old state    604
 New state    602 was old state    594
 New state    603 was old state    613
 New state    604 was old state    614
 New state    605 was old state    609
 New state    607 was old state    615
 New state    608 was old state    611
 New state    609 was old state    621
 New state    610 was old state    601
 New state    611 was old state    612
 New state    612 was old state    651
 New state    613 was old state    618
 New state    614 was old state    608
 New state    615 was old state    616
 New state    616 was old state    610
 New state    617 was old state    625
 New state    618 was old state    619
 New state    619 was old state    617
 New state    620 was old state    623
 New state    621 was old state    640
 New state    622 was old state    620
 New state    623 was old state    622
 New state    624 was old state    642
 New state    625 was old state    627
 New state    626 was old state    628
 New state    627 was old state    630
 New state    628 was old state    626
 New state    629 was old state    633
 New state    630 was old state    631
 New state    631 was old state    632
 New state    632 was old state    647
 New state    633 was old state    636
 New state    634 was old state    629
 New state    635 was old state    638
 New state    636 was old state    637
 New state    637 was old state    648
 New state    638 was old state    641
 New state    639 was old state    634
 New state    640 was old state    639
 New state    641 was old state    646
 New state    642 was old state    644
 New state    643 was old state    655
 New state    644 was old state    635
 New state    645 was old state    643
 New state    646 was old state    650
 New state    647 was old state    666
 New state    648 was old state    649
 New state    649 was old state    652
 New state    650 was old state    653
 New state    651 was old state    654
 New state    652 was old state    656
 New state    653 was old state    661
 New state    654 was old state    645
 New state    655 was old state    668
 New state    656 was old state    657
 New state    657 was old state    663
 New state    659 was old state    669
 New state    661 was old state    662
 New state    662 was old state    659
 New state    663 was old state    670
 New state    665 was old state    679
 New state    666 was old state    667
 New state    667 was old state    673
 New state    668 was old state    692
 New state    669 was old state    665
 New state    670 was old state    671
 New state    671 was old state    672
 New state    672 was old state    676
 New state    673 was old state    675
 New state    675 was old state    682
 New state    676 was old state    680
 New state    677 was old state    683
 New state    679 was old state    681
 New state    680 was old state    688
 New state    681 was old state    690
 New state    682 was old state    677
 New state    683 was old state    685
 New state    684 was old state    687
 New state    685 was old state    686
 New state    686 was old state    684
 New state    687 was old state    689
 New state    688 was old state    698
 New state    689 was old state    696
 New state    690 was old state    691
 New state    691 was old state    695
 No map to state    692
 New state    695 was old state    697
 New state    696 was old state    707
 New state    697 was old state    699
 No map to state    698
 New state    699 was old state    703
 New state    701 was old state    702
 New state    702 was old state    701
 No map to state    703
 New state    704 was old state    705
 New state    705 was old state    704
 New state    706 was old state    715
 New state    707 was old state    706
 New state    709 was old state    713
 New state    710 was old state    711
 New state    711 was old state    710
 New state    712 was old state    709
 New state    713 was old state    714
 New state    714 was old state    718
 New state    715 was old state    719
 New state    717 was old state    712
 New state    718 was old state    722
 New state    719 was old state    721
 New state    720 was old state    717
 New state    721 was old state    720
 New state    722 was old state    728
 New state    723 was old state    729
 New state    724 was old state    740
 New state    726 was old state    730
 New state    727 was old state    734
 New state    728 was old state    739
 New state    729 was old state    732
 New state    730 was old state    731
 New state    731 was old state    724
 New state    732 was old state    726
 New state    734 was old state    723
 New state    735 was old state    727
 New state    736 was old state    744
 New state    737 was old state    735
 New state    738 was old state    736
 New state    739 was old state    745
 New state    740 was old state    753
 New state    741 was old state    757
 New state    742 was old state    748
 New state    743 was old state    750
 New state    744 was old state    742
 New state    745 was old state    737
 New state    746 was old state    752
 New state    747 was old state    741
 New state    748 was old state    743
 New state    749 was old state    755
 New state    750 was old state    754
 New state    751 was old state    747
 New state    752 was old state    756
 New state    753 was old state    738
 New state    754 was old state    758
 New state    755 was old state    746
 New state    756 was old state    763
 New state    757 was old state    749
 New state    758 was old state    762
 New state    759 was old state    751
 New state    760 was old state    759
 New state    762 was old state    768
 New state    763 was old state    760
 New state    764 was old state    770
 New state    765 was old state    769
 New state    766 was old state    772
 New state    767 was old state    764
 New state    768 was old state    766
 New state    769 was old state    767
 New state    770 was old state    765
 New state    771 was old state    773
 New state    772 was old state    777
 New state    773 was old state    774
 New state    774 was old state    781
 New state    776 was old state    778
 New state    777 was old state    783
 New state    778 was old state    780
 New state    780 was old state    784
 New state    781 was old state    771
 New state    782 was old state    776
 New state    783 was old state    785
 New state    784 was old state    796
 New state    785 was old state    786
 New state    786 was old state    787
 New state    787 was old state    790
 New state    788 was old state    794
 New state    789 was old state    782
 New state    790 was old state    793
 New state    791 was old state    788
 New state    792 was old state    791
 New state    793 was old state    795
 New state    794 was old state    833
 New state    795 was old state    800
 New state    796 was old state    789
 New state    797 was old state    801
 New state    798 was old state    809
 New state    800 was old state    797
 New state    801 was old state    792
 New state    802 was old state    808
 New state    803 was old state    820
 New state    804 was old state    806
 New state    806 was old state    807
 New state    807 was old state    798
 New state    808 was old state    812
 New state    809 was old state    811
 New state    810 was old state    817
 New state    811 was old state    816
 New state    812 was old state    818
 New state    813 was old state    815
 New state    814 was old state    823
 New state    815 was old state    803
 New state    816 was old state    826
 New state    817 was old state    828
 New state    818 was old state    810
 New state    819 was old state    804
 New state    820 was old state    813
 New state    821 was old state    831
 New state    822 was old state    802
 New state    823 was old state    821
 New state    824 was old state    814
 New state    825 was old state    822
 New state    826 was old state    819
 New state    827 was old state    835
 New state    828 was old state    836
 New state    829 was old state    825
 New state    830 was old state    827
 New state    831 was old state    843
 New state    832 was old state    854
 New state    833 was old state    830
 New state    834 was old state    837
 New state    835 was old state    834
 New state    836 was old state    824
 New state    837 was old state    840
 New state    838 was old state    839
 New state    839 was old state    838
 New state    840 was old state    832
 New state    841 was old state    842
 New state    842 was old state    849
 New state    843 was old state    848
 New state    844 was old state    845
 New state    845 was old state    829
 New state    846 was old state    853
 New state    847 was old state    841
 New state    848 was old state    855
 New state    849 was old state    851
 New state    850 was old state    846
 New state    851 was old state    857
 New state    852 was old state    856
 New state    853 was old state    844
 New state    854 was old state    847
 New state    855 was old state    861
 New state    856 was old state    860
 New state    857 was old state    864
 New state    858 was old state    870
 New state    859 was old state    852
 New state    860 was old state    850
 New state    861 was old state    859
 New state    862 was old state    910
 New state    863 was old state    862
 New state    864 was old state    867
 New state    865 was old state    866
 New state    866 was old state    871
 New state    867 was old state    872
 New state    868 was old state    858
 New state    869 was old state    865
 New state    870 was old state    868
 New state    871 was old state    863
 New state    872 was old state    869
 New state    874 was old state    879
 New state    875 was old state    876
 New state    876 was old state    878
 New state    877 was old state    874
 New state    878 was old state    882
 New state    879 was old state    875
 New state    880 was old state    877
 New state    881 was old state    884
 New state    882 was old state    881
 New state    883 was old state    889
 New state    884 was old state    888
 New state    886 was old state    883
 New state    887 was old state    880
 New state    888 was old state    886
 New state    889 was old state    887
 New state    890 was old state    891
 New state    891 was old state    905
 New state    894 was old state    890
 New state    896 was old state    901
 New state    897 was old state    904
 New state    898 was old state    897
 New state    899 was old state    902
 New state    900 was old state    896
 New state    901 was old state    899
 New state    902 was old state    900
 New state    904 was old state    898
 New state    905 was old state    906
 New state    906 was old state    907
 New state    907 was old state    909
 New state    908 was old state    911
 New state    909 was old state    932
 New state    910 was old state    917
 New state    911 was old state    912
 New state    912 was old state    918
 New state    913 was old state    914
 New state    914 was old state    908
 New state    915 was old state    916
 New state    916 was old state    922
 New state    917 was old state    920
 New state    918 was old state    915
 New state    919 was old state    926
 New state    920 was old state    913
 New state    921 was old state    919
 New state    922 was old state    925
 New state    923 was old state    924
 New state    924 was old state    928
 New state    925 was old state    921
 New state    926 was old state    923
 New state    927 was old state    933
 New state    928 was old state    934
 New state    929 was old state    931
 New state    930 was old state    927
 New state    931 was old state    944
 New state    932 was old state    930
 New state    933 was old state    929
 New state    934 was old state    936
 New state    935 was old state    958
 New state    936 was old state    942
 New state    937 was old state    941
 New state    938 was old state    947
 New state    939 was old state    935
 New state    940 was old state    939
 New state    941 was old state    965
 New state    942 was old state    938
 New state    943 was old state    940
 New state    944 was old state    937
 New state    945 was old state    953
 New state    946 was old state    950
 New state    947 was old state    954
 New state    948 was old state    955
 New state    949 was old state    943
 New state    950 was old state    948
 New state    951 was old state    957
 New state    952 was old state    945
 New state    953 was old state    956
 New state    954 was old state    951
 New state    955 was old state    952
 New state    956 was old state    949
 New state    957 was old state    969
 New state    958 was old state    982
 New state    960 was old state    967
 New state    961 was old state    960
 New state    962 was old state    961
 New state    963 was old state    970
 New state    964 was old state    966
 New state    965 was old state    962
 New state    966 was old state    976
 New state    967 was old state   1003
 New state    968 was old state    963
 New state    969 was old state    968
 New state    970 was old state    971
 New state    971 was old state    964
 New state    972 was old state    973
 New state    973 was old state    980
 New state    974 was old state    972
 New state    975 was old state    981
 New state    976 was old state    975
 New state    977 was old state    978
 New state    978 was old state    974
 New state    979 was old state    989
 New state    980 was old state    979
 New state    981 was old state    977
 New state    982 was old state   1001
 New state    983 was old state    984
 New state    984 was old state    983
 New state    985 was old state    994
 New state    986 was old state    985
 New state    988 was old state    992
 New state    989 was old state    993
 New state    990 was old state    996
 New state    991 was old state    995
 New state    992 was old state    991
 New state    993 was old state    988
 New state    994 was old state    990
 New state    995 was old state    986
 New state    996 was old state   1007
 New state    997 was old state    998
 New state    998 was old state    997
 New state    999 was old state   1006
 New state   1000 was old state    999
 New state   1001 was old state   1004
 New state   1003 was old state   1008
 New state   1004 was old state   1000
 New state   1005 was old state   1009
 New state   1006 was old state   1010
 New state   1007 was old state   1012
 New state   1008 was old state   1005
 New state   1009 was old state   1017
 New state   1010 was old state   1021
 New state   1011 was old state   1018
 New state   1012 was old state   1011
 New state   1014 was old state   1015
 New state   1015 was old state   1014
 New state   1016 was old state   1028
 New state   1017 was old state   1016
 New state   1018 was old state   1019
 New state   1019 was old state   1023
 New state   1020 was old state   1024
 New state   1021 was old state   1022
 New state   1022 was old state   1035
 New state   1023 was old state   1025
 New state   1024 was old state   1020
 New state   1025 was old state   1026
 New state   1026 was old state   1037
 New state   1028 was old state   1031
 New state   1030 was old state   1049
 New state   1031 was old state   1034
 New state   1034 was old state   1036
 New state   1035 was old state   1030
 New state   1036 was old state   1044
 New state   1037 was old state   1043
 New state   1038 was old state   1040
 New state   1039 was old state   1041
 New state   1040 was old state   1060
 New state   1041 was old state   1045
 New state   1042 was old state   1046
 New state   1043 was old state   1042
 New state   1044 was old state   1050
 New state   1045 was old state   1038
 New state   1046 was old state   1048
 New state   1047 was old state   1055
 New state   1048 was old state   1039
 New state   1049 was old state   1051
 New state   1050 was old state   1052
 New state   1051 was old state   1068
 New state   1052 was old state   1057
 New state   1053 was old state   1054
 New state   1054 was old state   1062
 New state   1055 was old state   1058
 New state   1056 was old state   1066
 New state   1057 was old state   1047
 New state   1058 was old state   1056
 New state   1059 was old state   1065
 No map to state   1060
 New state   1061 was old state   1053
 New state   1062 was old state   1073
 New state   1063 was old state   1064
 New state   1064 was old state   1074
 New state   1065 was old state   1059
 New state   1066 was old state   1071
 New state   1067 was old state   1069
 New state   1068 was old state   1061
 New state   1069 was old state   1070
 New state   1070 was old state   1081
 New state   1071 was old state   1063
 New state   1073 was old state   1089
 New state   1074 was old state   1077
 New state   1075 was old state   1067
 New state   1076 was old state   1080
 New state   1077 was old state   1075
 New state   1079 was old state   1086
 New state   1080 was old state   1082
 New state   1081 was old state   1085
 New state   1082 was old state   1088
 New state   1084 was old state   1076
 New state   1085 was old state   1079
 New state   1086 was old state   1084
 No map to state   1088
 New state   1089 was old state   1091
 No map to state   1091
 New state   1093 was old state   1095
 New state   1094 was old state   1093
 New state   1095 was old state   1094
 New state   1096 was old state   1098
 New state   1097 was old state   1102
 New state   1098 was old state   1099
 New state   1099 was old state   1096
 New state   1100 was old state   1097
 New state   1102 was old state   1100
 New state   1103 was old state   1105
 New state   1105 was old state   1103
 Excitation Energies [eV] at current iteration:
 Root      1 :     9.344761188359433
 Root      2 :     9.791092702157494
 Root      3 :     9.819763432053927
 Root      4 :    10.251829521437910
 Root      5 :    10.436990393990130
 Root      6 :    10.591676834441170
 Root      7 :    10.726622039405240
 Root      8 :    10.914629466069650
 Root      9 :    11.077733649607380
 Root     10 :    11.114411409036900
 Root     11 :    11.279868215415910
 Root     12 :    11.312439740767090
 Root     13 :    11.389336335865280
 Root     14 :    11.497114908844320
 Root     15 :    11.701201702138760
 Root     16 :    11.727891760698930
 Root     17 :    11.978124642432630
 Root     18 :    11.999713718034750
 Root     19 :    12.005712082338450
 Root     20 :    12.161121565689750
 Root     21 :    12.184558153654310
 Root     22 :    12.245277264502660
 Root     23 :    12.413452013715430
 Root     24 :    12.431898222077070
 Root     25 :    12.460873524561150
 Root     26 :    12.554672380263810
 Root     27 :    12.625007872683660
 Root     28 :    12.725943147496370
 Root     29 :    12.728005238196950
 Root     30 :    12.749234421672960
 Root     31 :    12.837317887240970
 Root     32 :    12.855404561625860
 Root     33 :    12.870788830465800
 Root     34 :    12.916024548327020
 Root     35 :    13.050811335442170
 Root     36 :    13.122504960076390
 Root     37 :    13.129872576316410
 Root     38 :    13.162086543987920
 Root     39 :    13.292829125150920
 Root     40 :    13.443086777587110
 Root     41 :    13.488310450386860
 Root     42 :    13.616818993433180
 Root     43 :    13.689747021777530
 Root     44 :    13.776539053407670
 Root     45 :    13.825275830421260
 Root     46 :    13.833126888188700
 Root     47 :    13.872190855745780
 Root     48 :    13.876484557201280
 Root     49 :    13.999987645440100
 Root     50 :    14.060340476184150
 Root     51 :    14.145275557009460
 Root     52 :    14.241336948551940
 Root     53 :    14.290390107113960
 Root     54 :    14.333394319609130
 Root     55 :    14.364867296384460
 Root     56 :    14.370559233712890
 Root     57 :    14.380292810223560
 Root     58 :    14.445518670090990
 Root     59 :    14.452035016372640
 Root     60 :    14.673308501363740
 Root     61 :    14.725062828216360
 Root     62 :    14.756533800794020
 Root     63 :    14.765635051484760
 Root     64 :    14.816857240989030
 Root     65 :    14.879791697591120
 Root     66 :    14.968876644822030
 Root     67 :    15.013664566879260
 Root     68 :    15.019814174130620
 Root     69 :    15.056394980890680
 Root     70 :    15.118102299865530
 Root     71 :    15.168417316060910
 Root     72 :    15.170467308354290
 Root     73 :    15.261668453072420
 Root     74 :    15.284933415287160
 Root     75 :    15.391804920068560
 Root     76 :    15.530909491605060
 Root     77 :    15.532185980924260
 Root     78 :    15.631347198209180
 Root     79 :    15.637812718126010
 Root     80 :    15.761167581516960
 Root     81 :    15.793077510967930
 Root     82 :    15.848791368086160
 Root     83 :    15.979328949482510
 Root     84 :    15.983063023457750
 Root     85 :    16.058211887904130
 Root     86 :    16.065955016055820
 Root     87 :    16.115713867196910
 Root     88 :    16.159643050011360
 Root     89 :    16.248584910674860
 Root     90 :    16.249784849879170
 Root     91 :    16.267775435786410
 Root     92 :    16.271808563274730
 Root     93 :    16.414613337784290
 Root     94 :    16.416499631681990
 Root     95 :    16.488800979927350
 Root     96 :    16.559284502718590
 Root     97 :    16.569538236222990
 Root     98 :    16.601171950103010
 Root     99 :    16.697194345271250
 Root    100 :    16.809413933306050
 Root    101 :    16.823852744836160
 Root    102 :    16.933117847169630
 Root    103 :    17.005005448675480
 Root    104 :    17.136850724867900
 Root    105 :    17.139966807502660
 Root    106 :    17.154559947193070
 Root    107 :    17.343705318021160
 Root    108 :    17.413675263558810
 Root    109 :    17.421591762033470
 Root    110 :    17.468133488413970
 Root    111 :    17.497188151237050
 Root    112 :    17.514380843600780
 Root    113 :    17.527078951985830
 Root    114 :    17.571571533295150
 Root    115 :    17.694655810369160
 Root    116 :    17.724414841114190
 Root    117 :    17.733301302310470
 Root    118 :    17.777869724367610
 Root    119 :    17.815270866777790
 Root    120 :    17.849659643729470
 Root    121 :    17.911589679782790
 Root    122 :    17.980691374226290
 Root    123 :    17.988955253566660
 Root    124 :    17.989514107869560
 Root    125 :    18.005531859140440
 Root    126 :    18.014448072211600
 Root    127 :    18.039435467766650
 Root    128 :    18.146916065092300
 Root    129 :    18.197392242765150
 Root    130 :    18.243264819777160
 Root    131 :    18.306173783610060
 Root    132 :    18.345640724354570
 Root    133 :    18.384641944778920
 Root    134 :    18.436640605788690
 Root    135 :    18.446882711848380
 Root    136 :    18.477104782562580
 Root    137 :    18.534095921015050
 Root    138 :    18.548570328195020
 Root    139 :    18.559245728754390
 Root    140 :    18.619921973735680
 Root    141 :    18.624665794209350
 Root    142 :    18.782931796779450
 Root    143 :    18.794833020695090
 Root    144 :    18.831307030607520
 Root    145 :    18.855222039050830
 Root    146 :    18.936450500319900
 Root    147 :    18.961644166675150
 Root    148 :    19.008463051705150
 Root    149 :    19.055534877790560
 Root    150 :    19.104556771330770
 Root    151 :    19.108355740118660
 Root    152 :    19.108652018847130
 Root    153 :    19.161387440449260
 Root    154 :    19.172179223648450
 Root    155 :    19.203023483557740
 Root    156 :    19.206674846758230
 Root    157 :    19.262181704390750
 Root    158 :    19.327709013947980
 Root    159 :    19.348807967075060
 Root    160 :    19.388298835905660
 Root    161 :    19.397276554352090
 Root    162 :    19.485758348136360
 Root    163 :    19.550784027929950
 Root    164 :    19.588422004115970
 Root    165 :    19.669907648976710
 Root    166 :    19.679786394020340
 Root    167 :    19.682419882803130
 Root    168 :    19.703284309677610
 Root    169 :    19.749826216291510
 Root    170 :    19.831278816519110
 Root    171 :    19.921162502408360
 Root    172 :    19.962976296440620
 Root    173 :    19.965309986351490
 Root    174 :    19.971157545920260
 Root    175 :    19.978748712935290
 Root    176 :    20.027220005669590
 Root    177 :    20.068461639611130
 Root    178 :    20.078730477796010
 Root    179 :    20.158211313758030
 Root    180 :    20.161091197209490
 Root    181 :    20.208155227153310
 Root    182 :    20.230658692863860
 Root    183 :    20.271130338531740
 Root    184 :    20.301746383553220
 Root    185 :    20.324455575400830
 Root    186 :    20.329635567262350
 Root    187 :    20.340695984307720
 Root    188 :    20.461112849186050
 Root    189 :    20.487354885455140
 Root    190 :    20.510357281255750
 Root    191 :    20.526131548142150
 Root    192 :    20.545760454541010
 Root    193 :    20.574907276305860
 Root    194 :    20.661441957875560
 Root    195 :    20.672903657176770
 Root    196 :    20.696504084409740
 Root    197 :    20.709620463537610
 Root    198 :    20.764911104678930
 Root    199 :    20.807021069879350
 Root    200 :    20.866951491637890
 Root    201 :    20.894357842430750
 Root    202 :    20.912010780444180
 Root    203 :    20.920275884365460
 Root    204 :    21.011283500144680
 Root    205 :    21.027279509233000
 Root    206 :    21.054328858181130
 Root    207 :    21.123756406709010
 Root    208 :    21.173336919627600
 Root    209 :    21.204314324551400
 Root    210 :    21.204753797269590
 Root    211 :    21.211808502852620
 Root    212 :    21.282003328943230
 Root    213 :    21.294695062165140
 Root    214 :    21.322707738576610
 Root    215 :    21.383462226632580
 Root    216 :    21.434167650735870
 Root    217 :    21.439406758109390
 Root    218 :    21.500830359625340
 Root    219 :    21.534088631737500
 Root    220 :    21.579179515329040
 Root    221 :    21.599511156148260
 Root    222 :    21.618930760990660
 Root    223 :    21.619446700875630
 Root    224 :    21.664506922484340
 Root    225 :    21.769531910180910
 Root    226 :    21.782430903206550
 Root    227 :    21.796655658207790
 Root    228 :    21.881381228193790
 Root    229 :    21.899244278194080
 Root    230 :    21.901334630110750
 Root    231 :    21.976227798310240
 Root    232 :    22.007876091019500
 Root    233 :    22.028653146014860
 Root    234 :    22.062580209953330
 Root    235 :    22.087633388463380
 Root    236 :    22.135371967497880
 Root    237 :    22.149464839010670
 Root    238 :    22.229301955776670
 Root    239 :    22.233113912812620
 Root    240 :    22.255648249931270
 Root    241 :    22.275168624539170
 Root    242 :    22.286972703122920
 Root    243 :    22.294396760025600
 Root    244 :    22.348754183455920
 Root    245 :    22.396142956401290
 Root    246 :    22.404204440804000
 Root    247 :    22.405333577691320
 Root    248 :    22.443993460975890
 Root    249 :    22.468814696555540
 Root    250 :    22.508006514156750
 Root    251 :    22.508757770554860
 Root    252 :    22.603420261587190
 Root    253 :    22.604218877034130
 Root    254 :    22.638856031211910
 Root    255 :    22.647965221868100
 Root    256 :    22.681189868629310
 Root    257 :    22.736944946300590
 Root    258 :    22.750034969396370
 Root    259 :    22.775252609120490
 Root    260 :    22.795569684573060
 Root    261 :    22.813769438310580
 Root    262 :    22.831988345466650
 Root    263 :    22.855768533919600
 Root    264 :    22.924166257016810
 Root    265 :    22.950713830710380
 Root    266 :    22.959118746672040
 Root    267 :    23.000159525386350
 Root    268 :    23.004024181418600
 Root    269 :    23.006711442350240
 Root    270 :    23.081452632220120
 Root    271 :    23.083022000494320
 Root    272 :    23.109668076543780
 Root    273 :    23.162783445876220
 Root    274 :    23.169527246377720
 Root    275 :    23.186910133345830
 Root    276 :    23.240400794275410
 Root    277 :    23.266673434275040
 Root    278 :    23.270143405470770
 Root    279 :    23.311688165741190
 Root    280 :    23.322693350943110
 Root    281 :    23.356326427256900
 Root    282 :    23.372870003309530
 Root    283 :    23.420320710802140
 Root    284 :    23.459185716890630
 Root    285 :    23.521866829787310
 Root    286 :    23.615638840731190
 Root    287 :    23.656371663047760
 Root    288 :    23.665300682004010
 Root    289 :    23.676607981092350
 Root    290 :    23.760309401349000
 Root    291 :    23.772626485363630
 Root    292 :    23.776896123835940
 Root    293 :    23.821625968698050
 Root    294 :    23.831664516959720
 Root    295 :    23.936144347670310
 Root    296 :    23.974917111533640
 Root    297 :    24.010956566632180
 Root    298 :    24.048229338250260
 Root    299 :    24.074149915485450
 Root    300 :    24.075618293193720
 Root    301 :    24.110465886107790
 Root    302 :    24.115656949084510
 Root    303 :    24.123432671550240
 Root    304 :    24.167681182646180
 Root    305 :    24.216796711142050
 Root    306 :    24.216824807394960
 Root    307 :    24.343982262995960
 Root    308 :    24.373442938432050
 Root    309 :    24.380442546827120
 Root    310 :    24.390439352118000
 Root    311 :    24.410728015082440
 Root    312 :    24.433002478944640
 Root    313 :    24.444419479022950
 Root    314 :    24.490738440675820
 Root    315 :    24.508212583735410
 Root    316 :    24.540804669504820
 Root    317 :    24.572185669734360
 Root    318 :    24.614405051040820
 Root    319 :    24.614822073991920
 Root    320 :    24.661109442472740
 Root    321 :    24.669402469247640
 Root    322 :    24.718421605864560
 Root    323 :    24.762136149732750
 Root    324 :    24.776540557823430
 Root    325 :    24.817108419263760
 Root    326 :    24.829701852689410
 Root    327 :    24.879130506920940
 Root    328 :    24.914589115059920
 Root    329 :    24.960757269542770
 Root    330 :    24.967629820546910
 Root    331 :    24.991472664013940
 Root    332 :    25.012240043806610
 Root    333 :    25.083370052039960
 Root    334 :    25.094767399203920
 Root    335 :    25.113357734435150
 Root    336 :    25.140488579146510
 Root    337 :    25.189721320500090
 Root    338 :    25.271514127490690
 Root    339 :    25.275898663416640
 Root    340 :    25.326786533372620
 Root    341 :    25.337581890469080
[...]
     15   0.000000D+00  0.000000D+00  0.109471D+00  0.000000D+00 -0.118583D+00
     16   0.000000D+00  0.000000D+00  0.000000D+00 -0.852847D+00  0.000000D+00
              1041          1042          1043          1044          1045 
      1  -0.115274D+03 -0.115273D+03 -0.115272D+03 -0.115267D+03 -0.115253D+03
      2   0.000000D+00  0.000000D+00  0.000000D+00 -0.219400D-01  0.000000D+00
      3  -0.721735D-01  0.000000D+00  0.000000D+00  0.000000D+00  0.000000D+00
      4   0.000000D+00  0.000000D+00 -0.134306D-01  0.000000D+00 -0.751206D-02
      5   0.000000D+00  0.000000D+00  0.000000D+00  0.628100D-01  0.000000D+00
      6   0.226953D+00  0.000000D+00  0.000000D+00  0.000000D+00  0.000000D+00
      7   0.000000D+00  0.000000D+00  0.378613D-01  0.000000D+00  0.256021D-01
      8  -0.778605D+00  0.000000D+00  0.000000D+00  0.000000D+00  0.000000D+00
      9   0.000000D+00  0.000000D+00  0.000000D+00 -0.942817D-01  0.000000D+00
     10   0.000000D+00  0.928413D+00  0.000000D+00  0.000000D+00  0.000000D+00
     11   0.000000D+00  0.000000D+00  0.941196D-02  0.000000D+00  0.108396D+00
     12   0.000000D+00  0.000000D+00  0.144650D+00  0.000000D+00  0.285885D+00
     13   0.000000D+00  0.000000D+00  0.705179D+00  0.000000D+00 -0.330291D+00
     14   0.000000D+00 -0.920450D+00  0.000000D+00  0.000000D+00  0.000000D+00
     15   0.000000D+00  0.000000D+00  0.000000D+00  0.432230D-01  0.000000D+00
     16  -0.164324D+00  0.000000D+00  0.000000D+00  0.000000D+00  0.000000D+00
              1046          1047          1048          1049          1050 
      1  -0.115246D+03 -0.115245D+03 -0.115244D+03 -0.115239D+03 -0.115235D+03
      2   0.000000D+00  0.669266D-01  0.000000D+00  0.000000D+00  0.000000D+00
      3   0.000000D+00  0.000000D+00 -0.114984D-01 -0.600367D-01  0.000000D+00
      4   0.000000D+00  0.000000D+00  0.000000D+00  0.000000D+00  0.108205D+00
      5   0.000000D+00 -0.188968D+00  0.000000D+00  0.000000D+00  0.000000D+00
      6   0.000000D+00  0.000000D+00 -0.111060D-02  0.173318D+00  0.000000D+00
      7   0.000000D+00  0.000000D+00  0.000000D+00  0.000000D+00 -0.306086D+00
      8   0.000000D+00  0.000000D+00 -0.518593D-01 -0.909200D-01  0.000000D+00
      9   0.000000D+00 -0.135689D+00  0.000000D+00  0.000000D+00  0.000000D+00
     10   0.555498D+00  0.000000D+00  0.000000D+00  0.000000D+00  0.000000D+00
     11   0.000000D+00  0.000000D+00  0.000000D+00  0.000000D+00 -0.178143D+00
     12   0.000000D+00  0.000000D+00  0.000000D+00  0.000000D+00 -0.167750D+01
     13   0.000000D+00  0.000000D+00  0.000000D+00  0.000000D+00  0.337018D+00
     14  -0.364403D+00  0.000000D+00  0.000000D+00  0.000000D+00  0.000000D+00
     15   0.000000D+00 -0.856894D-01  0.000000D+00  0.000000D+00  0.000000D+00
     16   0.000000D+00  0.000000D+00  0.871937D-01 -0.604915D-01  0.000000D+00
              1051          1052          1053          1054          1055 
      1  -0.115233D+03 -0.115228D+03 -0.115217D+03 -0.115217D+03 -0.115211D+03
      2   0.000000D+00  0.000000D+00  0.000000D+00 -0.117322D+00  0.000000D+00
      3   0.115977D+00  0.000000D+00  0.000000D+00  0.000000D+00  0.000000D+00
      4   0.000000D+00 -0.172506D-01  0.000000D+00  0.000000D+00  0.168366D+00
      5   0.000000D+00  0.000000D+00  0.000000D+00  0.341761D+00  0.000000D+00
      6  -0.347671D+00  0.000000D+00  0.000000D+00  0.000000D+00  0.000000D+00
      7   0.000000D+00  0.471569D-01  0.000000D+00  0.000000D+00 -0.488483D+00
      8   0.157923D+00  0.000000D+00  0.000000D+00  0.000000D+00  0.000000D+00
      9   0.000000D+00  0.000000D+00  0.000000D+00 -0.369748D-01  0.000000D+00
     10   0.000000D+00  0.000000D+00 -0.355407D+00  0.000000D+00  0.000000D+00
     11   0.000000D+00  0.278511D-01  0.000000D+00  0.000000D+00  0.528918D-01
     12   0.000000D+00  0.498731D+00  0.000000D+00  0.000000D+00 -0.877648D-01
     13   0.000000D+00  0.117273D+00  0.000000D+00  0.000000D+00 -0.170568D+00
     14   0.000000D+00  0.000000D+00  0.590952D+00  0.000000D+00  0.000000D+00
     15   0.000000D+00  0.000000D+00  0.000000D+00  0.400898D-01  0.000000D+00
     16   0.434988D+00  0.000000D+00  0.000000D+00  0.000000D+00  0.000000D+00
              1056          1057          1058          1059          1060 
      1  -0.115199D+03 -0.115194D+03 -0.115193D+03 -0.115186D+03 -0.115181D+03
      2   0.000000D+00 -0.350407D-01  0.000000D+00  0.000000D+00  0.000000D+00
      3   0.000000D+00  0.000000D+00  0.152656D+00  0.601581D-01  0.000000D+00
      4  -0.824141D-01  0.000000D+00  0.000000D+00  0.000000D+00  0.281230D-02
      5   0.000000D+00  0.899170D-01  0.000000D+00  0.000000D+00  0.000000D+00
      6   0.000000D+00  0.000000D+00 -0.445559D+00 -0.176773D+00  0.000000D+00
      7   0.225990D+00  0.000000D+00  0.000000D+00  0.000000D+00 -0.334799D-02
      8   0.000000D+00  0.000000D+00 -0.474517D+00  0.138263D+00  0.000000D+00
      9   0.000000D+00  0.138363D-01  0.000000D+00  0.000000D+00  0.000000D+00
     10   0.000000D+00  0.000000D+00  0.000000D+00  0.000000D+00  0.000000D+00
     11   0.288167D-01  0.000000D+00  0.000000D+00  0.000000D+00  0.419038D-01
     12  -0.108870D+01  0.000000D+00  0.000000D+00  0.000000D+00  0.164659D+00
     13  -0.105284D+00  0.000000D+00  0.000000D+00  0.000000D+00 -0.637024D-01
     14   0.000000D+00  0.000000D+00  0.000000D+00  0.000000D+00  0.000000D+00
     15   0.000000D+00  0.369448D-01  0.000000D+00  0.000000D+00  0.000000D+00
     16   0.000000D+00  0.000000D+00 -0.386035D+00  0.456728D+00  0.000000D+00
              1061          1062          1063          1064          1065 
      1  -0.115175D+03 -0.115168D+03 -0.115159D+03 -0.115157D+03 -0.115147D+03
      2   0.000000D+00 -0.154189D+00  0.000000D+00  0.000000D+00  0.000000D+00
      3   0.000000D+00  0.000000D+00 -0.257358D-01  0.000000D+00  0.308729D-02
      4   0.000000D+00  0.000000D+00  0.000000D+00  0.000000D+00  0.000000D+00
      5   0.000000D+00  0.444027D+00  0.000000D+00  0.000000D+00  0.000000D+00
      6   0.000000D+00  0.000000D+00  0.790108D-01  0.000000D+00  0.130247D-02
      7   0.000000D+00  0.000000D+00  0.000000D+00  0.000000D+00  0.000000D+00
      8   0.000000D+00  0.000000D+00  0.408106D+00  0.000000D+00  0.242312D+00
      9   0.000000D+00  0.521003D-01  0.000000D+00  0.000000D+00  0.000000D+00
     10   0.130121D-01  0.000000D+00  0.000000D+00 -0.366343D+00  0.000000D+00
     11   0.000000D+00  0.000000D+00  0.000000D+00  0.000000D+00  0.000000D+00
     12   0.000000D+00  0.000000D+00  0.000000D+00  0.000000D+00  0.000000D+00
     13   0.000000D+00  0.000000D+00  0.000000D+00  0.000000D+00  0.000000D+00
     14  -0.267575D-01  0.000000D+00  0.000000D+00  0.322314D+00  0.000000D+00
     15   0.000000D+00  0.377731D-01  0.000000D+00  0.000000D+00  0.000000D+00
     16   0.000000D+00  0.000000D+00  0.194999D+00  0.000000D+00  0.225143D+00
              1066          1067          1068          1069          1070 
      1  -0.115140D+03 -0.115132D+03 -0.115129D+03 -0.115129D+03 -0.115125D+03
      2   0.000000D+00  0.000000D+00  0.000000D+00  0.000000D+00  0.000000D+00
      3   0.000000D+00  0.000000D+00  0.000000D+00  0.000000D+00 -0.192450D-01
      4   0.000000D+00  0.124764D-01  0.000000D+00 -0.468961D-01  0.000000D+00
      5   0.000000D+00  0.000000D+00  0.000000D+00  0.000000D+00  0.000000D+00
      6   0.000000D+00  0.000000D+00  0.000000D+00  0.000000D+00  0.431628D-01
      7   0.000000D+00 -0.381074D-01  0.000000D+00  0.153348D+00  0.000000D+00
      8   0.000000D+00  0.000000D+00  0.000000D+00  0.000000D+00 -0.200330D+00
      9   0.000000D+00  0.000000D+00  0.000000D+00  0.000000D+00  0.000000D+00
     10  -0.819236D-01  0.000000D+00  0.286500D+00  0.000000D+00  0.000000D+00
     11   0.000000D+00 -0.119158D+00  0.000000D+00  0.246182D-01  0.000000D+00
     12   0.000000D+00  0.127898D-01  0.000000D+00  0.106004D+00  0.000000D+00
     13   0.000000D+00  0.265923D+00  0.000000D+00  0.389913D+00  0.000000D+00
     14  -0.281546D-01  0.000000D+00 -0.264203D+00  0.000000D+00  0.000000D+00
     15   0.000000D+00  0.000000D+00  0.000000D+00  0.000000D+00  0.000000D+00
     16   0.000000D+00  0.000000D+00  0.000000D+00  0.000000D+00 -0.352393D+00
              1071          1072          1073          1074          1075 
      1  -0.115124D+03 -0.115123D+03 -0.115115D+03 -0.115113D+03 -0.115103D+03
      2  -0.268664D-01  0.553722D-02 -0.103385D-01  0.000000D+00  0.000000D+00
      3   0.000000D+00  0.000000D+00  0.000000D+00  0.000000D+00  0.000000D+00
      4   0.000000D+00  0.000000D+00  0.000000D+00  0.000000D+00  0.161536D-01
      5   0.998457D-01 -0.397974D-01  0.300135D-01  0.000000D+00  0.000000D+00
      6   0.000000D+00  0.000000D+00  0.000000D+00  0.000000D+00  0.000000D+00
      7   0.000000D+00  0.000000D+00  0.000000D+00  0.000000D+00 -0.299334D-01
      8   0.000000D+00  0.000000D+00  0.000000D+00  0.000000D+00  0.000000D+00
      9   0.904878D-01  0.284058D-01  0.141830D+00  0.000000D+00  0.000000D+00
     10   0.000000D+00  0.000000D+00  0.000000D+00 -0.535294D+00  0.000000D+00
     11   0.000000D+00  0.000000D+00  0.000000D+00  0.000000D+00 -0.414143D-02
     12   0.000000D+00  0.000000D+00  0.000000D+00  0.000000D+00 -0.739586D+00
     13   0.000000D+00  0.000000D+00  0.000000D+00  0.000000D+00  0.563461D-01
     14   0.000000D+00  0.000000D+00  0.000000D+00  0.508876D+00  0.000000D+00
     15   0.733134D-01  0.754614D-02  0.205300D+00  0.000000D+00  0.000000D+00
     16   0.000000D+00  0.000000D+00  0.000000D+00  0.000000D+00  0.000000D+00
              1076          1077          1078          1079          1080 
      1  -0.115095D+03 -0.115084D+03 -0.115075D+03 -0.115062D+03 -0.115059D+03
      2   0.000000D+00  0.000000D+00 -0.251694D-01  0.000000D+00  0.000000D+00
      3   0.188819D-01  0.000000D+00  0.000000D+00  0.000000D+00  0.845669D-02
      4   0.000000D+00  0.273207D-01  0.000000D+00 -0.213205D-01  0.000000D+00
      5   0.000000D+00  0.000000D+00  0.672961D-01  0.000000D+00  0.000000D+00
      6  -0.360537D-01  0.000000D+00  0.000000D+00  0.000000D+00 -0.210639D-01
      7   0.000000D+00 -0.930572D-01  0.000000D+00  0.533065D-01  0.000000D+00
      8  -0.149532D+00  0.000000D+00  0.000000D+00  0.000000D+00 -0.217939D+00
      9   0.000000D+00  0.000000D+00  0.188703D+00  0.000000D+00  0.000000D+00
     10   0.000000D+00  0.000000D+00  0.000000D+00  0.000000D+00  0.000000D+00
     11   0.000000D+00  0.930845D-01  0.000000D+00  0.207840D+00  0.000000D+00
     12   0.000000D+00  0.108536D+00  0.000000D+00 -0.899771D+00  0.000000D+00
     13   0.000000D+00  0.307416D+00  0.000000D+00 -0.342042D+00  0.000000D+00
     14   0.000000D+00  0.000000D+00  0.000000D+00  0.000000D+00  0.000000D+00
     15   0.000000D+00  0.000000D+00  0.255864D+00  0.000000D+00  0.000000D+00
     16   0.102171D+00  0.000000D+00  0.000000D+00  0.000000D+00 -0.725605D+00
              1081          1082          1083          1084          1085 
      1  -0.115054D+03 -0.115054D+03 -0.115036D+03 -0.115036D+03 -0.115028D+03
      2   0.000000D+00  0.000000D+00 -0.850833D-01  0.000000D+00  0.000000D+00
      3   0.000000D+00 -0.143438D-01  0.000000D+00  0.128222D-01  0.000000D+00
      4   0.000000D+00  0.000000D+00  0.000000D+00  0.000000D+00  0.000000D+00
      5   0.000000D+00  0.000000D+00  0.251393D+00  0.000000D+00  0.000000D+00
      6   0.000000D+00  0.386102D-01  0.000000D+00 -0.510925D-01  0.000000D+00
      7   0.000000D+00  0.000000D+00  0.000000D+00  0.000000D+00  0.000000D+00
      8   0.000000D+00 -0.358394D+00  0.000000D+00 -0.524580D-01  0.000000D+00
      9   0.000000D+00  0.000000D+00 -0.795847D-01  0.000000D+00  0.000000D+00
     10   0.291361D+00  0.000000D+00  0.000000D+00  0.000000D+00  0.402223D-01
     11   0.000000D+00  0.000000D+00  0.000000D+00  0.000000D+00  0.000000D+00
     12   0.000000D+00  0.000000D+00  0.000000D+00  0.000000D+00  0.000000D+00
     13   0.000000D+00  0.000000D+00  0.000000D+00  0.000000D+00  0.000000D+00
     14  -0.248530D+00  0.000000D+00  0.000000D+00  0.000000D+00 -0.496357D-01
     15   0.000000D+00  0.000000D+00 -0.183213D-01  0.000000D+00  0.000000D+00
     16   0.000000D+00 -0.260198D+00  0.000000D+00  0.168647D+00  0.000000D+00
              1086          1087          1088          1089          1090 
      1  -0.115016D+03 -0.115015D+03 -0.114995D+03 -0.114995D+03 -0.114993D+03
      2   0.000000D+00  0.000000D+00  0.000000D+00  0.000000D+00 -0.212328D-01
      3   0.000000D+00  0.000000D+00 -0.168710D-01  0.000000D+00  0.000000D+00
      4   0.000000D+00 -0.287508D-01  0.000000D+00  0.347155D-01  0.000000D+00
      5   0.000000D+00  0.000000D+00  0.000000D+00  0.000000D+00  0.630772D-01
      6   0.000000D+00  0.000000D+00  0.576595D-01  0.000000D+00  0.000000D+00
      7   0.000000D+00  0.894859D-01  0.000000D+00 -0.876164D-01  0.000000D+00
      8   0.000000D+00  0.000000D+00 -0.201540D+00  0.000000D+00  0.000000D+00
      9   0.000000D+00  0.000000D+00  0.000000D+00  0.000000D+00 -0.662265D-01
     10   0.363852D+00  0.000000D+00  0.000000D+00  0.000000D+00  0.000000D+00
     11   0.000000D+00  0.118525D+00  0.000000D+00  0.593310D-01  0.000000D+00
     12   0.000000D+00 -0.524269D+00  0.000000D+00 -0.806567D+00  0.000000D+00
     13   0.000000D+00 -0.527198D-01  0.000000D+00 -0.251462D+00  0.000000D+00
     14  -0.296147D+00  0.000000D+00  0.000000D+00  0.000000D+00  0.000000D+00
     15   0.000000D+00  0.000000D+00  0.000000D+00  0.000000D+00 -0.147366D+00
     16   0.000000D+00  0.000000D+00 -0.236753D+00  0.000000D+00  0.000000D+00
              1091          1092          1093          1094          1095 
      1  -0.114986D+03 -0.114976D+03 -0.114961D+03 -0.114953D+03 -0.114946D+03
      2  -0.242169D-01  0.000000D+00  0.000000D+00  0.000000D+00  0.000000D+00
      3   0.000000D+00  0.000000D+00  0.000000D+00  0.000000D+00  0.495755D-01
      4   0.000000D+00 -0.129049D-01  0.000000D+00 -0.566268D-01  0.000000D+00
      5   0.630179D-01  0.000000D+00  0.000000D+00  0.000000D+00  0.000000D+00
      6   0.000000D+00  0.000000D+00  0.000000D+00  0.000000D+00 -0.133604D+00
      7   0.000000D+00  0.408320D-01  0.000000D+00  0.150016D+00  0.000000D+00
      8   0.000000D+00  0.000000D+00  0.000000D+00  0.000000D+00 -0.569343D+00
      9   0.172954D+00  0.000000D+00  0.000000D+00  0.000000D+00  0.000000D+00
     10   0.000000D+00  0.000000D+00  0.669135D+00  0.000000D+00  0.000000D+00
     11   0.000000D+00  0.398756D-01  0.000000D+00  0.107980D+00  0.000000D+00
     12   0.000000D+00  0.101063D-01  0.000000D+00 -0.375634D+00  0.000000D+00
     13   0.000000D+00  0.369496D+00  0.000000D+00 -0.196987D+00  0.000000D+00
     14   0.000000D+00  0.000000D+00 -0.703813D+00  0.000000D+00  0.000000D+00
     15   0.208847D+00  0.000000D+00  0.000000D+00  0.000000D+00  0.000000D+00
     16   0.000000D+00  0.000000D+00  0.000000D+00  0.000000D+00 -0.140770D+00
              1096          1097          1098          1099          1100 
      1  -0.114907D+03 -0.114901D+03 -0.114891D+03 -0.114859D+03 -0.114858D+03
      2   0.000000D+00  0.429836D-01  0.000000D+00  0.000000D+00  0.000000D+00
      3   0.000000D+00  0.000000D+00  0.565917D-01  0.000000D+00  0.922501D-02
      4   0.460475D-01  0.000000D+00  0.000000D+00  0.000000D+00  0.000000D+00
      5   0.000000D+00 -0.128926D+00  0.000000D+00  0.000000D+00  0.000000D+00
      6   0.000000D+00  0.000000D+00 -0.132174D+00  0.000000D+00 -0.126067D-01
      7  -0.140152D+00  0.000000D+00  0.000000D+00  0.000000D+00  0.000000D+00
      8   0.000000D+00  0.000000D+00  0.151457D+00  0.000000D+00  0.295143D+00
      9   0.000000D+00  0.303368D+00  0.000000D+00  0.000000D+00  0.000000D+00
     10   0.000000D+00  0.000000D+00  0.000000D+00  0.680560D-01  0.000000D+00
     11  -0.174619D+00  0.000000D+00  0.000000D+00  0.000000D+00  0.000000D+00
     12  -0.692215D+00  0.000000D+00  0.000000D+00  0.000000D+00  0.000000D+00
     13   0.283483D+00  0.000000D+00  0.000000D+00  0.000000D+00  0.000000D+00
     14   0.000000D+00  0.000000D+00  0.000000D+00 -0.169599D+00  0.000000D+00
     15   0.000000D+00 -0.353917D-01  0.000000D+00  0.000000D+00  0.000000D+00
     16   0.000000D+00  0.000000D+00  0.320902D+00  0.000000D+00  0.537024D-01
              1101          1102          1103          1104          1105 
      1  -0.114833D+03 -0.114824D+03 -0.114795D+03 -0.114789D+03 -0.114760D+03
      2   0.633819D-01  0.000000D+00  0.000000D+00  0.000000D+00  0.664428D-01
      3   0.000000D+00  0.000000D+00 -0.472541D-01  0.000000D+00  0.000000D+00
      4   0.000000D+00 -0.362149D-01  0.000000D+00  0.631554D-01  0.000000D+00
      5  -0.184200D+00  0.000000D+00  0.000000D+00  0.000000D+00 -0.201206D+00
      6   0.000000D+00  0.000000D+00  0.145934D+00  0.000000D+00  0.000000D+00
      7   0.000000D+00  0.118542D+00  0.000000D+00 -0.176448D+00  0.000000D+00
      8   0.000000D+00  0.000000D+00  0.531258D+00  0.000000D+00  0.000000D+00
      9   0.126905D-01  0.000000D+00  0.000000D+00  0.000000D+00 -0.126518D-01
     10   0.000000D+00  0.000000D+00  0.000000D+00  0.000000D+00  0.000000D+00
     11   0.000000D+00  0.140333D+00  0.000000D+00  0.607502D-01  0.000000D+00
     12   0.000000D+00  0.581309D+00  0.000000D+00  0.105742D+00  0.000000D+00
     13   0.000000D+00 -0.144118D+00  0.000000D+00 -0.245155D+00  0.000000D+00
     14   0.000000D+00  0.000000D+00  0.000000D+00  0.000000D+00  0.000000D+00
     15  -0.270392D-01  0.000000D+00  0.000000D+00  0.000000D+00 -0.418031D-01
     16   0.000000D+00  0.000000D+00  0.482598D+00  0.000000D+00  0.000000D+00
              1106          1107          1108          1109          1110 
      1  -0.114740D+03 -0.114695D+03 -0.114662D+03 -0.114659D+03 -0.114647D+03
      2   0.000000D+00  0.000000D+00  0.000000D+00  0.000000D+00  0.685840D-01
      3   0.000000D+00 -0.253208D-01  0.000000D+00  0.000000D+00  0.000000D+00
      4   0.000000D+00  0.000000D+00  0.000000D+00 -0.524996D-01  0.000000D+00
      5   0.000000D+00  0.000000D+00  0.000000D+00  0.000000D+00 -0.209261D+00
      6   0.000000D+00  0.621355D-01  0.000000D+00  0.000000D+00  0.000000D+00
      7   0.000000D+00  0.000000D+00  0.000000D+00  0.153709D+00  0.000000D+00
      8   0.000000D+00  0.764716D-01  0.000000D+00  0.000000D+00  0.000000D+00
      9   0.000000D+00  0.000000D+00  0.000000D+00  0.000000D+00 -0.111125D+00
     10   0.426449D+00  0.000000D+00  0.237017D+00  0.000000D+00  0.000000D+00
     11   0.000000D+00  0.000000D+00  0.000000D+00  0.604314D-01  0.000000D+00
     12   0.000000D+00  0.000000D+00  0.000000D+00  0.228560D+00  0.000000D+00
     13   0.000000D+00  0.000000D+00  0.000000D+00 -0.908603D-01  0.000000D+00
     14  -0.393939D+00  0.000000D+00 -0.284743D+00  0.000000D+00  0.000000D+00
     15   0.000000D+00  0.000000D+00  0.000000D+00  0.000000D+00 -0.689613D-01
     16   0.000000D+00 -0.398367D-02  0.000000D+00  0.000000D+00  0.000000D+00
 Unable to Open any file for archive entry.
 1\1\GINC-HEL24\SP\RLC-BLYP TD-FC\Gen\C3H8\SABYASACHI\21-Mar-2022\0\\#P
  TD(Nstates=10000) lc-blyp/Gen SCF(maxcycles=100) Int(Grid=ultrafine)\
 \xGDB7_00001_tier4.com\\0,1\C,0,0.,1.267731,-0.259082\C,0,0.,0.,0.5855
 52\C,0,0.,-1.267731,-0.259082\H,0,0.,2.164308,0.363087\H,0,-0.881453,1
 .307675,-0.903652\H,0,0.881453,1.307675,-0.903652\H,0,-0.874532,0.,1.2
 42055\H,0,0.874532,0.,1.242055\H,0,-0.881453,-1.307675,-0.903652\H,0,0
 .,-2.164308,0.363087\H,0,0.881453,-1.307675,-0.903652\\Version=EM64L-G
 16RevC.01\State=1-A1\HF=-118.6646799\RMSD=6.164e-09\PG=C02V [C2(C1),SG
 V(C2H2),SGV'(H2),X(H4)]\\@
 The archive entry for this job was punched.


 TO DRY ONE'S EYES AND LAUGH AT A FALL
 AND BAFFLED, GET UP AND BEGIN AGAIN.
           R. BROWNING
 Job cpu time:       0 days  0 hours 11 minutes 12.3 seconds.
 Elapsed time:       0 days  0 hours  1 minutes 24.3 seconds.
 File lengths (MBytes):  RWF=   1598 Int=      0 D2E=      0 Chk=    404 Scr=      1
 Normal termination of Gaussian 16 at Mon Mar 21 20:16:45 2022.
