 Entering Gaussian System, Link 0=g16
 Input=000004.com
 Output=000004.log
 Initial command:
 /home/sabyasachi/g16/l1.exe "/scratch/sabyasachi/PBS_7976204.helios/Gau-44986.inp" -scrdir="/scratch/sabyasachi/PBS_7976204.helios/"
 Entering Link 1 = /home/sabyasachi/g16/l1.exe PID=     44987.
  
 Copyright (c) 1988-2019, Gaussian, Inc.  All Rights Reserved.
  
 This is part of the Gaussian(R) 16 program.  It is based on
 the Gaussian(R) 09 system (copyright 2009, Gaussian, Inc.),
 the Gaussian(R) 03 system (copyright 2003, Gaussian, Inc.),
 the Gaussian(R) 98 system (copyright 1998, Gaussian, Inc.),
 the Gaussian(R) 94 system (copyright 1995, Gaussian, Inc.),
 the Gaussian 92(TM) system (copyright 1992, Gaussian, Inc.),
 the Gaussian 90(TM) system (copyright 1990, Gaussian, Inc.),
 the Gaussian 88(TM) system (copyright 1988, Gaussian, Inc.),
 the Gaussian 86(TM) system (copyright 1986, Carnegie Mellon
 University), and the Gaussian 82(TM) system (copyright 1983,
 Carnegie Mellon University). Gaussian is a federally registered
 trademark of Gaussian, Inc.
  
 This software contains proprietary and confidential information,
 including trade secrets, belonging to Gaussian, Inc.
  
 This software is provided under written license and may be
 used, copied, transmitted, or stored only in accord with that
 written license.
  
 The following legend is applicable only to US Government
 contracts under FAR:
  
                    RESTRICTED RIGHTS LEGEND
  
 Use, reproduction and disclosure by the US Government is
 subject to restrictions as set forth in subparagraphs (a)
 and (c) of the Commercial Computer Software - Restricted
 Rights clause in FAR 52.227-19.
  
 Gaussian, Inc.
 340 Quinnipiac St., Bldg. 40, Wallingford CT 06492
  
  
 ---------------------------------------------------------------
 Warning -- This program may not be used in any manner that
 competes with the business of Gaussian, Inc. or will provide
 assistance to any competitor of Gaussian, Inc.  The licensee
 of this program is prohibited from giving any competitor of
 Gaussian, Inc. access to this program.  By using this program,
 the user acknowledges that Gaussian, Inc. is engaged in the
 business of creating and licensing software in the field of
 computational chemistry and represents and warrants to the
 licensee that it is not a competitor of Gaussian, Inc. and that
 it will not use this program in any manner prohibited above.
 ---------------------------------------------------------------
  

 Cite this work as:
 Gaussian 16, Revision C.01,
 M. J. Frisch, G. W. Trucks, H. B. Schlegel, G. E. Scuseria, 
 M. A. Robb, J. R. Cheeseman, G. Scalmani, V. Barone, 
 G. A. Petersson, H. Nakatsuji, X. Li, M. Caricato, A. V. Marenich, 
 J. Bloino, B. G. Janesko, R. Gomperts, B. Mennucci, H. P. Hratchian, 
 J. V. Ortiz, A. F. Izmaylov, J. L. Sonnenberg, D. Williams-Young, 
 F. Ding, F. Lipparini, F. Egidi, J. Goings, B. Peng, A. Petrone, 
 T. Henderson, D. Ranasinghe, V. G. Zakrzewski, J. Gao, N. Rega, 
 G. Zheng, W. Liang, M. Hada, M. Ehara, K. Toyota, R. Fukuda, 
 J. Hasegawa, M. Ishida, T. Nakajima, Y. Honda, O. Kitao, H. Nakai, 
 T. Vreven, K. Throssell, J. A. Montgomery, Jr., J. E. Peralta, 
 F. Ogliaro, M. J. Bearpark, J. J. Heyd, E. N. Brothers, K. N. Kudin, 
 V. N. Staroverov, T. A. Keith, R. Kobayashi, J. Normand, 
 K. Raghavachari, A. P. Rendell, J. C. Burant, S. S. Iyengar, 
 J. Tomasi, M. Cossi, J. M. Millam, M. Klene, C. Adamo, R. Cammi, 
 J. W. Ochterski, R. L. Martin, K. Morokuma, O. Farkas, 
 J. B. Foresman, and D. J. Fox, Gaussian, Inc., Wallingford CT, 2019.
 
 ******************************************
 Gaussian 16:  EM64L-G16RevC.01  3-Jul-2019
                21-Mar-2022 
 ******************************************
 %mem=64gb
 %nproc=8
 Will use up to    8 processors via shared memory.
 ----------------------------------------------------------------------
 #P TD(Nstates=10000) lc-blyp/Gen SCF(maxcycles=100) Int(Grid=ultrafine
 )
 ----------------------------------------------------------------------
 1/38=1,172=1/1;
 2/12=2,17=6,18=5,40=1/2;
 3/5=7,11=9,25=1,30=1,74=1000402,75=-5/1,2,3,8;
 4//1;
 5/5=2,7=100,38=5/2;
 8/6=1,10=1,108=10000/1;
 9/41=10000,42=1,70=2/14;
 6/7=2,8=2,9=2,10=2/1;
 99/5=1,9=1/99;
 Leave Link    1 at Mon Mar 21 20:06:40 2022, MaxMem=  8589934592 cpu:               0.3 elap:               0.0
 (Enter /home/sabyasachi/g16/l101.exe)
 ---------------------
 xGDB7_00001_tier4.com
 ---------------------
 Symbolic Z-matrix:
 Charge =  0 Multiplicity = 1
 9                     0.        0.        0.0918 
 1                     0.        0.       -0.82621 
 
 ITRead=  0  0
 MicOpt= -1 -1
 NAtoms=      2 NQM=        2 NQMF=       0 NMMI=      0 NMMIF=      0
                NMic=       0 NMicF=      0.
                    Isotopes and Nuclear Properties:
 (Nuclear quadrupole moments (NQMom) in fm**2, nuclear magnetic moments (NMagM)
  in nuclear magnetons)

  Atom         1           2
 IAtWgt=          19           1
 AtmWgt=  18.9984033   1.0078250
 NucSpn=           1           1
 AtZEff=  -0.0000000  -0.0000000
 NQMom=    0.0000000   0.0000000
 NMagM=    2.6288670   2.7928460
 AtZNuc=   9.0000000   1.0000000
 Leave Link  101 at Mon Mar 21 20:06:40 2022, MaxMem=  8589934592 cpu:               0.6 elap:               0.1
 (Enter /home/sabyasachi/g16/l202.exe)
                          Input orientation:                          
 ---------------------------------------------------------------------
 Center     Atomic      Atomic             Coordinates (Angstroms)
 Number     Number       Type             X           Y           Z
 ---------------------------------------------------------------------
      1          9           0        0.000000    0.000000    0.091801
      2          1           0        0.000000    0.000000   -0.826212
 ---------------------------------------------------------------------
 Stoichiometry    FH
 Framework group  C*V[C*(HF)]
 Deg. of freedom     1
 Full point group                 C*V     NOp   4
 Largest Abelian subgroup         C2V     NOp   4
 Largest concise Abelian subgroup C1      NOp   1
                         Standard orientation:                         
 ---------------------------------------------------------------------
 Center     Atomic      Atomic             Coordinates (Angstroms)
 Number     Number       Type             X           Y           Z
 ---------------------------------------------------------------------
      1          9           0        0.000000    0.000000    0.091801
      2          1           0        0.000000    0.000000   -0.826212
 ---------------------------------------------------------------------
 Rotational constants (GHZ):           0.0000000         626.5886337         626.5886337
 Leave Link  202 at Mon Mar 21 20:06:40 2022, MaxMem=  8589934592 cpu:               0.1 elap:               0.0
 (Enter /home/sabyasachi/g16/l301.exe)
 General basis read from cards:  (5D, 7F)
 Centers:       2
 S 3 1.00
     Exponent=  1.3010701000D+01 Coefficients=  1.9682158000D-02
     Exponent=  1.9622572000D+00 Coefficients=  1.3796524000D-01
     Exponent=  4.4453796000D-01 Coefficients=  4.7831935000D-01
 S 1 1.00
     Exponent=  1.2194962000D-01 Coefficients=  1.0000000000D+00
 P 1 1.00
     Exponent=  8.0000000000D-01 Coefficients=  1.0000000000D+00
 P 1 1.00
     Exponent=  1.1704099050D-01 Coefficients=  1.0000000000D+00
 ****
 Centers:       1
 S 5 1.00
     Exponent=  2.8948325990D+03 Coefficients= -5.3408255515D-03
     Exponent=  4.3541939120D+02 Coefficients= -3.9904258866D-02
     Exponent=  9.8843328866D+01 Coefficients= -1.7912768038D-01
     Exponent=  2.7485198001D+01 Coefficients= -4.6758090825D-01
     Exponent=  8.5405498171D+00 Coefficients= -4.4653131020D-01
 S 1 1.00
     Exponent=  1.0654578038D+00 Coefficients=  1.0000000000D+00
 S 1 1.00
     Exponent=  3.3247346748D-01 Coefficients=  1.0000000000D+00
 S 1 1.00
     Exponent=  9.8097752264D-02 Coefficients=  1.0000000000D+00
 P 3 1.00
     Exponent=  2.2696633924D+01 Coefficients= -4.5212874436D-02
     Exponent=  4.9872339257D+00 Coefficients= -2.3754317067D-01
     Exponent=  1.3491613954D+00 Coefficients= -5.1287353587D-01
 P 1 1.00
     Exponent=  3.4829881977D-01 Coefficients=  1.0000000000D+00
 P 1 1.00
     Exponent=  8.3372148304D-02 Coefficients=  1.0000000000D+00
 D 1 1.00
     Exponent=  1.4000000000D+00 Coefficients=  1.0000000000D+00
 D 1 1.00
     Exponent=  2.2301361948D-01 Coefficients=  1.0000000000D+00
 ****
 Ernie: Thresh=  0.10000D-02 Tol=  0.10000D-05 Strict=F.
 There are    17 symmetry adapted cartesian basis functions of A1  symmetry.
 There are     2 symmetry adapted cartesian basis functions of A2  symmetry.
 There are     7 symmetry adapted cartesian basis functions of B1  symmetry.
 There are     7 symmetry adapted cartesian basis functions of B2  symmetry.
 There are    15 symmetry adapted basis functions of A1  symmetry.
 There are     2 symmetry adapted basis functions of A2  symmetry.
 There are     7 symmetry adapted basis functions of B1  symmetry.
 There are     7 symmetry adapted basis functions of B2  symmetry.
    31 basis functions,    45 primitive gaussians,    33 cartesian basis functions
     5 alpha electrons        5 beta electrons
       nuclear repulsion energy         5.1879384042 Hartrees.
 IExCor=10402 DFT=T Ex=LC-B+HF Corr=LYP ExCW=0 ScaHFX=  1.000000
 ScaDFX=  1.000000  1.000000  1.000000  1.000000 ScalE2=  1.000000  1.000000
 IRadAn=      5 IRanWt=     -1 IRanGd=            0 ICorTp=0 IEmpDi=  4
 HFx  wShort=  0.000000 wLong=  0.470000 cFull=  0.000000 cShort=  0.000000 cLong=  1.000000
 DFx  wShort=  0.000000 wLong=  0.470000 cFull=  0.000000 cShort=  0.000000 cLong=  1.000000
 NAtoms=    2 NActive=    2 NUniq=    2 SFac= 1.00D+00 NAtFMM=   60 NAOKFM=F Big=F
 Integral buffers will be    131072 words long.
 Raffenetti 1 integral format.
 Two-electron integral symmetry is turned on.
 Leave Link  301 at Mon Mar 21 20:06:40 2022, MaxMem=  8589934592 cpu:               0.6 elap:               0.1
 (Enter /home/sabyasachi/g16/l302.exe)
 NPDir=0 NMtPBC=     1 NCelOv=     1 NCel=       1 NClECP=     1 NCelD=      1
         NCelK=      1 NCelE2=     1 NClLst=     1 CellRange=     0.0.
 One-electron integrals computed using PRISM.
 One-electron integral symmetry used in STVInt
 NBasis=    31 RedAO= T EigKep=  3.31D-03  NBF=    15     2     7     7
 NBsUse=    31 1.00D-06 EigRej= -1.00D+00 NBFU=    15     2     7     7
 Precomputing XC quadrature grid using
 IXCGrd= 4 IRadAn=           5 IRanWt=          -1 IRanGd=           0 AccXCQ= 0.00D+00.
 Generated NRdTot=       0 NPtTot=           0 NUsed=           0 NTot=          32
 NSgBfM=    33    33    33    33    33 MxSgAt=     2 MxSgA2=     2.
 Leave Link  302 at Mon Mar 21 20:06:40 2022, MaxMem=  8589934592 cpu:               0.9 elap:               0.1
 (Enter /home/sabyasachi/g16/l303.exe)
 DipDrv:  MaxL=1.
 Leave Link  303 at Mon Mar 21 20:06:40 2022, MaxMem=  8589934592 cpu:               0.2 elap:               0.0
 (Enter /home/sabyasachi/g16/l308.exe)
 Leave Link  308 at Mon Mar 21 20:06:40 2022, MaxMem=  8589934592 cpu:               0.2 elap:               0.0
 (Enter /home/sabyasachi/g16/l401.exe)
 ExpMin= 8.34D-02 ExpMax= 2.89D+03 ExpMxC= 4.35D+02 IAcc=3 IRadAn=         5 AccDes= 0.00D+00
 Harris functional with IExCor=10402 and IRadAn=       5 diagonalized for initial guess.
 HarFok:  IExCor=10402 AccDes= 0.00D+00 IRadAn=         5 IDoV= 1 UseB2=F ITyADJ=14
 ICtDFT=  3500011 ScaDFX=  1.000000  1.000000  1.000000  1.000000
 FoFCou: FMM=F IPFlag=           0 FMFlag=      100000 FMFlg1=           0
         NFxFlg=           0 DoJE=T BraDBF=F KetDBF=T FulRan=T
         wScrn=  0.000000 ICntrl=       500 IOpCl=  0 I1Cent=   200000004 NGrid=           0
         NMat0=    1 NMatS0=      1 NMatT0=    0 NMatD0=    1 NMtDS0=    0 NMtDT0=    0
 Petite list used in FoFCou.
 Harris En= -97.8505449983521    
 JPrj=0 DoOrth=F DoCkMO=F.
 Initial guess orbital symmetries:
       Occupied  (SG) (SG) (SG) (PI) (PI)
       Virtual   (SG) (SG) (PI) (PI) (SG) (PI) (PI) (SG) (DLTA)
                 (DLTA) (SG) (PI) (PI) (SG) (PI) (PI) (SG) (PI)
                 (PI) (SG) (SG) (DLTA) (DLTA) (PI) (PI) (SG)
 The electronic state of the initial guess is 1-SG.
 Leave Link  401 at Mon Mar 21 20:06:40 2022, MaxMem=  8589934592 cpu:               1.1 elap:               0.2
 (Enter /home/sabyasachi/g16/l502.exe)
 Keep R1 ints in memory in symmetry-blocked form, NReq=7176048.
 FoFCou: FMM=F IPFlag=           0 FMFlag=           0 FMFlg1=           0
         NFxFlg=           0 DoJE=F BraDBF=F KetDBF=F FulRan=T
         wScrn=  0.000000 ICntrl=       600 IOpCl=  0 I1Cent=           0 NGrid=           0
         NMat0=    1 NMatS0=    496 NMatT0=    0 NMatD0=    1 NMtDS0=    0 NMtDT0=    0
 Petite list used in FoFCou.
 Closed shell SCF:
 Using DIIS extrapolation, IDIIS=  1040.
 NGot=  8589934592 LenX=  8589895776 LenY=  8589894246
 Requested convergence on RMS density matrix=1.00D-08 within 100 cycles.
 Requested convergence on MAX density matrix=1.00D-06.
 Requested convergence on             energy=1.00D-06.
 No special actions if energy rises.
 Integral accuracy reduced to 1.0D-05 until final iterations.

 Cycle   1  Pass 0  IDiag  1:
 E= -100.213392754498    
 DIIS: error= 1.20D-02 at cycle   1 NSaved=   1.
 NSaved= 1 IEnMin= 1 EnMin= -100.213392754498     IErMin= 1 ErrMin= 1.20D-02
 ErrMax= 1.20D-02  0.00D+00 EMaxC= 1.00D-01 BMatC= 4.86D-03 BMatP= 4.86D-03
 IDIUse=3 WtCom= 8.80D-01 WtEn= 1.20D-01
 Coeff-Com:  0.100D+01
 Coeff-En:   0.100D+01
 Coeff:      0.100D+01
 Gap=     0.656 Goal=   None    Shift=    0.000
 GapD=    0.656 DampG=2.000 DampE=0.500 DampFc=1.0000 IDamp=-1.
 RMSDP=2.73D-03 MaxDP=2.76D-02              OVMax= 3.38D-02

 Cycle   2  Pass 0  IDiag  1:
 E= -100.220686321239     Delta-E=       -0.007293566741 Rises=F Damp=F
 DIIS: error= 4.18D-03 at cycle   2 NSaved=   2.
 NSaved= 2 IEnMin= 2 EnMin= -100.220686321239     IErMin= 2 ErrMin= 4.18D-03
 ErrMax= 4.18D-03  0.00D+00 EMaxC= 1.00D-01 BMatC= 6.63D-04 BMatP= 4.86D-03
 IDIUse=3 WtCom= 9.58D-01 WtEn= 4.18D-02
 Coeff-Com:  0.148D+00 0.852D+00
 Coeff-En:   0.000D+00 0.100D+01
 Coeff:      0.141D+00 0.859D+00
 Gap=     0.639 Goal=   None    Shift=    0.000
 RMSDP=9.28D-04 MaxDP=8.30D-03 DE=-7.29D-03 OVMax= 6.93D-03

 Cycle   3  Pass 0  IDiag  1:
 E= -100.221050729358     Delta-E=       -0.000364408118 Rises=F Damp=F
 DIIS: error= 2.54D-03 at cycle   3 NSaved=   3.
 NSaved= 3 IEnMin= 3 EnMin= -100.221050729358     IErMin= 3 ErrMin= 2.54D-03
 ErrMax= 2.54D-03  0.00D+00 EMaxC= 1.00D-01 BMatC= 1.67D-04 BMatP= 6.63D-04
 IDIUse=3 WtCom= 9.75D-01 WtEn= 2.54D-02
 Coeff-Com: -0.725D-02 0.306D+00 0.701D+00
 Coeff-En:   0.000D+00 0.000D+00 0.100D+01
 Coeff:     -0.706D-02 0.298D+00 0.709D+00
 Gap=     0.647 Goal=   None    Shift=    0.000
 RMSDP=3.22D-04 MaxDP=3.40D-03 DE=-3.64D-04 OVMax= 4.37D-03

 Cycle   4  Pass 0  IDiag  1:
 E= -100.221167297362     Delta-E=       -0.000116568005 Rises=F Damp=F
 DIIS: error= 6.19D-04 at cycle   4 NSaved=   4.
 NSaved= 4 IEnMin= 4 EnMin= -100.221167297362     IErMin= 4 ErrMin= 6.19D-04
 ErrMax= 6.19D-04  0.00D+00 EMaxC= 1.00D-01 BMatC= 2.05D-05 BMatP= 1.67D-04
 IDIUse=3 WtCom= 9.94D-01 WtEn= 6.19D-03
 Coeff-Com: -0.204D-01-0.352D-01 0.228D+00 0.827D+00
 Coeff-En:   0.000D+00 0.000D+00 0.000D+00 0.100D+01
 Coeff:     -0.203D-01-0.350D-01 0.227D+00 0.828D+00
 Gap=     0.645 Goal=   None    Shift=    0.000
 RMSDP=1.52D-04 MaxDP=1.45D-03 DE=-1.17D-04 OVMax= 1.34D-03

 Cycle   5  Pass 0  IDiag  1:
 E= -100.221181061193     Delta-E=       -0.000013763831 Rises=F Damp=F
 DIIS: error= 5.59D-05 at cycle   5 NSaved=   5.
 NSaved= 5 IEnMin= 5 EnMin= -100.221181061193     IErMin= 5 ErrMin= 5.59D-05
 ErrMax= 5.59D-05  0.00D+00 EMaxC= 1.00D-01 BMatC= 5.89D-08 BMatP= 2.05D-05
 IDIUse=1 WtCom= 1.00D+00 WtEn= 0.00D+00
 Coeff-Com:  0.144D-02-0.287D-02-0.347D-01-0.685D-01 0.110D+01
 Coeff:      0.144D-02-0.287D-02-0.347D-01-0.685D-01 0.110D+01
 Gap=     0.645 Goal=   None    Shift=    0.000
 RMSDP=2.37D-05 MaxDP=2.69D-04 DE=-1.38D-05 OVMax= 1.92D-04

 Cycle   6  Pass 0  IDiag  1:
 E= -100.221181221820     Delta-E=       -0.000000160627 Rises=F Damp=F
 DIIS: error= 1.03D-05 at cycle   6 NSaved=   6.
 NSaved= 6 IEnMin= 6 EnMin= -100.221181221820     IErMin= 6 ErrMin= 1.03D-05
 ErrMax= 1.03D-05  0.00D+00 EMaxC= 1.00D-01 BMatC= 2.10D-09 BMatP= 5.89D-08
 IDIUse=1 WtCom= 1.00D+00 WtEn= 0.00D+00
 Coeff-Com: -0.916D-04 0.970D-03 0.541D-02 0.107D-01-0.311D+00 0.129D+01
 Coeff:     -0.916D-04 0.970D-03 0.541D-02 0.107D-01-0.311D+00 0.129D+01
 Gap=     0.645 Goal=   None    Shift=    0.000
 RMSDP=2.31D-06 MaxDP=2.18D-05 DE=-1.61D-07 OVMax= 5.49D-05

 Initial convergence to 1.0D-05 achieved.  Increase integral accuracy.
 Cycle   7  Pass 1  IDiag  1:
 E= -100.221181215033     Delta-E=        0.000000006787 Rises=F Damp=F
 DIIS: error= 8.05D-07 at cycle   1 NSaved=   1.
 NSaved= 1 IEnMin= 1 EnMin= -100.221181215033     IErMin= 1 ErrMin= 8.05D-07
 ErrMax= 8.05D-07  0.00D+00 EMaxC= 1.00D-01 BMatC= 1.58D-11 BMatP= 1.58D-11
 IDIUse=1 WtCom= 1.00D+00 WtEn= 0.00D+00
 Coeff-Com:  0.100D+01
 Coeff:      0.100D+01
 Gap=     0.645 Goal=   None    Shift=    0.000
 RMSDP=2.31D-06 MaxDP=2.18D-05 DE= 6.79D-09 OVMax= 3.11D-06

 Cycle   8  Pass 1  IDiag  1:
 E= -100.221181215072     Delta-E=       -0.000000000039 Rises=F Damp=F
 DIIS: error= 3.79D-07 at cycle   2 NSaved=   2.
 NSaved= 2 IEnMin= 2 EnMin= -100.221181215072     IErMin= 2 ErrMin= 3.79D-07
 ErrMax= 3.79D-07  0.00D+00 EMaxC= 1.00D-01 BMatC= 2.05D-12 BMatP= 1.58D-11
 IDIUse=1 WtCom= 1.00D+00 WtEn= 0.00D+00
 Coeff-Com: -0.156D+00 0.116D+01
 Coeff:     -0.156D+00 0.116D+01
 Gap=     0.645 Goal=   None    Shift=    0.000
 RMSDP=1.02D-07 MaxDP=9.87D-07 DE=-3.93D-11 OVMax= 1.50D-06

 Cycle   9  Pass 1  IDiag  1:
 E= -100.221181215077     Delta-E=       -0.000000000004 Rises=F Damp=F
 DIIS: error= 2.05D-07 at cycle   3 NSaved=   3.
 NSaved= 3 IEnMin= 3 EnMin= -100.221181215077     IErMin= 3 ErrMin= 2.05D-07
 ErrMax= 2.05D-07  0.00D+00 EMaxC= 1.00D-01 BMatC= 1.37D-12 BMatP= 2.05D-12
 IDIUse=1 WtCom= 1.00D+00 WtEn= 0.00D+00
 Coeff-Com: -0.221D+00 0.592D+00 0.629D+00
 Coeff:     -0.221D+00 0.592D+00 0.629D+00
 Gap=     0.645 Goal=   None    Shift=    0.000
 RMSDP=2.91D-08 MaxDP=2.77D-07 DE=-4.15D-12 OVMax= 3.17D-07

 Cycle  10  Pass 1  IDiag  1:
 E= -100.221181215078     Delta-E=       -0.000000000001 Rises=F Damp=F
 DIIS: error= 1.30D-08 at cycle   4 NSaved=   4.
 NSaved= 4 IEnMin= 4 EnMin= -100.221181215078     IErMin= 4 ErrMin= 1.30D-08
 ErrMax= 1.30D-08  0.00D+00 EMaxC= 1.00D-01 BMatC= 3.49D-15 BMatP= 1.37D-12
 IDIUse=1 WtCom= 1.00D+00 WtEn= 0.00D+00
 Coeff-Com:  0.411D-01-0.131D+00-0.930D-01 0.118D+01
 Coeff:      0.411D-01-0.131D+00-0.930D-01 0.118D+01
 Gap=     0.645 Goal=   None    Shift=    0.000
 RMSDP=7.98D-09 MaxDP=1.01D-07 DE=-9.81D-13 OVMax= 5.53D-08

 SCF Done:  E(RLC-B+HF-LYP) =  -100.221181215     A.U. after   10 cycles
            NFock= 10  Conv=0.80D-08     -V/T= 2.0061
 KE= 9.960963707585D+01 PE=-2.497883583594D+02 EE= 4.476960166427D+01
 Leave Link  502 at Mon Mar 21 20:06:41 2022, MaxMem=  8589934592 cpu:               2.0 elap:               0.3
 (Enter /home/sabyasachi/g16/l801.exe)
 DoSCS=F DFT=T ScalE2(SS,OS)=  1.000000  1.000000
 ExpMin= 8.34D-02 ExpMax= 2.89D+03 ExpMxC= 4.35D+02 IAcc=3 IRadAn=         5 AccDes= 0.00D+00
 HarFok:  IExCor=  205 AccDes= 0.00D+00 IRadAn=         5 IDoV=-2 UseB2=F ITyADJ=14
 ICtDFT= 12500011 ScaDFX=  1.000000  1.000000  1.000000  1.000000
 Largest valence mixing into a core orbital is  1.99D-05
 Largest core mixing into a valence orbital is  4.77D-06
 Range of M.O.s used for correlation:     2    31
 NBasis=    31 NAE=     5 NBE=     5 NFC=     1 NFV=     0
 NROrb=     30 NOA=     4 NOB=     4 NVA=    26 NVB=    26
 Leave Link  801 at Mon Mar 21 20:06:41 2022, MaxMem=  8589934592 cpu:               0.3 elap:               0.1
 (Enter /home/sabyasachi/g16/l914.exe)
 RHF ground state
 Keep R1, R2, and R3 ints in memory in symmetry-blocked form, NReq=24141692.
 FoFCou: FMM=F IPFlag=           0 FMFlag=           0 FMFlg1=           0
         NFxFlg=           0 DoJE=F BraDBF=F KetDBF=F FulRan=T
         wScrn=  0.000000 ICntrl=       600 IOpCl=  0 I1Cent=           0 NGrid=           0
         NMat0=    1 NMatS0=    496 NMatT0=    0 NMatD0=    1 NMtDS0=    0 NMtDT0=    0
 Petite list used in FoFCou.
 MDV=  8589934592 DFT=T DoStab=F Mixed=T DoRPA=T DoScal=F NonHer=T
 Making orbital integer symmetry assigments:
 Orbital symmetries:
       Occupied  (SG) (SG) (SG) (PI) (PI)
       Virtual   (SG) (SG) (PI) (PI) (SG) (PI) (PI) (SG) (DLTA)
                 (DLTA) (SG) (PI) (PI) (SG) (PI) (PI) (SG) (PI)
                 (PI) (SG) (SG) (DLTA) (DLTA) (PI) (PI) (SG)
   104 initial guesses have been made.
 Convergence on wavefunction:    0.001000000000000
 Davidson Disk Diagonalization:  ConvIn= 1.00D-03 SkipCon=T Conv= 1.00D-03.
 Max sub-space:   624 roots to seek:   208 dimension of matrix:          208
 *** WARNING: Number of orthogonal guesses is          104
 Iteration     1 Dimension   104 NMult     0 NNew    104
 CISAX will form   104 AO SS matrices at one time.
 NMat=   104 NSing=   104 JSym2X=-1.
 New state      1 was old state      2
 New state      2 was old state      1
 New state      4 was old state      7
 New state      6 was old state      4
 New state      7 was old state      8
 New state      8 was old state      6
 New state     10 was old state     11
 New state     11 was old state     10
 New state     12 was old state     13
 New state     13 was old state     12
 New state     16 was old state     18
 New state     18 was old state     16
 New state     19 was old state     20
 New state     20 was old state     19
 New state     21 was old state     22
 New state     22 was old state     23
 New state     23 was old state     21
 New state     27 was old state     28
 New state     28 was old state     27
 New state     29 was old state     30
 New state     30 was old state     29
 New state     31 was old state     32
 New state     32 was old state     31
 New state     33 was old state     35
 New state     34 was old state     33
 New state     35 was old state     34
 New state     39 was old state     40
 New state     40 was old state     39
 New state     41 was old state     43
 New state     43 was old state     41
 New state     45 was old state     48
 New state     46 was old state     47
 New state     47 was old state     45
 New state     48 was old state     46
 New state     51 was old state     53
 New state     52 was old state     56
 New state     53 was old state     54
 New state     54 was old state     51
 New state     55 was old state     52
 New state     56 was old state     57
 New state     57 was old state     58
 New state     58 was old state     59
 New state     59 was old state     62
 New state     60 was old state     63
 New state     61 was old state     60
 New state     62 was old state     61
 New state     63 was old state     64
 New state     64 was old state     65
 New state     65 was old state     67
 New state     67 was old state     68
 New state     68 was old state     69
 New state     69 was old state     74
 New state     74 was old state     76
 New state     76 was old state     77
 New state     77 was old state     83
 New state     78 was old state     79
 New state     79 was old state     78
 No map to state     83
 New state     87 was old state     90
 New state     88 was old state     89
 New state     89 was old state     88
 New state     90 was old state     87
 New state     91 was old state     92
 New state     92 was old state     93
 New state     93 was old state     91
 New state     95 was old state     96
 New state     96 was old state     95
 New state     99 was old state    100
 New state    100 was old state     99
 Excitation Energies [eV] at current iteration:
 Root      1 :    10.390715281124050
 Root      2 :    10.390715281124080
 Root      3 :    14.189958428562630
 Root      4 :    14.256580818186470
 Root      5 :    14.368183940919240
 Root      6 :    14.368183940919330
 Root      7 :    14.399403170598110
 Root      8 :    14.399403189148230
 Root      9 :    16.093120581385420
 Root     10 :    16.330675398043830
 Root     11 :    16.330675398043970
 Root     12 :    17.167055917559640
 Root     13 :    17.170999183029690
 Root     14 :    17.170999230336360
 Root     15 :    17.399068460384700
 Root     16 :    17.964564588365590
 Root     17 :    17.964564588365610
 Root     18 :    18.679843301689090
 Root     19 :    19.827252496878340
 Root     20 :    19.827252496878400
 Root     21 :    20.862742290366780
 Root     22 :    20.862742290366800
 Root     23 :    20.916187245392210
 Root     24 :    24.158011467513350
 Root     25 :    24.717611861559770
 Root     26 :    24.717611861559800
 Root     27 :    25.613590260198360
 Root     28 :    25.613590260198420
 Root     29 :    27.602734720302870
 Root     30 :    27.602734720303160
 Root     31 :    28.297544642690400
 Root     32 :    28.297544649986460
 Root     33 :    29.320008219224380
 Root     34 :    29.420798673760380
 Root     35 :    29.420798684758940
 Root     36 :    30.141907230270000
 Root     37 :    31.637819229835330
 Root     38 :    32.554539600377030
 Root     39 :    33.628372812011770
 Root     40 :    33.628372812011790
 Root     41 :    35.509402077759250
 Root     42 :    35.509402077759250
 Root     43 :    35.529181326925180
 Root     44 :    37.211777562496170
 Root     45 :    37.686706276581600
 Root     46 :    37.686706276581600
 Root     47 :    38.021499127756440
 Root     48 :    38.021499127756480
 Root     49 :    40.876844645407750
 Root     50 :    42.260647497305160
 Root     51 :    44.608203756789100
 Root     52 :    44.923046872211360
 Root     53 :    44.923047031972680
 Root     54 :    45.664247673182510
 Root     55 :    45.664247699745750
 Root     56 :    48.393736544594870
 Root     57 :    48.569945111596810
 Root     58 :    48.569945111596990
 Root     59 :    50.381081070744500
 Root     60 :    50.381081070744500
 Root     61 :    50.681039490366900
 Root     62 :    50.681039490366910
 Root     63 :    51.378567633268640
 Root     64 :    58.157227547116940
 Root     65 :    59.204697684255220
 Root     66 :    59.243653703097010
 Root     67 :    59.243653731956240
 Root     68 :    59.535501635751210
 Root     69 :    60.778318952251330
 Root     70 :    62.078723202779510
 Root     71 :    62.078723202779670
 Root     72 :    63.640698673988510
 Root     73 :    63.640698673988850
 Root     74 :    66.345053272905420
 Root     75 :    66.345053272905500
 Root     76 :    66.641753752995710
 Root     77 :    73.308356373478660
 Root     78 :    73.374082806869550
 Root     79 :    73.374082806869710
 Root     80 :    78.684748972474940
 Root     81 :    80.088444433670220
 Root     82 :    80.088444433670830
 Root     83 :    85.175727713763460
 Root     84 :    94.886964763951510
 Root     85 :    97.685460530750190
 Root     86 :    97.685460530750190
 Root     87 :   101.385501481592400
 Root     88 :   101.385501484261800
 Root     89 :   101.936620773939000
 Root     90 :   101.936620773939100
 Root     91 :   102.311816196997900
 Root     92 :   102.467928838931800
 Root     93 :   102.467928876548800
 Root     94 :   108.473867577643300
 Root     95 :   110.905395797154100
 Root     96 :   110.905395797154200
 Root     97 :   120.054684957050200
 Root     98 :   120.054684989404800
 Root     99 :   124.878998851706000
 Root    100 :   124.878998851706200
 Root    101 :   128.525156596575700
 Root    102 :   128.525156596575900
 Root    103 :   133.972369626242500
 Root    104 :   149.235260515661800
 Convergence achieved for final wavefunctions.
 ***********************************************************************
 Excited states from <AA,BB:AA,BB> singles matrix:
 ***********************************************************************
 
 1PDM for each excited state written to RWF  633
 Ground to excited state transition densities written to RWF  633
 Ground to excited state transition electric dipole moments (Au):
       state          X           Y           Z        Dip. S.      Osc.
         1         0.3582     -0.0639     -0.0000      0.1324      0.0337
         2         0.0639      0.3582     -0.0000      0.1324      0.0337
         3         0.0000     -0.0000      0.6081      0.3698      0.1286
         4         0.0000     -0.0000      0.0000      0.0000      0.0000
         5         0.2678     -0.0525      0.0000      0.0745      0.0262
         6         0.0525      0.2678      0.0000      0.0745      0.0262
         7        -0.0000     -0.0000     -0.0000      0.0000      0.0000
         8        -0.0000      0.0000      0.0000      0.0000      0.0000
         9        -0.0000      0.0000     -0.2114      0.0447      0.0176
        10         0.3910      0.1558     -0.0000      0.1772      0.0709
        11        -0.1558      0.3910     -0.0000      0.1772      0.0709
        12         0.0000     -0.0000     -0.0000      0.0000      0.0000
        13        -0.0000      0.0000     -0.0000      0.0000      0.0000
        14         0.0000      0.0000      0.0000      0.0000      0.0000
        15        -0.0000      0.0000     -0.7273      0.5289      0.2255
        16        -0.0012     -0.0001     -0.0000      0.0000      0.0000
        17         0.0001     -0.0012     -0.0000      0.0000      0.0000
        18        -0.0000      0.0000      0.2007      0.0403      0.0184
        19         0.1121      0.0629     -0.0000      0.0165      0.0080
        20        -0.0629      0.1121      0.0000      0.0165      0.0080
        21         0.0665     -0.3866      0.0000      0.1539      0.0787
        22        -0.3866     -0.0665     -0.0000      0.1539      0.0787
        23        -0.0000     -0.0000     -0.5245      0.2750      0.1409
        24        -0.0000      0.0000      0.3439      0.1183      0.0700
        25         0.0000     -0.0000      0.0000      0.0000      0.0000
        26         0.0000      0.0000      0.0000      0.0000      0.0000
        27         0.8410      0.0023     -0.0000      0.7073      0.4438
        28        -0.0023      0.8410      0.0000      0.7073      0.4438
        29         0.4994      0.1138     -0.0000      0.2624      0.1774
        30        -0.1138      0.4994      0.0000      0.2624      0.1774
        31        -0.0000     -0.0000     -0.0000      0.0000      0.0000
        32        -0.0000     -0.0000      0.0000      0.0000      0.0000
        33         0.0000     -0.0000     -0.0000      0.0000      0.0000
        34         0.0000      0.0000      0.0000      0.0000      0.0000
        35         0.0000      0.0000     -0.0000      0.0000      0.0000
        36        -0.0000      0.0000      0.4351      0.1893      0.1398
        37         0.0000     -0.0000      0.3203      0.1026      0.0795
        38         0.0000     -0.0000     -0.8139      0.6625      0.5284
        39         0.4408      0.3932     -0.0000      0.3489      0.2875
        40        -0.3932      0.4408      0.0000      0.3489      0.2875
        41         0.0581      0.0304     -0.0000      0.0043      0.0037
        42        -0.0304      0.0581      0.0000      0.0043      0.0037
        43         0.0000      0.0000      0.0936      0.0088      0.0076
        44         0.0000      0.0000     -0.1106      0.0122      0.0112
        45        -0.0044      0.0039      0.0000      0.0000      0.0000
        46        -0.0039     -0.0044     -0.0000      0.0000      0.0000
        47         0.0515     -0.0737      0.0000      0.0081      0.0075
        48        -0.0737     -0.0515     -0.0000      0.0081      0.0075
        49        -0.0000      0.0000      0.1214      0.0147      0.0148
        50        -0.0000      0.0000     -0.0509      0.0026      0.0027
        51        -0.0000     -0.0000      0.0000      0.0000      0.0000
        52        -0.0000      0.0000     -0.0000      0.0000      0.0000
        53         0.0000      0.0000     -0.0000      0.0000      0.0000
        54        -0.0000     -0.0000     -0.0000      0.0000      0.0000
        55        -0.0000     -0.0000      0.0000      0.0000      0.0000
        56        -0.0000     -0.0000     -0.0147      0.0002      0.0003
        57        -0.0033      0.0015      0.0000      0.0000      0.0000
        58        -0.0015     -0.0033     -0.0000      0.0000      0.0000
        59         0.0288      0.0925     -0.0000      0.0094      0.0116
        60         0.0925     -0.0288     -0.0000      0.0094      0.0116
        61         0.0546      0.1717      0.0000      0.0324      0.0403
        62         0.1717     -0.0546      0.0000      0.0324      0.0403
        63         0.0000     -0.0000      0.2588      0.0670      0.0843
        64        -0.0000     -0.0000     -0.1042      0.0109      0.0155
        65         0.0000      0.0000      0.0000      0.0000      0.0000
        66         0.0000     -0.0000     -0.0000      0.0000      0.0000
        67        -0.0000      0.0000      0.0000      0.0000      0.0000
        68         0.0000     -0.0000     -0.2633      0.0693      0.1011
        69         0.0000      0.0000     -0.1576      0.0248      0.0370
        70        -0.0277     -0.0926     -0.0000      0.0093      0.0142
        71        -0.0926      0.0277     -0.0000      0.0093      0.0142
        72        -0.0201     -0.3067     -0.0000      0.0944      0.1472
        73        -0.3067      0.0201     -0.0000      0.0944      0.1472
        74        -0.1990     -0.2889     -0.0000      0.1230      0.2000
        75        -0.2889      0.1990      0.0000      0.1230      0.2000
        76        -0.0000     -0.0000      0.1103      0.0122      0.0199
        77         0.0000     -0.0000     -0.2057      0.0423      0.0760
        78        -0.0754     -0.0675      0.0000      0.0102      0.0184
        79         0.0675     -0.0754      0.0000      0.0102      0.0184
        80         0.0000      0.0000      0.1074      0.0115      0.0222
        81        -0.0004     -0.0264     -0.0000      0.0007      0.0014
        82        -0.0264      0.0004      0.0000      0.0007      0.0014
        83        -0.0000     -0.0000     -0.1338      0.0179      0.0373
        84        -0.0000      0.0000      0.0899      0.0081      0.0188
        85        -0.0000      0.0000      0.0000      0.0000      0.0000
        86        -0.0000     -0.0000     -0.0000      0.0000      0.0000
        87        -0.0000     -0.0000     -0.0000      0.0000      0.0000
        88        -0.0000      0.0000     -0.0000      0.0000      0.0000
        89         0.1045     -0.3114      0.0000      0.1079      0.2694
        90         0.3114      0.1045      0.0000      0.1079      0.2694
        91        -0.0000      0.0000      0.0000      0.0000      0.0000
        92        -0.0000      0.0000      0.0000      0.0000      0.0000
        93         0.0000     -0.0000      0.0000      0.0000      0.0000
        94         0.0000     -0.0000      0.4569      0.2088      0.5549
        95         0.4814     -0.0851     -0.0000      0.2390      0.6493
        96         0.0851      0.4814      0.0000      0.2390      0.6493
        97        -0.0000      0.0000     -0.0000      0.0000      0.0000
        98        -0.0000      0.0000      0.0000      0.0000      0.0000
        99         0.0466      0.0336      0.0000      0.0033      0.0101
       100        -0.0336      0.0466      0.0000      0.0033      0.0101
       101         0.0011     -0.1893      0.0000      0.0358      0.1128
       102        -0.1893     -0.0011     -0.0000      0.0358      0.1128
       103        -0.0000      0.0000      0.2653      0.0704      0.2311
       104         0.0000      0.0000     -0.0062      0.0000      0.0001
 Ground to excited state transition velocity dipole moments (Au):
       state          X           Y           Z        Dip. S.      Osc.
         1        -0.1363      0.0243      0.0000      0.0192      0.0335
         2        -0.0243     -0.1363     -0.0000      0.0192      0.0335
         3         0.0000     -0.0000     -0.3243      0.1052      0.1344
         4        -0.0000      0.0000     -0.0000      0.0000      0.0000
         5        -0.1500      0.0294      0.0000      0.0234      0.0295
         6        -0.0294     -0.1500      0.0000      0.0234      0.0295
         7         0.0000     -0.0000      0.0000      0.0000      0.0000
         8         0.0000     -0.0000     -0.0000      0.0000      0.0000
         9         0.0000      0.0000      0.1241      0.0154      0.0174
        10        -0.2214     -0.0882      0.0000      0.0568      0.0631
        11         0.0882     -0.2214      0.0000      0.0568      0.0631
        12        -0.0000      0.0000      0.0000      0.0000      0.0000
        13        -0.0000      0.0000      0.0000      0.0000      0.0000
        14        -0.0000     -0.0000     -0.0000      0.0000      0.0000
        15        -0.0000      0.0000      0.4363      0.1903      0.1984
        16         0.0120      0.0006      0.0000      0.0001      0.0001
        17        -0.0006      0.0120      0.0000      0.0001      0.0001
        18         0.0000      0.0000     -0.1324      0.0175      0.0170
        19        -0.0987     -0.0554     -0.0000      0.0128      0.0117
        20         0.0554     -0.0987     -0.0000      0.0128      0.0117
        21        -0.0518      0.3010     -0.0000      0.0933      0.0811
        22         0.3010      0.0518      0.0000      0.0933      0.0811
        23         0.0000      0.0000      0.3740      0.1399      0.1213
        24         0.0000      0.0000     -0.3183      0.1013      0.0761
        25        -0.0000      0.0000     -0.0000      0.0000      0.0000
        26        -0.0000     -0.0000     -0.0000      0.0000      0.0000
        27        -0.7886     -0.0022      0.0000      0.6219      0.4405
        28         0.0022     -0.7886     -0.0000      0.6219      0.4405
        29        -0.5202     -0.1185      0.0000      0.2847      0.1871
        30         0.1185     -0.5202     -0.0000      0.2847      0.1871
        31        -0.0000     -0.0000      0.0000      0.0000      0.0000
        32         0.0000      0.0000     -0.0000      0.0000      0.0000
        33        -0.0000      0.0000      0.0000      0.0000      0.0000
        34         0.0000      0.0000     -0.0000      0.0000      0.0000
        35        -0.0000     -0.0000      0.0000      0.0000      0.0000
        36         0.0000     -0.0000     -0.5395      0.2911      0.1752
        37        -0.0000      0.0000     -0.3662      0.1341      0.0769
        38        -0.0000      0.0000      1.0042      1.0083      0.5619
        39        -0.5623     -0.5015      0.0000      0.5676      0.3062
        40         0.5015     -0.5623     -0.0000      0.5676      0.3062
        41        -0.1035     -0.0542      0.0000      0.0137      0.0070
        42         0.0542     -0.1035     -0.0000      0.0137      0.0070
        43        -0.0000     -0.0000     -0.1293      0.0167      0.0085
        44         0.0000     -0.0000      0.1203      0.0145      0.0071
        45        -0.0065      0.0058     -0.0000      0.0001      0.0000
        46        -0.0058     -0.0065      0.0000      0.0001      0.0000
        47        -0.0771      0.1103     -0.0000      0.0181      0.0086
        48         0.1103      0.0771     -0.0000      0.0181      0.0086
        49         0.0000     -0.0000     -0.1701      0.0289      0.0128
        50        -0.0000      0.0000      0.0595      0.0035      0.0015
        51         0.0000     -0.0000     -0.0000      0.0000      0.0000
        52         0.0000     -0.0000      0.0000      0.0000      0.0000
        53        -0.0000     -0.0000      0.0000      0.0000      0.0000
        54         0.0000      0.0000      0.0000      0.0000      0.0000
        55         0.0000      0.0000     -0.0000      0.0000      0.0000
        56         0.0000      0.0000      0.0040      0.0000      0.0000
        57        -0.0190      0.0088      0.0000      0.0004      0.0002
        58        -0.0088     -0.0190      0.0000      0.0004      0.0002
        59        -0.0640     -0.2054      0.0000      0.0463      0.0167
        60        -0.2054      0.0640     -0.0000      0.0463      0.0167
        61        -0.1153     -0.3628     -0.0000      0.1449      0.0519
        62        -0.3628      0.1153      0.0000      0.1449      0.0519
        63        -0.0000      0.0000     -0.5143      0.2645      0.0934
        64         0.0000      0.0000      0.2853      0.0814      0.0254
        65        -0.0000     -0.0000     -0.0000      0.0000      0.0000
        66        -0.0000      0.0000      0.0000      0.0000      0.0000
        67         0.0000     -0.0000     -0.0000      0.0000      0.0000
        68        -0.0000      0.0000      0.5281      0.2789      0.0850
        69        -0.0000     -0.0000      0.2834      0.0803      0.0240
        70         0.0696      0.2321      0.0000      0.0587      0.0172
        71         0.2321     -0.0696      0.0000      0.0587      0.0172
        72         0.0425      0.6499      0.0000      0.4242      0.1209
        73         0.6499     -0.0425      0.0000      0.4242      0.1209
        74         0.5177      0.7517      0.0000      0.8331      0.2278
        75         0.7517     -0.5177      0.0000      0.8331      0.2278
        76         0.0000      0.0000     -0.2630      0.0692      0.0188
        77        -0.0000      0.0000      0.5782      0.3343      0.0827
        78         0.1501      0.1344     -0.0000      0.0406      0.0100
        79        -0.1344      0.1501     -0.0000      0.0406      0.0100
        80        -0.0000     -0.0000     -0.2950      0.0870      0.0201
        81         0.0002      0.0153      0.0000      0.0002      0.0001
        82         0.0153     -0.0002     -0.0000      0.0002      0.0001
        83        -0.0000      0.0000      0.4190      0.1755      0.0374
        84         0.0000     -0.0000     -0.3631      0.1319      0.0252
        85         0.0000     -0.0000     -0.0000      0.0000      0.0000
        86         0.0000      0.0000     -0.0000      0.0000      0.0000
        87         0.0000      0.0000     -0.0000      0.0000      0.0000
        88         0.0000     -0.0000     -0.0000      0.0000      0.0000
        89        -0.3448      1.0271     -0.0000      1.1738      0.2089
        90        -1.0271     -0.3448     -0.0000      1.1738      0.2089
        91         0.0000     -0.0000      0.0000      0.0000      0.0000
        92         0.0000     -0.0000     -0.0000      0.0000      0.0000
        93        -0.0000      0.0000     -0.0000      0.0000      0.0000
        94        -0.0000      0.0000     -1.6403      2.6905      0.4500
        95        -1.7364      0.3069      0.0000      3.1092      0.5086
        96        -0.3069     -1.7364     -0.0000      3.1092      0.5086
        97         0.0000     -0.0000      0.0000      0.0000      0.0000
        98         0.0000     -0.0000      0.0000      0.0000      0.0000
        99        -0.1924     -0.1386     -0.0000      0.0562      0.0082
       100         0.1386     -0.1924     -0.0000      0.0562      0.0082
       101        -0.0047      0.8328     -0.0000      0.6937      0.0979
       102         0.8328      0.0047      0.0000      0.6937      0.0979
       103         0.0000     -0.0000     -1.2102      1.4645      0.1983
       104        -0.0000     -0.0000     -0.0011      0.0000      0.0000
 Ground to excited state transition magnetic dipole moments (Au):
       state          X           Y           Z
         1         0.0189      0.1059     -0.0000
         2        -0.1059      0.0189      0.0000
         3        -0.0000     -0.0000      0.0000
         4        -0.0000      0.0000     -0.0000
         5         0.0011      0.0055      0.0000
         6        -0.0055      0.0011     -0.0000
         7         0.0000     -0.0000     -0.0000
         8         0.0000     -0.0000      0.0000
         9        -0.0000     -0.0000     -0.0000
        10         0.0561     -0.1409      0.0000
        11         0.1409      0.0561     -0.0000
        12        -0.0000      0.0000     -0.0000
        13         0.0000     -0.0000     -0.0000
        14         0.0000      0.0000      0.0000
        15        -0.0000     -0.0000     -0.0000
        16         0.0027     -0.0567     -0.0000
        17         0.0567      0.0027     -0.0000
        18        -0.0000     -0.0000     -0.0000
        19        -0.0374      0.0667     -0.0000
        20        -0.0667     -0.0374     -0.0000
        21         0.1795      0.0309     -0.0000
        22         0.0309     -0.1795     -0.0000
        23         0.0000     -0.0000      0.0000
        24         0.0000      0.0000     -0.0000
        25         0.0000      0.0000      0.0000
        26        -0.0000      0.0000      0.0000
        27         0.0001     -0.0376     -0.0000
        28         0.0376      0.0001     -0.0000
        29         0.0350     -0.1537      0.0000
        30         0.1537      0.0350     -0.0000
        31        -0.0000      0.0000      0.0000
        32        -0.0000      0.0000     -0.0000
        33        -0.0000     -0.0000     -0.0000
        34         0.0000      0.0000      0.0000
        35        -0.0000     -0.0000      0.0000
        36         0.0000      0.0000     -0.0000
        37        -0.0000     -0.0000      0.0000
        38        -0.0000     -0.0000     -0.0000
        39        -0.0489      0.0549     -0.0000
        40        -0.0549     -0.0489      0.0000
        41        -0.0047      0.0089      0.0000
        42        -0.0089     -0.0047     -0.0000
        43        -0.0000      0.0000     -0.0000
        44         0.0000      0.0000      0.0000
        45        -0.0151     -0.0170     -0.0000
        46         0.0170     -0.0151      0.0000
        47         0.0861      0.0602      0.0000
        48         0.0602     -0.0861      0.0000
        49        -0.0000     -0.0000     -0.0000
        50        -0.0000     -0.0000      0.0000
        51         0.0000      0.0000     -0.0000
        52        -0.0000      0.0000      0.0000
        53         0.0000     -0.0000      0.0000
        54        -0.0000     -0.0000      0.0000
        55        -0.0000      0.0000      0.0000
        56         0.0000     -0.0000     -0.0000
        57        -0.0720     -0.1562      0.0000
        58         0.1562     -0.0720      0.0000
        59         0.0987     -0.0308     -0.0000
        60        -0.0308     -0.0987     -0.0000
        61        -0.0042      0.0013      0.0000
        62         0.0013      0.0042      0.0000
        63         0.0000      0.0000      0.0000
        64        -0.0000     -0.0000     -0.0000
        65         0.0000      0.0000     -0.0000
        66        -0.0000      0.0000      0.0000
        67         0.0000      0.0000     -0.0000
        68         0.0000      0.0000     -0.0000
        69         0.0000     -0.0000      0.0000
        70        -0.1435      0.0430     -0.0000
        71         0.0430      0.1435      0.0000
        72         0.2758     -0.0180      0.0000
        73        -0.0180     -0.2758     -0.0000
        74        -0.0577      0.0398      0.0000
        75         0.0398      0.0577      0.0000
        76        -0.0000     -0.0000     -0.0000
        77        -0.0000     -0.0000     -0.0000
        78        -0.0686      0.0766      0.0000
        79        -0.0766     -0.0686      0.0000
        80         0.0000      0.0000     -0.0000
        81         0.2099     -0.0031      0.0000
        82        -0.0031     -0.2099      0.0000
        83        -0.0000     -0.0000      0.0000
        84         0.0000      0.0000     -0.0000
        85        -0.0000     -0.0000     -0.0000
        86         0.0000     -0.0000      0.0000
        87        -0.0000      0.0000      0.0000
        88         0.0000      0.0000     -0.0000
        89        -0.1332     -0.0447      0.0000
        90         0.0447     -0.1332      0.0000
        91         0.0000      0.0000      0.0000
        92         0.0000      0.0000     -0.0000
        93        -0.0000     -0.0000      0.0000
        94        -0.0000     -0.0000     -0.0000
        95        -0.0496     -0.2808     -0.0000
        96         0.2808     -0.0496     -0.0000
        97         0.0000      0.0000      0.0000
        98         0.0000      0.0000     -0.0000
        99         0.0105     -0.0145      0.0000
       100         0.0145      0.0105      0.0000
       101        -0.1016     -0.0006     -0.0000
       102        -0.0006      0.1016     -0.0000
       103         0.0000      0.0000      0.0000
       104         0.0000     -0.0000      0.0000
 Ground to excited state transition velocity quadrupole moments (Au):
       state          XX          YY          ZZ          XY          XZ          YZ
         1        -0.0000     -0.0000     -0.0000      0.0000      0.0745     -0.0133
         2         0.0000     -0.0000     -0.0000     -0.0000      0.0133      0.0745
         3        -0.2758     -0.2758      0.4562     -0.0000     -0.0000      0.0000
         4         0.0000     -0.0000      0.0000     -0.0000     -0.0000      0.0000
         5         0.0000     -0.0000     -0.0000     -0.0000     -0.2987      0.0586
         6         0.0000     -0.0000     -0.0000     -0.0000     -0.0586     -0.2987
         7         0.0000     -0.0000      0.0000     -0.4736      0.0000      0.0000
         8         0.4736     -0.4736     -0.0000      0.0000      0.0000     -0.0000
         9        -0.7109     -0.7109     -0.1867      0.0000      0.0000      0.0000
        10         0.0000     -0.0000     -0.0000      0.0000      0.0358      0.0143
        11        -0.0000      0.0000      0.0000      0.0000     -0.0143      0.0358
        12         0.0000     -0.0000     -0.0000      0.0000      0.0000      0.0000
        13        -0.0457      0.0457     -0.0000     -0.0000      0.0000     -0.0000
        14        -0.0000      0.0000      0.0000      0.0457      0.0000     -0.0000
        15         0.0773      0.0773     -0.1475      0.0000      0.0000      0.0000
        16        -0.0000      0.0000     -0.0000     -0.0000     -0.3887     -0.0186
        17        -0.0000      0.0000     -0.0000     -0.0000      0.0186     -0.3887
        18        -0.5134     -0.5134     -0.8298      0.0000      0.0000      0.0000
        19         0.0000     -0.0000      0.0000     -0.0000      0.1217      0.0683
        20        -0.0000      0.0000      0.0000     -0.0000     -0.0683      0.1217
        21         0.0000      0.0000      0.0000      0.0000      0.0511     -0.2972
        22         0.0000     -0.0000     -0.0000      0.0000     -0.2972     -0.0511
        23        -0.2321     -0.2321     -0.8078     -0.0000     -0.0000     -0.0000
        24         0.2792      0.2792      0.3997      0.0000      0.0000     -0.0000
        25        -0.0000      0.0000      0.0000     -0.0000      0.0000     -0.0000
        26         0.0000     -0.0000      0.0000     -0.0000      0.0000      0.0000
        27        -0.0000     -0.0000     -0.0000      0.0000     -0.1015     -0.0003
        28         0.0000     -0.0000     -0.0000     -0.0000      0.0003     -0.1015
        29        -0.0000      0.0000     -0.0000     -0.0000      0.1172      0.0267
        30        -0.0000      0.0000     -0.0000     -0.0000     -0.0267      0.1172
        31        -0.1980      0.1980      0.0000      0.0000      0.0000     -0.0000
        32        -0.0000      0.0000     -0.0000     -0.1980      0.0000      0.0000
        33         0.0000     -0.0000      0.0000      0.0000      0.0000     -0.0000
        34         0.0056     -0.0056     -0.0000     -0.0000     -0.0000      0.0000
        35        -0.0000      0.0000      0.0000     -0.0056     -0.0000     -0.0000
        36         0.1057      0.1057     -0.0741      0.0000      0.0000     -0.0000
        37         0.3184      0.3184      0.6578     -0.0000      0.0000      0.0000
        38         0.0839      0.0839      1.1726      0.0000     -0.0000      0.0000
        39        -0.0000      0.0000      0.0000      0.0000     -0.3694     -0.3295
        40         0.0000     -0.0000      0.0000      0.0000      0.3295     -0.3694
        41        -0.0000     -0.0000     -0.0000      0.0000     -0.2618     -0.1371
        42        -0.0000     -0.0000     -0.0000     -0.0000      0.1371     -0.2618
        43         0.2440      0.2440      0.0855      0.0000     -0.0000     -0.0000
        44         0.4458      0.4458     -0.7502      0.0000      0.0000     -0.0000
        45         0.0000     -0.0000      0.0000     -0.0000      0.3934     -0.3504
        46         0.0000     -0.0000     -0.0000     -0.0000      0.3504      0.3934
        47         0.0000     -0.0000      0.0000     -0.0000      0.1754     -0.2507
        48         0.0000      0.0000     -0.0000      0.0000     -0.2507     -0.1754
        49         0.3411      0.3411      0.2690      0.0000     -0.0000      0.0000
        50         0.4899      0.4899     -1.1862      0.0000      0.0000      0.0000
        51         0.0000     -0.0000      0.0000     -0.0000      0.0000     -0.0000
        52         0.0000     -0.0000     -0.0000     -0.7183      0.0000      0.0000
        53        -0.7183      0.7183     -0.0000     -0.0000      0.0000     -0.0000
        54        -0.0000      0.0000      0.0000      0.7628      0.0000     -0.0000
        55         0.7628     -0.7628      0.0000      0.0000     -0.0000      0.0000
        56         0.5481      0.5481     -0.6717      0.0000     -0.0000     -0.0000
        57        -0.0000      0.0000      0.0000     -0.0000     -0.4256      0.1962
        58         0.0000     -0.0000     -0.0000     -0.0000     -0.1962     -0.4256
        59        -0.0000      0.0000     -0.0000      0.0000     -0.2743     -0.8801
        60         0.0000     -0.0000     -0.0000      0.0000     -0.8801      0.2743
        61         0.0000     -0.0000      0.0000     -0.0000      0.0737      0.2318
        62         0.0000     -0.0000      0.0000     -0.0000      0.2318     -0.0737
        63         0.2556      0.2556      0.7968      0.0000      0.0000     -0.0000
        64         0.4261      0.4261      1.1734      0.0000     -0.0000      0.0000
        65        -0.0000      0.0000      0.0000      0.0000      0.0000     -0.0000
        66        -0.3979      0.3979     -0.0000     -0.0000      0.0000     -0.0000
        67        -0.0000      0.0000      0.0000      0.3979      0.0000     -0.0000
        68         0.0312      0.0312     -1.2715      0.0000      0.0000     -0.0000
        69         1.0384      1.0384     -0.0153     -0.0000     -0.0000      0.0000
        70         0.0000      0.0000      0.0000      0.0000     -0.0364     -0.1213
        71         0.0000      0.0000      0.0000     -0.0000     -0.1213      0.0364
        72         0.0000      0.0000      0.0000     -0.0000     -0.0694     -1.0613
        73         0.0000      0.0000     -0.0000      0.0000     -1.0613      0.0694
        74         0.0000      0.0000     -0.0000     -0.0000     -0.0463     -0.0672
        75        -0.0000     -0.0000      0.0000     -0.0000     -0.0672      0.0463
        76        -0.6477     -0.6477      0.3628     -0.0000     -0.0000     -0.0000
        77         0.8947      0.8947      1.1817      0.0000     -0.0000      0.0000
        78        -0.0000     -0.0000     -0.0000     -0.0000      0.0403      0.0361
        79        -0.0000     -0.0000     -0.0000     -0.0000     -0.0361      0.0403
        80         0.2012      0.2012     -0.4900      0.0000      0.0000     -0.0000
        81         0.0000     -0.0000      0.0000     -0.0000     -0.0097     -0.6512
        82        -0.0000      0.0000     -0.0000     -0.0000     -0.6512      0.0097
        83        -1.1842     -1.1842     -0.0859     -0.0000     -0.0000      0.0000
        84        -0.1050     -0.1050      0.3654      0.0000      0.0000     -0.0000
        85        -0.0000      0.0000      0.0000      0.0000     -0.0000      0.0000
        86         0.0000     -0.0000      0.0000     -0.0000     -0.0000     -0.0000
        87        -0.0000      0.0000     -0.0000     -0.2064     -0.0000     -0.0000
        88        -0.2064      0.2064      0.0000      0.0000     -0.0000      0.0000
        89        -0.0000      0.0000      0.0000      0.0000      0.0406     -0.1208
        90        -0.0000      0.0000     -0.0000     -0.0000      0.1208      0.0406
        91         0.0000     -0.0000      0.0000      0.0000     -0.0000      0.0000
        92        -0.0000      0.0000     -0.0000      0.0540     -0.0000      0.0000
        93        -0.0540      0.0540     -0.0000     -0.0000      0.0000      0.0000
        94         0.0968      0.0968     -0.8888      0.0000     -0.0000      0.0000
        95         0.0000     -0.0000      0.0000      0.0000     -0.7505      0.1326
        96        -0.0000      0.0000      0.0000      0.0000     -0.1326     -0.7505
        97         0.8016     -0.8016      0.0000     -0.0000      0.0000     -0.0000
        98         0.0000     -0.0000     -0.0000      0.8016      0.0000      0.0000
        99         0.0000     -0.0000     -0.0000     -0.0000      0.4227      0.3046
       100        -0.0000      0.0000     -0.0000     -0.0000     -0.3046      0.4227
       101         0.0000     -0.0000     -0.0000      0.0000     -0.0022      0.3891
       102        -0.0000      0.0000      0.0000      0.0000      0.3891      0.0022
       103         0.1967      0.1967     -1.0758     -0.0000      0.0000     -0.0000
       104        -0.2098     -0.2098      0.3600     -0.0000     -0.0000      0.0000
 <0|del|b> * <b|rxdel|0> + <0|del|b> * <b|delr+rdel|0>
 Rotatory Strengths (R) in cgs (10**-40 erg-esu-cm/Gauss)
       state          XX          YY          ZZ    R(velocity)    E-M Angle
         1         0.7045     -0.7045     -0.0000     -0.0000       90.00
         2        -0.7045      0.7045      0.0000      0.0000       90.00
         3         0.0000     -0.0000      0.0000     -0.0000       90.00
         4         0.0000     -0.0000      0.0000      0.0000       90.00
         5         5.9904     -5.9904      0.0000     -0.0000       90.00
         6        -5.9904      5.9904     -0.0000     -0.0000       90.00
         7        -0.0000      0.0000     -0.0000      0.0000       90.00
         8        -0.0000      0.0000     -0.0000      0.0000       90.00
         9         0.0000     -0.0000     -0.0000     -0.0000       90.00
        10         9.1844     -9.1844     -0.0000      0.0000       90.00
        11        -9.1844      9.1844      0.0000      0.0000       90.00
        12         0.0000     -0.0000      0.0000      0.0000       90.00
        13        -0.0000      0.0000     -0.0000     -0.0000       90.00
        14        -0.0000      0.0000     -0.0000     -0.0000       90.00
        15         0.0000     -0.0000      0.0000      0.0000       90.00
        16         0.1023     -0.1023     -0.0000     -0.0000       90.00
        17        -0.1023      0.1023      0.0000      0.0000       90.00
        18        -0.0000      0.0000     -0.0000     -0.0000       90.00
        19         1.4789     -1.4789      0.0000      0.0000       90.00
        20        -1.4789      1.4789     -0.0000     -0.0000       90.00
        21        -2.8122      2.8122      0.0000      0.0000       90.00
        22         2.8122     -2.8122      0.0000      0.0000       90.00
        23        -0.0000      0.0000      0.0000      0.0000       90.00
        24        -0.0000      0.0000      0.0000      0.0000       90.00
        25        -0.0000      0.0000      0.0000     -0.0000       90.00
        26         0.0000     -0.0000      0.0000      0.0000       90.00
        27        -0.0523      0.0523      0.0000     -0.0000       90.00
        28         0.0523     -0.0523      0.0000      0.0000       90.00
        29        11.1927    -11.1927      0.0000     -0.0000       90.00
        30       -11.1927     11.1927     -0.0000      0.0000       90.00
        31         0.0000     -0.0000     -0.0000     -0.0000       90.00
        32         0.0000     -0.0000     -0.0000     -0.0000       90.00
        33        -0.0000      0.0000     -0.0000      0.0000       90.00
        34         0.0000     -0.0000     -0.0000      0.0000       90.00
        35        -0.0000      0.0000      0.0000      0.0000       90.00
        36        -0.0000      0.0000     -0.0000      0.0000       90.00
        37         0.0000     -0.0000      0.0000     -0.0000       90.00
        38         0.0000     -0.0000     -0.0000     -0.0000       90.00
        39       -60.8741     60.8741     -0.0000     -0.0000       90.00
        40        60.8741    -60.8741     -0.0000      0.0000       90.00
        41        -3.9792      3.9792      0.0000      0.0000       90.00
        42         3.9792     -3.9792      0.0000      0.0000       90.00
        43        -0.0000      0.0000      0.0000      0.0000       90.00
        44         0.0000     -0.0000     -0.0000     -0.0000       90.00
        45        -0.6062      0.6062      0.0000     -0.0000       90.00
        46         0.6062     -0.6062     -0.0000      0.0000       90.00
        47        -3.2134      3.2134      0.0000     -0.0000       90.00
        48         3.2134     -3.2134     -0.0000      0.0000       90.00
        49        -0.0000      0.0000     -0.0000     -0.0000       90.00
        50         0.0000     -0.0000      0.0000      0.0000       90.00
        51         0.0000     -0.0000     -0.0000     -0.0000       90.00
        52        -0.0000      0.0000     -0.0000     -0.0000       90.00
        53        -0.0000      0.0000     -0.0000     -0.0000       90.00
        54         0.0000     -0.0000      0.0000     -0.0000       90.00
        55        -0.0000      0.0000     -0.0000     -0.0000       90.00
        56         0.0000     -0.0000      0.0000      0.0000       90.00
        57         0.4674     -0.4674     -0.0000     -0.0000       90.00
        58        -0.4674      0.4674     -0.0000     -0.0000       90.00
        59        -9.5543      9.5543      0.0000      0.0000       90.00
        60         9.5543     -9.5543     -0.0000     -0.0000       90.00
        61         4.9804     -4.9804      0.0000      0.0000       90.00
        62        -4.9804      4.9804     -0.0000     -0.0000       90.00
        63        -0.0000      0.0000      0.0000     -0.0000       90.00
        64         0.0000     -0.0000     -0.0000     -0.0000       90.00
        65        -0.0000      0.0000     -0.0000     -0.0000       90.00
        66        -0.0000      0.0000      0.0000      0.0000       90.00
        67        -0.0000      0.0000      0.0000      0.0000       90.00
        68         0.0000     -0.0000      0.0000     -0.0000       90.00
        69        -0.0000      0.0000      0.0000      0.0000       90.00
        70         2.8557     -2.8557      0.0000      0.0000       90.00
        71        -2.8557      2.8557     -0.0000     -0.0000       90.00
        72         5.0505     -5.0505      0.0000      0.0000       90.00
        73        -5.0505      5.0505     -0.0000     -0.0000       90.00
        74         9.3783     -9.3783      0.0000      0.0000       90.00
        75        -9.3783      9.3783     -0.0000     -0.0000       90.00
        76         0.0000     -0.0000     -0.0000     -0.0000       90.00
        77         0.0000     -0.0000     -0.0000     -0.0000       90.00
        78         0.6401     -0.6401     -0.0000      0.0000       90.00
        79        -0.6401      0.6401      0.0000     -0.0000       90.00
        80        -0.0000      0.0000     -0.0000      0.0000       90.00
        81         0.0121     -0.0121      0.0000      0.0000       90.00
        82        -0.0121      0.0121     -0.0000     -0.0000       90.00
        83        -0.0000      0.0000     -0.0000     -0.0000       90.00
        84        -0.0000      0.0000      0.0000      0.0000       90.00
        85        -0.0000      0.0000     -0.0000     -0.0000       90.00
        86         0.0000     -0.0000      0.0000      0.0000       90.00
        87         0.0000     -0.0000      0.0000      0.0000       90.00
        88        -0.0000      0.0000     -0.0000      0.0000       90.00
        89        -8.2673      8.2673      0.0000      0.0000       90.00
        90         8.2673     -8.2673     -0.0000     -0.0000       90.00
        91        -0.0000      0.0000     -0.0000     -0.0000       90.00
        92        -0.0000      0.0000     -0.0000      0.0000       90.00
        93         0.0000     -0.0000      0.0000      0.0000       90.00
        94        -0.0000      0.0000     -0.0000     -0.0000       90.00
        95        12.5046    -12.5046      0.0000      0.0000       90.00
        96       -12.5046     12.5046     -0.0000     -0.0000       90.00
        97        -0.0000      0.0000      0.0000     -0.0000       90.00
        98         0.0000     -0.0000     -0.0000     -0.0000       90.00
        99         4.6684     -4.6684     -0.0000     -0.0000       90.00
       100        -4.6684      4.6684     -0.0000      0.0000       90.00
       101         0.1009     -0.1009      0.0000      0.0000       90.00
       102        -0.1009      0.1009      0.0000      0.0000       90.00
       103         0.0000     -0.0000      0.0000     -0.0000       90.00
       104         0.0000     -0.0000      0.0000      0.0000       90.00
 1/2[<0|r|b>*<b|rxdel|0> + (<0|rxdel|b>*<b|r|0>)*]
 Rotatory Strengths (R) in cgs (10**-40 erg-esu-cm/Gauss)
       state          XX          YY          ZZ     R(length)
         1        -4.7814      4.7814     -0.0000     -0.0000
         2         4.7814     -4.7814      0.0000      0.0000
         3         0.0000     -0.0000     -0.0000     -0.0000
         4         0.0000      0.0000      0.0000      0.0000
         5        -0.2024      0.2024     -0.0000     -0.0000
         6         0.2024     -0.2024      0.0000     -0.0000
         7         0.0000     -0.0000     -0.0000      0.0000
         8         0.0000      0.0000     -0.0000      0.0000
         9        -0.0000      0.0000     -0.0000     -0.0000
        10       -15.5253     15.5253      0.0000     -0.0000
        11        15.5253    -15.5253     -0.0000      0.0000
        12         0.0000      0.0000     -0.0000      0.0000
        13         0.0000      0.0000     -0.0000      0.0000
        14        -0.0000     -0.0000     -0.0000     -0.0000
        15        -0.0000      0.0000     -0.0000     -0.0000
        16         0.0023     -0.0023     -0.0000     -0.0000
        17        -0.0023      0.0023     -0.0000      0.0000
        18        -0.0000      0.0000      0.0000     -0.0000
        19         2.9676     -2.9676     -0.0000      0.0000
        20        -2.9676      2.9676      0.0000     -0.0000
        21        -8.4438      8.4438      0.0000      0.0000
        22         8.4438     -8.4438     -0.0000     -0.0000
        23         0.0000     -0.0000      0.0000      0.0000
        24         0.0000     -0.0000      0.0000      0.0000
        25        -0.0000      0.0000     -0.0000     -0.0000
        26         0.0000     -0.0000     -0.0000      0.0000
        27        -0.0618      0.0618     -0.0000     -0.0000
        28         0.0618     -0.0618      0.0000      0.0000
        29       -12.3702     12.3702      0.0000     -0.0000
        30        12.3702    -12.3702      0.0000      0.0000
        31        -0.0000      0.0000      0.0000      0.0000
        32        -0.0000      0.0000      0.0000     -0.0000
        33         0.0000     -0.0000     -0.0000      0.0000
        34        -0.0000     -0.0000     -0.0000     -0.0000
        35         0.0000      0.0000      0.0000      0.0000
        36         0.0000     -0.0000      0.0000      0.0000
        37         0.0000     -0.0000     -0.0000     -0.0000
        38         0.0000     -0.0000     -0.0000     -0.0000
        39        15.2587    -15.2587     -0.0000     -0.0000
        40       -15.2587     15.2587     -0.0000      0.0000
        41         0.1924     -0.1924      0.0000     -0.0000
        42        -0.1924      0.1924      0.0000      0.0000
        43         0.0000     -0.0000      0.0000      0.0000
        44        -0.0000     -0.0000      0.0000     -0.0000
        45        -0.0472      0.0472      0.0000     -0.0000
        46         0.0472     -0.0472      0.0000      0.0000
        47        -3.1379      3.1379     -0.0000     -0.0000
        48         3.1379     -3.1379      0.0000      0.0000
        49        -0.0000      0.0000      0.0000      0.0000
        50        -0.0000      0.0000      0.0000     -0.0000
        51         0.0000      0.0000      0.0000      0.0000
        52        -0.0000     -0.0000      0.0000     -0.0000
        53        -0.0000      0.0000      0.0000     -0.0000
        54        -0.0000     -0.0000      0.0000     -0.0000
        55        -0.0000      0.0000     -0.0000     -0.0000
        56         0.0000     -0.0000     -0.0000      0.0000
        57        -0.1660      0.1660     -0.0000     -0.0000
        58         0.1660     -0.1660      0.0000     -0.0000
        59        -2.0125      2.0125     -0.0000      0.0000
        60         2.0125     -2.0125     -0.0000     -0.0000
        61         0.1632     -0.1632     -0.0000      0.0000
        62        -0.1632      0.1632     -0.0000     -0.0000
        63        -0.0000      0.0000     -0.0000     -0.0000
        64        -0.0000     -0.0000     -0.0000     -0.0000
        65        -0.0000     -0.0000      0.0000     -0.0000
        66         0.0000      0.0000      0.0000      0.0000
        67         0.0000     -0.0000      0.0000      0.0000
        68        -0.0000      0.0000     -0.0000     -0.0000
        69        -0.0000      0.0000      0.0000      0.0000
        70        -2.8161      2.8161     -0.0000      0.0000
        71         2.8161     -2.8161      0.0000     -0.0000
        72         3.9132     -3.9132      0.0000      0.0000
        73        -3.9132      3.9132     -0.0000     -0.0000
        74        -8.1225      8.1225      0.0000      0.0000
        75         8.1225     -8.1225     -0.0000     -0.0000
        76        -0.0000     -0.0000      0.0000     -0.0000
        77         0.0000     -0.0000     -0.0000     -0.0000
        78        -3.6587      3.6587     -0.0000     -0.0000
        79         3.6587     -3.6587     -0.0000     -0.0000
        80        -0.0000     -0.0000      0.0000      0.0000
        81         0.0585     -0.0585      0.0000      0.0000
        82        -0.0585      0.0585     -0.0000     -0.0000
        83        -0.0000     -0.0000      0.0000     -0.0000
        84         0.0000     -0.0000      0.0000      0.0000
        85        -0.0000      0.0000      0.0000     -0.0000
        86         0.0000     -0.0000      0.0000      0.0000
        87        -0.0000      0.0000      0.0000     -0.0000
        88         0.0000     -0.0000     -0.0000      0.0000
        89         9.8491     -9.8491     -0.0000      0.0000
        90        -9.8491      9.8491     -0.0000     -0.0000
        91         0.0000     -0.0000     -0.0000     -0.0000
        92         0.0000     -0.0000      0.0000      0.0000
        93         0.0000     -0.0000     -0.0000      0.0000
        94         0.0000     -0.0000      0.0000     -0.0000
        95        16.8924    -16.8924     -0.0000      0.0000
        96       -16.8924     16.8924      0.0000     -0.0000
        97         0.0000     -0.0000      0.0000      0.0000
        98         0.0000     -0.0000      0.0000      0.0000
        99        -0.3444      0.3444     -0.0000     -0.0000
       100         0.3444     -0.3444     -0.0000      0.0000
       101         0.0766     -0.0766      0.0000      0.0000
       102        -0.0766      0.0766     -0.0000      0.0000
       103         0.0000     -0.0000     -0.0000     -0.0000
       104        -0.0000      0.0000      0.0000      0.0000
  1/2[<0|del|b>*<b|r|0> + (<0|r|b>*<b|del|0>)*] (Au)
       state          X           Y           Z        Dip. S.   Osc.(frdel)
         1        -0.0488     -0.0016     -0.0000      0.0504      0.0336
         2        -0.0016     -0.0488      0.0000      0.0504      0.0336
         3         0.0000      0.0000     -0.1972      0.1972      0.1315
         4        -0.0000     -0.0000     -0.0000      0.0000      0.0000
         5        -0.0402     -0.0015      0.0000      0.0417      0.0278
         6        -0.0015     -0.0402      0.0000      0.0417      0.0278
         7        -0.0000      0.0000     -0.0000      0.0000      0.0000
         8        -0.0000     -0.0000     -0.0000      0.0000      0.0000
         9        -0.0000      0.0000     -0.0262      0.0262      0.0175
        10        -0.0866     -0.0137     -0.0000      0.1003      0.0669
        11        -0.0137     -0.0866     -0.0000      0.1003      0.0669
        12        -0.0000     -0.0000     -0.0000      0.0000      0.0000
        13         0.0000      0.0000     -0.0000      0.0000      0.0000
        14        -0.0000     -0.0000     -0.0000      0.0000      0.0000
        15         0.0000      0.0000     -0.3173      0.3173      0.2115
        16        -0.0000     -0.0000     -0.0000      0.0000      0.0000
        17        -0.0000     -0.0000     -0.0000      0.0000      0.0000
        18        -0.0000      0.0000     -0.0266      0.0266      0.0177
        19        -0.0111     -0.0035      0.0000      0.0145      0.0097
        20        -0.0035     -0.0111     -0.0000      0.0145      0.0097
        21        -0.0034     -0.1164     -0.0000      0.1198      0.0799
        22        -0.1164     -0.0034     -0.0000      0.1198      0.0799
        23        -0.0000     -0.0000     -0.1962      0.1962      0.1308
        24        -0.0000      0.0000     -0.1095      0.1095      0.0730
        25        -0.0000     -0.0000     -0.0000      0.0000      0.0000
        26        -0.0000     -0.0000     -0.0000      0.0000      0.0000
        27        -0.6632     -0.0000     -0.0000      0.6632      0.4422
        28        -0.0000     -0.6632     -0.0000      0.6632      0.4422
        29        -0.2598     -0.0135     -0.0000      0.2733      0.1822
        30        -0.0135     -0.2598     -0.0000      0.2733      0.1822
        31         0.0000      0.0000     -0.0000      0.0000      0.0000
        32        -0.0000     -0.0000     -0.0000      0.0000      0.0000
        33        -0.0000     -0.0000     -0.0000      0.0000      0.0000
        34         0.0000      0.0000     -0.0000      0.0000      0.0000
        35        -0.0000     -0.0000     -0.0000      0.0000      0.0000
        36        -0.0000     -0.0000     -0.2348      0.2348      0.1565
        37        -0.0000     -0.0000     -0.1173      0.1173      0.0782
        38        -0.0000     -0.0000     -0.8173      0.8173      0.5449
        39        -0.2479     -0.1972     -0.0000      0.4450      0.2967
        40        -0.1972     -0.2479     -0.0000      0.4450      0.2967
        41        -0.0060     -0.0017     -0.0000      0.0077      0.0051
        42        -0.0017     -0.0060     -0.0000      0.0077      0.0051
        43        -0.0000     -0.0000     -0.0121      0.0121      0.0081
        44         0.0000     -0.0000     -0.0133      0.0133      0.0089
        45         0.0000      0.0000     -0.0000     -0.0001     -0.0000
        46         0.0000      0.0000     -0.0000     -0.0001     -0.0000
        47        -0.0040     -0.0081     -0.0000      0.0121      0.0081
        48        -0.0081     -0.0040      0.0000      0.0121      0.0081
        49        -0.0000     -0.0000     -0.0207      0.0207      0.0138
        50         0.0000      0.0000     -0.0030      0.0030      0.0020
        51        -0.0000      0.0000     -0.0000     -0.0000     -0.0000
        52        -0.0000     -0.0000     -0.0000      0.0000      0.0000
        53        -0.0000     -0.0000     -0.0000      0.0000      0.0000
        54        -0.0000     -0.0000     -0.0000      0.0000      0.0000
        55        -0.0000     -0.0000     -0.0000      0.0000      0.0000
        56        -0.0000     -0.0000     -0.0001      0.0001      0.0000
        57         0.0001      0.0000      0.0000     -0.0001     -0.0001
        58         0.0000      0.0001     -0.0000     -0.0001     -0.0001
        59        -0.0018     -0.0190     -0.0000      0.0208      0.0139
        60        -0.0190     -0.0018      0.0000      0.0208      0.0139
        61        -0.0063     -0.0623     -0.0000      0.0686      0.0457
        62        -0.0623     -0.0063      0.0000      0.0686      0.0457
        63        -0.0000     -0.0000     -0.1331      0.1331      0.0887
        64        -0.0000     -0.0000     -0.0297      0.0297      0.0198
        65        -0.0000     -0.0000     -0.0000      0.0000      0.0000
        66        -0.0000     -0.0000     -0.0000      0.0000      0.0000
        67        -0.0000     -0.0000     -0.0000      0.0000      0.0000
        68        -0.0000     -0.0000     -0.1390      0.1390      0.0927
        69        -0.0000     -0.0000     -0.0447      0.0447      0.0298
        70        -0.0019     -0.0215     -0.0000      0.0234      0.0156
        71        -0.0215     -0.0019     -0.0000      0.0234      0.0156
        72        -0.0009     -0.1993     -0.0000      0.2002      0.1334
        73        -0.1993     -0.0009     -0.0000      0.2002      0.1334
        74        -0.1030     -0.2172     -0.0000      0.3202      0.2134
        75        -0.2172     -0.1030      0.0000      0.3202      0.2134
        76        -0.0000     -0.0000     -0.0290      0.0290      0.0193
        77        -0.0000     -0.0000     -0.1189      0.1189      0.0793
        78        -0.0113     -0.0091     -0.0000      0.0204      0.0136
        79        -0.0091     -0.0113     -0.0000      0.0204      0.0136
        80        -0.0000     -0.0000     -0.0317      0.0317      0.0211
        81        -0.0000     -0.0004     -0.0000      0.0004      0.0003
        82        -0.0004     -0.0000     -0.0000      0.0004      0.0003
        83         0.0000     -0.0000     -0.0561      0.0561      0.0374
        84        -0.0000     -0.0000     -0.0326      0.0326      0.0218
        85        -0.0000     -0.0000     -0.0000      0.0000      0.0000
        86        -0.0000     -0.0000      0.0000      0.0000      0.0000
        87        -0.0000     -0.0000      0.0000      0.0000      0.0000
        88        -0.0000     -0.0000      0.0000      0.0000      0.0000
        89        -0.0360     -0.3198     -0.0000      0.3559      0.2372
        90        -0.3198     -0.0360     -0.0000      0.3559      0.2372
        91        -0.0000     -0.0000      0.0000      0.0000      0.0000
        92        -0.0000     -0.0000     -0.0000      0.0000      0.0000
        93        -0.0000     -0.0000     -0.0000      0.0000      0.0000
        94        -0.0000     -0.0000     -0.7495      0.7495      0.4997
        95        -0.8358     -0.0261     -0.0000      0.8620      0.5746
[...]
      9   0.000000D+00  0.000000D+00  0.000000D+00  0.000000D+00  0.000000D+00
     10   0.000000D+00  0.000000D+00  0.000000D+00  0.000000D+00  0.000000D+00
     11  -0.198024D+00  0.000000D+00  0.000000D+00  0.560592D-02  0.000000D+00
     12   0.198024D+00  0.000000D+00  0.000000D+00 -0.560592D-02  0.000000D+00
     13   0.000000D+00  0.000000D+00  0.000000D+00  0.000000D+00  0.000000D+00
     14   0.000000D+00 -0.198024D+00  0.000000D+00  0.000000D+00 -0.560593D-02
     15   0.000000D+00  0.000000D+00  0.000000D+00  0.000000D+00  0.000000D+00
     16   0.000000D+00  0.000000D+00  0.000000D+00  0.000000D+00  0.000000D+00
                36            37            38            39            40 
      1  -0.991135D+02 -0.990585D+02 -0.990248D+02 -0.989854D+02 -0.989854D+02
      2   0.000000D+00  0.000000D+00  0.000000D+00  0.440848D+00 -0.393176D+00
      3   0.000000D+00  0.000000D+00  0.000000D+00  0.393176D+00  0.440848D+00
      4   0.435135D+00  0.320324D+00 -0.813919D+00  0.000000D+00  0.000000D+00
      5   0.000000D+00  0.000000D+00  0.000000D+00 -0.562259D+00  0.501458D+00
      6   0.000000D+00  0.000000D+00  0.000000D+00 -0.501458D+00 -0.562259D+00
      7  -0.539496D+00 -0.366194D+00  0.100417D+01  0.000000D+00  0.000000D+00
      8   0.000000D+00  0.000000D+00  0.000000D+00 -0.489448D-01 -0.548793D-01
      9   0.000000D+00  0.000000D+00  0.000000D+00  0.548793D-01 -0.489448D-01
     10   0.000000D+00  0.000000D+00  0.000000D+00  0.000000D+00  0.000000D+00
     11   0.105706D+00  0.318419D+00  0.839375D-01  0.000000D+00  0.000000D+00
     12   0.105706D+00  0.318419D+00  0.839375D-01  0.000000D+00  0.000000D+00
     13  -0.741482D-01  0.657819D+00  0.117256D+01  0.000000D+00  0.000000D+00
     14   0.000000D+00  0.000000D+00  0.000000D+00  0.000000D+00  0.000000D+00
     15   0.000000D+00  0.000000D+00  0.000000D+00 -0.369410D+00  0.329463D+00
     16   0.000000D+00  0.000000D+00  0.000000D+00 -0.329463D+00 -0.369410D+00
                41            42            43            44            45 
      1  -0.989162D+02 -0.989162D+02 -0.989155D+02 -0.988537D+02 -0.988362D+02
      2   0.580961D-01 -0.304342D-01  0.000000D+00  0.000000D+00 -0.441586D-02
      3   0.304342D-01  0.580961D-01  0.000000D+00  0.000000D+00  0.393292D-02
      4   0.000000D+00  0.000000D+00  0.936469D-01 -0.110628D+00  0.000000D+00
      5  -0.103547D+00  0.542439D-01  0.000000D+00  0.000000D+00 -0.649577D-02
      6  -0.542439D-01 -0.103547D+00  0.000000D+00  0.000000D+00  0.578536D-02
      7   0.000000D+00  0.000000D+00 -0.129297D+00  0.120348D+00  0.000000D+00
      8  -0.468239D-02 -0.893827D-02  0.000000D+00  0.000000D+00 -0.151233D-01
      9   0.893827D-02 -0.468239D-02  0.000000D+00  0.000000D+00 -0.169804D-01
     10   0.000000D+00  0.000000D+00  0.000000D+00  0.000000D+00  0.000000D+00
     11   0.000000D+00  0.000000D+00  0.244050D+00  0.445839D+00  0.000000D+00
     12   0.000000D+00  0.000000D+00  0.244050D+00  0.445839D+00  0.000000D+00
     13   0.000000D+00  0.000000D+00  0.854855D-01 -0.750239D+00  0.000000D+00
     14   0.000000D+00  0.000000D+00  0.000000D+00  0.000000D+00  0.000000D+00
     15  -0.261796D+00  0.137144D+00  0.000000D+00  0.000000D+00  0.393448D+00
     16  -0.137144D+00 -0.261796D+00  0.000000D+00  0.000000D+00 -0.350419D+00
                46            47            48            49            50 
      1  -0.988362D+02 -0.988239D+02 -0.988239D+02 -0.987190D+02 -0.986681D+02
      2  -0.393292D-02  0.515265D-01 -0.736741D-01  0.000000D+00  0.000000D+00
      3  -0.441586D-02 -0.736741D-01 -0.515265D-01  0.000000D+00  0.000000D+00
      4   0.000000D+00  0.000000D+00  0.000000D+00  0.121388D+00 -0.508720D-01
      5  -0.578536D-02 -0.771329D-01  0.110287D+00  0.000000D+00  0.000000D+00
      6  -0.649577D-02  0.110287D+00  0.771329D-01  0.000000D+00  0.000000D+00
      7   0.000000D+00  0.000000D+00  0.000000D+00 -0.170127D+00  0.595480D-01
      8   0.169804D-01  0.861155D-01  0.602279D-01  0.000000D+00  0.000000D+00
      9  -0.151233D-01  0.602279D-01 -0.861155D-01  0.000000D+00  0.000000D+00
     10   0.000000D+00  0.000000D+00  0.000000D+00  0.000000D+00  0.000000D+00
     11   0.000000D+00  0.000000D+00  0.000000D+00  0.341145D+00  0.489886D+00
     12   0.000000D+00  0.000000D+00  0.000000D+00  0.341145D+00  0.489886D+00
     13   0.000000D+00  0.000000D+00  0.000000D+00  0.269046D+00 -0.118618D+01
     14   0.000000D+00  0.000000D+00  0.000000D+00  0.000000D+00  0.000000D+00
     15   0.350419D+00  0.175368D+00 -0.250746D+00  0.000000D+00  0.000000D+00
     16   0.393448D+00 -0.250746D+00 -0.175368D+00  0.000000D+00  0.000000D+00
                51            52            53            54            55 
      1  -0.985819D+02 -0.985703D+02 -0.985703D+02 -0.985431D+02 -0.985431D+02
      2   0.000000D+00  0.000000D+00  0.000000D+00  0.000000D+00  0.000000D+00
      3   0.000000D+00  0.000000D+00  0.000000D+00  0.000000D+00  0.000000D+00
      4   0.000000D+00  0.000000D+00  0.000000D+00  0.000000D+00  0.000000D+00
      5   0.000000D+00  0.000000D+00  0.000000D+00  0.000000D+00  0.000000D+00
      6   0.000000D+00  0.000000D+00  0.000000D+00  0.000000D+00  0.000000D+00
      7   0.000000D+00  0.000000D+00  0.000000D+00  0.000000D+00  0.000000D+00
      8   0.000000D+00  0.000000D+00  0.000000D+00  0.000000D+00  0.000000D+00
      9   0.000000D+00  0.000000D+00  0.000000D+00  0.000000D+00  0.000000D+00
     10   0.000000D+00  0.000000D+00  0.000000D+00  0.000000D+00  0.000000D+00
     11   0.000000D+00  0.000000D+00 -0.718263D+00  0.000000D+00  0.762796D+00
     12   0.000000D+00  0.000000D+00  0.718263D+00  0.000000D+00 -0.762796D+00
     13   0.000000D+00  0.000000D+00  0.000000D+00  0.000000D+00  0.000000D+00
     14   0.000000D+00 -0.718263D+00  0.000000D+00  0.762796D+00  0.000000D+00
     15   0.000000D+00  0.000000D+00  0.000000D+00  0.000000D+00  0.000000D+00
     16   0.000000D+00  0.000000D+00  0.000000D+00  0.000000D+00  0.000000D+00
                56            57            58            59            60 
      1  -0.984427D+02 -0.984363D+02 -0.984363D+02 -0.983697D+02 -0.983697D+02
      2   0.000000D+00 -0.326127D-02 -0.150330D-02  0.288328D-01  0.925111D-01
      3   0.000000D+00  0.150330D-02 -0.326127D-02  0.925111D-01 -0.288328D-01
      4  -0.147315D-01  0.000000D+00  0.000000D+00  0.000000D+00  0.000000D+00
      5   0.000000D+00 -0.189959D-01 -0.875624D-02 -0.640217D-01 -0.205416D+00
      6   0.000000D+00  0.875624D-02 -0.189959D-01 -0.205416D+00  0.640217D-01
      7   0.396538D-02  0.000000D+00  0.000000D+00  0.000000D+00  0.000000D+00
      8   0.000000D+00 -0.719955D-01  0.156188D+00  0.987046D-01 -0.307631D-01
      9   0.000000D+00 -0.156188D+00 -0.719955D-01 -0.307631D-01 -0.987046D-01
     10   0.000000D+00  0.000000D+00  0.000000D+00  0.000000D+00  0.000000D+00
     11   0.548077D+00  0.000000D+00  0.000000D+00  0.000000D+00  0.000000D+00
     12   0.548077D+00  0.000000D+00  0.000000D+00  0.000000D+00  0.000000D+00
     13  -0.671701D+00  0.000000D+00  0.000000D+00  0.000000D+00  0.000000D+00
     14   0.000000D+00  0.000000D+00  0.000000D+00  0.000000D+00  0.000000D+00
     15   0.000000D+00 -0.425638D+00 -0.196200D+00 -0.274313D+00 -0.880144D+00
     16   0.000000D+00  0.196200D+00 -0.425638D+00 -0.880144D+00  0.274313D+00
                61            62            63            64            65 
      1  -0.983587D+02 -0.983587D+02 -0.983331D+02 -0.980839D+02 -0.980454D+02
      2   0.545521D-01  0.171677D+00  0.000000D+00  0.000000D+00  0.000000D+00
      3   0.171677D+00 -0.545521D-01  0.000000D+00  0.000000D+00  0.000000D+00
      4   0.000000D+00  0.000000D+00  0.258842D+00 -0.104166D+00  0.000000D+00
      5  -0.115270D+00 -0.362758D+00  0.000000D+00  0.000000D+00  0.000000D+00
      6  -0.362758D+00  0.115270D+00  0.000000D+00  0.000000D+00  0.000000D+00
      7   0.000000D+00  0.000000D+00 -0.514295D+00  0.285254D+00  0.000000D+00
      8  -0.423126D-02  0.134452D-02  0.000000D+00  0.000000D+00  0.000000D+00
      9   0.134452D-02  0.423126D-02  0.000000D+00  0.000000D+00  0.000000D+00
     10   0.000000D+00  0.000000D+00  0.000000D+00  0.000000D+00  0.000000D+00
     11   0.000000D+00  0.000000D+00  0.255570D+00  0.426099D+00  0.000000D+00
     12   0.000000D+00  0.000000D+00  0.255570D+00  0.426099D+00  0.000000D+00
     13   0.000000D+00  0.000000D+00  0.796831D+00  0.117336D+01  0.000000D+00
     14   0.000000D+00  0.000000D+00  0.000000D+00  0.000000D+00  0.000000D+00
     15   0.736638D-01  0.231822D+00  0.000000D+00  0.000000D+00  0.000000D+00
     16   0.231822D+00 -0.736638D-01  0.000000D+00  0.000000D+00  0.000000D+00
                66            67            68            69            70 
      1  -0.980440D+02 -0.980440D+02 -0.980333D+02 -0.979876D+02 -0.979398D+02
      2   0.000000D+00  0.000000D+00  0.000000D+00  0.000000D+00 -0.277498D-01
      3   0.000000D+00  0.000000D+00  0.000000D+00  0.000000D+00 -0.925521D-01
      4   0.000000D+00  0.000000D+00 -0.263297D+00 -0.157580D+00  0.000000D+00
      5   0.000000D+00  0.000000D+00  0.000000D+00  0.000000D+00  0.695901D-01
      6   0.000000D+00  0.000000D+00  0.000000D+00  0.000000D+00  0.232099D+00
      7   0.000000D+00  0.000000D+00  0.528093D+00  0.283419D+00  0.000000D+00
      8   0.000000D+00  0.000000D+00  0.000000D+00  0.000000D+00 -0.143503D+00
      9   0.000000D+00  0.000000D+00  0.000000D+00  0.000000D+00  0.430264D-01
     10   0.000000D+00  0.000000D+00  0.000000D+00  0.000000D+00  0.000000D+00
     11  -0.397873D+00  0.000000D+00  0.312397D-01  0.103838D+01  0.000000D+00
     12   0.397873D+00  0.000000D+00  0.312397D-01  0.103838D+01  0.000000D+00
     13   0.000000D+00  0.000000D+00 -0.127150D+01 -0.152901D-01  0.000000D+00
     14   0.000000D+00  0.397873D+00  0.000000D+00  0.000000D+00  0.000000D+00
     15   0.000000D+00  0.000000D+00  0.000000D+00  0.000000D+00 -0.363580D-01
     16   0.000000D+00  0.000000D+00  0.000000D+00  0.000000D+00 -0.121263D+00
                71            72            73            74            75 
      1  -0.979398D+02 -0.978824D+02 -0.978824D+02 -0.977830D+02 -0.977830D+02
      2  -0.925521D-01 -0.200654D-01 -0.306657D+00 -0.198967D+00 -0.288882D+00
      3   0.277498D-01 -0.306657D+00  0.200654D-01 -0.288882D+00  0.198967D+00
      4   0.000000D+00  0.000000D+00  0.000000D+00  0.000000D+00  0.000000D+00
      5   0.232099D+00  0.425268D-01  0.649932D+00  0.517733D+00  0.751702D+00
      6  -0.695901D-01  0.649932D+00 -0.425268D-01  0.751702D+00 -0.517733D+00
      7   0.000000D+00  0.000000D+00  0.000000D+00  0.000000D+00  0.000000D+00
      8   0.430264D-01  0.275782D+00 -0.180452D-01 -0.577282D-01  0.397602D-01
      9   0.143503D+00 -0.180452D-01 -0.275782D+00  0.397602D-01  0.577282D-01
     10   0.000000D+00  0.000000D+00  0.000000D+00  0.000000D+00  0.000000D+00
     11   0.000000D+00  0.000000D+00  0.000000D+00  0.000000D+00  0.000000D+00
     12   0.000000D+00  0.000000D+00  0.000000D+00  0.000000D+00  0.000000D+00
     13   0.000000D+00  0.000000D+00  0.000000D+00  0.000000D+00  0.000000D+00
     14   0.000000D+00  0.000000D+00  0.000000D+00  0.000000D+00  0.000000D+00
     15  -0.121263D+00 -0.694446D-01 -0.106131D+01 -0.462684D-01 -0.671776D-01
     16   0.363580D-01 -0.106131D+01  0.694446D-01 -0.671776D-01  0.462684D-01
                76            77            78            79            80 
      1  -0.977721D+02 -0.975271D+02 -0.975247D+02 -0.975247D+02 -0.973296D+02
      2   0.000000D+00  0.000000D+00 -0.753928D-01  0.675037D-01  0.000000D+00
      3   0.000000D+00  0.000000D+00 -0.675037D-01 -0.753928D-01  0.000000D+00
      4   0.110279D+00 -0.205699D+00  0.000000D+00  0.000000D+00  0.107401D+00
      5   0.000000D+00  0.000000D+00  0.150143D+00 -0.134432D+00  0.000000D+00
      6   0.000000D+00  0.000000D+00  0.134432D+00  0.150143D+00  0.000000D+00
      7  -0.263017D+00  0.578162D+00  0.000000D+00  0.000000D+00 -0.294967D+00
      8   0.000000D+00  0.000000D+00 -0.686239D-01 -0.766439D-01  0.000000D+00
      9   0.000000D+00  0.000000D+00  0.766439D-01 -0.686239D-01  0.000000D+00
     10   0.000000D+00  0.000000D+00  0.000000D+00  0.000000D+00  0.000000D+00
     11  -0.647747D+00  0.894685D+00  0.000000D+00  0.000000D+00  0.201198D+00
     12  -0.647747D+00  0.894685D+00  0.000000D+00  0.000000D+00  0.201198D+00
     13   0.362824D+00  0.118169D+01  0.000000D+00  0.000000D+00 -0.489997D+00
     14   0.000000D+00  0.000000D+00  0.000000D+00  0.000000D+00  0.000000D+00
     15   0.000000D+00  0.000000D+00  0.403346D-01 -0.361139D-01  0.000000D+00
     16   0.000000D+00  0.000000D+00  0.361139D-01  0.403346D-01  0.000000D+00
                81            82            83            84            85 
      1  -0.972780D+02 -0.972780D+02 -0.970910D+02 -0.967341D+02 -0.966313D+02
      2  -0.394409D-03 -0.263992D-01  0.000000D+00  0.000000D+00  0.000000D+00
      3  -0.263992D-01  0.394409D-03  0.000000D+00  0.000000D+00  0.000000D+00
      4   0.000000D+00  0.000000D+00 -0.133784D+00  0.898704D-01  0.000000D+00
      5   0.227886D-03  0.152532D-01  0.000000D+00  0.000000D+00  0.000000D+00
      6   0.152532D-01 -0.227886D-03  0.000000D+00  0.000000D+00  0.000000D+00
      7   0.000000D+00  0.000000D+00  0.418964D+00 -0.363131D+00  0.000000D+00
      8   0.209893D+00 -0.313584D-02  0.000000D+00  0.000000D+00  0.000000D+00
      9  -0.313584D-02 -0.209893D+00  0.000000D+00  0.000000D+00  0.000000D+00
     10   0.000000D+00  0.000000D+00  0.000000D+00  0.000000D+00  0.000000D+00
     11   0.000000D+00  0.000000D+00 -0.118417D+01 -0.104987D+00  0.000000D+00
     12   0.000000D+00  0.000000D+00 -0.118417D+01 -0.104987D+00  0.000000D+00
     13   0.000000D+00  0.000000D+00 -0.858642D-01  0.365365D+00  0.000000D+00
     14   0.000000D+00  0.000000D+00  0.000000D+00  0.000000D+00  0.000000D+00
     15  -0.972915D-02 -0.651206D+00  0.000000D+00  0.000000D+00  0.000000D+00
     16  -0.651206D+00  0.972915D-02  0.000000D+00  0.000000D+00  0.000000D+00
                86            87            88            89            90 
      1  -0.966313D+02 -0.964953D+02 -0.964953D+02 -0.964751D+02 -0.964751D+02
      2   0.000000D+00  0.000000D+00  0.000000D+00  0.104524D+00  0.311389D+00
      3   0.000000D+00  0.000000D+00  0.000000D+00 -0.311389D+00  0.104524D+00
      4   0.000000D+00  0.000000D+00  0.000000D+00  0.000000D+00  0.000000D+00
      5   0.000000D+00  0.000000D+00  0.000000D+00 -0.344762D+00 -0.102708D+01
      6   0.000000D+00  0.000000D+00  0.000000D+00  0.102708D+01 -0.344762D+00
      7   0.000000D+00  0.000000D+00  0.000000D+00  0.000000D+00  0.000000D+00
      8   0.000000D+00  0.000000D+00  0.000000D+00 -0.133247D+00  0.447271D-01
      9   0.000000D+00  0.000000D+00  0.000000D+00 -0.447271D-01 -0.133247D+00
     10   0.000000D+00  0.000000D+00  0.000000D+00  0.000000D+00  0.000000D+00
     11   0.000000D+00  0.000000D+00 -0.206378D+00  0.000000D+00  0.000000D+00
     12   0.000000D+00  0.000000D+00  0.206378D+00  0.000000D+00  0.000000D+00
     13   0.000000D+00  0.000000D+00  0.000000D+00  0.000000D+00  0.000000D+00
     14   0.000000D+00 -0.206378D+00  0.000000D+00  0.000000D+00  0.000000D+00
     15   0.000000D+00  0.000000D+00  0.000000D+00  0.405530D-01  0.120812D+00
     16   0.000000D+00  0.000000D+00  0.000000D+00 -0.120812D+00  0.405530D-01
                91            92            93            94            95 
      1  -0.964613D+02 -0.964556D+02 -0.964556D+02 -0.962348D+02 -0.961455D+02
      2   0.000000D+00  0.000000D+00  0.000000D+00  0.000000D+00  0.481370D+00
      3   0.000000D+00  0.000000D+00  0.000000D+00  0.000000D+00 -0.850726D-01
      4   0.000000D+00  0.000000D+00  0.000000D+00  0.456927D+00  0.000000D+00
      5   0.000000D+00  0.000000D+00  0.000000D+00  0.000000D+00 -0.173639D+01
      6   0.000000D+00  0.000000D+00  0.000000D+00  0.000000D+00  0.306873D+00
      7   0.000000D+00  0.000000D+00  0.000000D+00 -0.164028D+01  0.000000D+00
      8   0.000000D+00  0.000000D+00  0.000000D+00  0.000000D+00 -0.496239D-01
      9   0.000000D+00  0.000000D+00  0.000000D+00  0.000000D+00 -0.280789D+00
     10   0.000000D+00  0.000000D+00  0.000000D+00  0.000000D+00  0.000000D+00
     11   0.000000D+00  0.000000D+00 -0.540022D-01  0.967737D-01  0.000000D+00
     12   0.000000D+00  0.000000D+00  0.540022D-01  0.967737D-01  0.000000D+00
     13   0.000000D+00  0.000000D+00  0.000000D+00 -0.888823D+00  0.000000D+00
     14   0.000000D+00  0.540022D-01  0.000000D+00  0.000000D+00  0.000000D+00
     15   0.000000D+00  0.000000D+00  0.000000D+00  0.000000D+00 -0.750491D+00
     16   0.000000D+00  0.000000D+00  0.000000D+00  0.000000D+00  0.132634D+00
                96            97            98            99           100 
      1  -0.961455D+02 -0.958093D+02 -0.958093D+02 -0.956320D+02 -0.956320D+02
      2   0.850726D-01  0.000000D+00  0.000000D+00  0.465964D-01 -0.335713D-01
      3   0.481370D+00  0.000000D+00  0.000000D+00  0.335713D-01  0.465964D-01
      4   0.000000D+00  0.000000D+00  0.000000D+00  0.000000D+00  0.000000D+00
      5  -0.306873D+00  0.000000D+00  0.000000D+00 -0.192355D+00  0.138586D+00
      6  -0.173639D+01  0.000000D+00  0.000000D+00 -0.138586D+00 -0.192355D+00
      7   0.000000D+00  0.000000D+00  0.000000D+00  0.000000D+00  0.000000D+00
      8   0.280789D+00  0.000000D+00  0.000000D+00  0.104524D-01  0.145077D-01
      9  -0.496239D-01  0.000000D+00  0.000000D+00 -0.145077D-01  0.104524D-01
     10   0.000000D+00  0.000000D+00  0.000000D+00  0.000000D+00  0.000000D+00
     11   0.000000D+00  0.801568D+00  0.000000D+00  0.000000D+00  0.000000D+00
     12   0.000000D+00 -0.801568D+00  0.000000D+00  0.000000D+00  0.000000D+00
     13   0.000000D+00  0.000000D+00  0.000000D+00  0.000000D+00  0.000000D+00
     14   0.000000D+00  0.000000D+00  0.801568D+00  0.000000D+00  0.000000D+00
     15  -0.132634D+00  0.000000D+00  0.000000D+00  0.422715D+00 -0.304553D+00
     16  -0.750491D+00  0.000000D+00  0.000000D+00  0.304553D+00  0.422715D+00
               101           102           103           104 
      1  -0.954980D+02 -0.954980D+02 -0.952978D+02 -0.947369D+02
      2   0.106583D-02 -0.189285D+00  0.000000D+00  0.000000D+00
      3  -0.189285D+00 -0.106583D-02  0.000000D+00  0.000000D+00
      4   0.000000D+00  0.000000D+00  0.265332D+00 -0.620138D-02
      5  -0.468961D-02  0.832845D+00  0.000000D+00  0.000000D+00
      6   0.832845D+00  0.468961D-02  0.000000D+00  0.000000D+00
      7   0.000000D+00  0.000000D+00 -0.121016D+01 -0.111930D-02
      8  -0.101639D+00 -0.572313D-03  0.000000D+00  0.000000D+00
      9  -0.572313D-03  0.101639D+00  0.000000D+00  0.000000D+00
     10   0.000000D+00  0.000000D+00  0.000000D+00  0.000000D+00
     11   0.000000D+00  0.000000D+00  0.196702D+00 -0.209811D+00
     12   0.000000D+00  0.000000D+00  0.196702D+00 -0.209811D+00
     13   0.000000D+00  0.000000D+00 -0.107581D+01  0.359990D+00
     14   0.000000D+00  0.000000D+00  0.000000D+00  0.000000D+00
     15  -0.219107D-02  0.389121D+00  0.000000D+00  0.000000D+00
     16   0.389121D+00  0.219107D-02  0.000000D+00  0.000000D+00
 Unable to Open any file for archive entry.
 1\1\GINC-HEL25\SP\RLC-BLYP TD-FC\Gen\F1H1\SABYASACHI\21-Mar-2022\0\\#P
  TD(Nstates=10000) lc-blyp/Gen SCF(maxcycles=100) Int(Grid=ultrafine)\
 \xGDB7_00001_tier4.com\\0,1\F,0,0.,0.,0.091801\H,0,0.,0.,-0.826212\\Ve
 rsion=EM64L-G16RevC.01\State=1-SG\HF=-100.2211812\RMSD=7.983e-09\PG=C*
 V [C*(H1F1)]\\@
 The archive entry for this job was punched.


 IF YOU GET CONFUSED, LOGIC OUT YOUR DILEMMA

           --  PICKER X-RAY CORP.    DIGITAL PRINTER MANUAL CA. 1964
 Job cpu time:       0 days  0 hours  0 minutes 12.6 seconds.
 Elapsed time:       0 days  0 hours  0 minutes  1.8 seconds.
 File lengths (MBytes):  RWF=     17 Int=      0 D2E=      0 Chk=      4 Scr=      1
 Normal termination of Gaussian 16 at Mon Mar 21 20:06:42 2022.
