 Entering Gaussian System, Link 0=g16
 Input=000016.com
 Output=000016.log
 Initial command:
 /home/sabyasachi/g16/l1.exe "/scratch/sabyasachi/PBS_7976216.helios/Gau-28245.inp" -scrdir="/scratch/sabyasachi/PBS_7976216.helios/"
 Entering Link 1 = /home/sabyasachi/g16/l1.exe PID=     28246.
  
 Copyright (c) 1988-2019, Gaussian, Inc.  All Rights Reserved.
  
 This is part of the Gaussian(R) 16 program.  It is based on
 the Gaussian(R) 09 system (copyright 2009, Gaussian, Inc.),
 the Gaussian(R) 03 system (copyright 2003, Gaussian, Inc.),
 the Gaussian(R) 98 system (copyright 1998, Gaussian, Inc.),
 the Gaussian(R) 94 system (copyright 1995, Gaussian, Inc.),
 the Gaussian 92(TM) system (copyright 1992, Gaussian, Inc.),
 the Gaussian 90(TM) system (copyright 1990, Gaussian, Inc.),
 the Gaussian 88(TM) system (copyright 1988, Gaussian, Inc.),
 the Gaussian 86(TM) system (copyright 1986, Carnegie Mellon
 University), and the Gaussian 82(TM) system (copyright 1983,
 Carnegie Mellon University). Gaussian is a federally registered
 trademark of Gaussian, Inc.
  
 This software contains proprietary and confidential information,
 including trade secrets, belonging to Gaussian, Inc.
  
 This software is provided under written license and may be
 used, copied, transmitted, or stored only in accord with that
 written license.
  
 The following legend is applicable only to US Government
 contracts under FAR:
  
                    RESTRICTED RIGHTS LEGEND
  
 Use, reproduction and disclosure by the US Government is
 subject to restrictions as set forth in subparagraphs (a)
 and (c) of the Commercial Computer Software - Restricted
 Rights clause in FAR 52.227-19.
  
 Gaussian, Inc.
 340 Quinnipiac St., Bldg. 40, Wallingford CT 06492
  
  
 ---------------------------------------------------------------
 Warning -- This program may not be used in any manner that
 competes with the business of Gaussian, Inc. or will provide
 assistance to any competitor of Gaussian, Inc.  The licensee
 of this program is prohibited from giving any competitor of
 Gaussian, Inc. access to this program.  By using this program,
 the user acknowledges that Gaussian, Inc. is engaged in the
 business of creating and licensing software in the field of
 computational chemistry and represents and warrants to the
 licensee that it is not a competitor of Gaussian, Inc. and that
 it will not use this program in any manner prohibited above.
 ---------------------------------------------------------------
  

 Cite this work as:
 Gaussian 16, Revision C.01,
 M. J. Frisch, G. W. Trucks, H. B. Schlegel, G. E. Scuseria, 
 M. A. Robb, J. R. Cheeseman, G. Scalmani, V. Barone, 
 G. A. Petersson, H. Nakatsuji, X. Li, M. Caricato, A. V. Marenich, 
 J. Bloino, B. G. Janesko, R. Gomperts, B. Mennucci, H. P. Hratchian, 
 J. V. Ortiz, A. F. Izmaylov, J. L. Sonnenberg, D. Williams-Young, 
 F. Ding, F. Lipparini, F. Egidi, J. Goings, B. Peng, A. Petrone, 
 T. Henderson, D. Ranasinghe, V. G. Zakrzewski, J. Gao, N. Rega, 
 G. Zheng, W. Liang, M. Hada, M. Ehara, K. Toyota, R. Fukuda, 
 J. Hasegawa, M. Ishida, T. Nakajima, Y. Honda, O. Kitao, H. Nakai, 
 T. Vreven, K. Throssell, J. A. Montgomery, Jr., J. E. Peralta, 
 F. Ogliaro, M. J. Bearpark, J. J. Heyd, E. N. Brothers, K. N. Kudin, 
 V. N. Staroverov, T. A. Keith, R. Kobayashi, J. Normand, 
 K. Raghavachari, A. P. Rendell, J. C. Burant, S. S. Iyengar, 
 J. Tomasi, M. Cossi, J. M. Millam, M. Klene, C. Adamo, R. Cammi, 
 J. W. Ochterski, R. L. Martin, K. Morokuma, O. Farkas, 
 J. B. Foresman, and D. J. Fox, Gaussian, Inc., Wallingford CT, 2019.
 
 ******************************************
 Gaussian 16:  EM64L-G16RevC.01  3-Jul-2019
                21-Mar-2022 
 ******************************************
 %mem=64gb
 %nproc=8
 Will use up to    8 processors via shared memory.
 ----------------------------------------------------------------------
 #P TD(Nstates=10000) lc-blyp/Gen SCF(maxcycles=100) Int(Grid=ultrafine
 )
 ----------------------------------------------------------------------
 1/38=1,172=1/1;
 2/12=2,17=6,18=5,40=1/2;
 3/5=7,11=9,25=1,30=1,74=1000402,75=-5/1,2,3,8;
 4//1;
 5/5=2,7=100,38=5/2;
 8/6=1,10=1,108=10000/1;
 9/41=10000,42=1,70=2/14;
 6/7=2,8=2,9=2,10=2/1;
 99/5=1,9=1/99;
 Leave Link    1 at Mon Mar 21 20:12:07 2022, MaxMem=  8589934592 cpu:               0.4 elap:               0.1
 (Enter /home/sabyasachi/g16/l101.exe)
 ---------------------
 xGDB7_00001_tier4.com
 ---------------------
 Symbolic Z-matrix:
 Charge =  0 Multiplicity = 1
 6                    -1.20842  -0.23907  -0.02192 
 6                     0.08389   0.55345   0.04673 
 8                     1.23347  -0.256    -0.10586 
 1                    -2.072     0.42514   0.0517 
 1                    -1.27067  -0.95776   0.79973 
 1                    -1.27063  -0.78828  -0.96233 
 1                     0.13003   1.1192    0.98611 
 1                     0.12595   1.27703  -0.76855 
 1                     1.23675  -0.91361   0.59134 
 
 ITRead=  0  0  0  0  0  0  0  0  0
 MicOpt= -1 -1 -1 -1 -1 -1 -1 -1 -1
 NAtoms=      9 NQM=        9 NQMF=       0 NMMI=      0 NMMIF=      0
                NMic=       0 NMicF=      0.
                    Isotopes and Nuclear Properties:
 (Nuclear quadrupole moments (NQMom) in fm**2, nuclear magnetic moments (NMagM)
  in nuclear magnetons)

  Atom         1           2           3           4           5           6           7           8           9
 IAtWgt=          12          12          16           1           1           1           1           1           1
 AtmWgt=  12.0000000  12.0000000  15.9949146   1.0078250   1.0078250   1.0078250   1.0078250   1.0078250   1.0078250
 NucSpn=           0           0           0           1           1           1           1           1           1
 AtZEff=  -0.0000000  -0.0000000  -0.0000000  -0.0000000  -0.0000000  -0.0000000  -0.0000000  -0.0000000  -0.0000000
 NQMom=    0.0000000   0.0000000   0.0000000   0.0000000   0.0000000   0.0000000   0.0000000   0.0000000   0.0000000
 NMagM=    0.0000000   0.0000000   0.0000000   2.7928460   2.7928460   2.7928460   2.7928460   2.7928460   2.7928460
 AtZNuc=   6.0000000   6.0000000   8.0000000   1.0000000   1.0000000   1.0000000   1.0000000   1.0000000   1.0000000
 Leave Link  101 at Mon Mar 21 20:12:07 2022, MaxMem=  8589934592 cpu:               0.6 elap:               0.1
 (Enter /home/sabyasachi/g16/l202.exe)
                          Input orientation:                          
 ---------------------------------------------------------------------
 Center     Atomic      Atomic             Coordinates (Angstroms)
 Number     Number       Type             X           Y           Z
 ---------------------------------------------------------------------
      1          6           0       -1.208422   -0.239069   -0.021917
      2          6           0        0.083893    0.553452    0.046734
      3          8           0        1.233467   -0.256002   -0.105864
      4          1           0       -2.071999    0.425136    0.051700
      5          1           0       -1.270670   -0.957756    0.799731
      6          1           0       -1.270625   -0.788280   -0.962327
      7          1           0        0.130030    1.119197    0.986112
      8          1           0        0.125952    1.277026   -0.768547
      9          1           0        1.236751   -0.913605    0.591341
 ---------------------------------------------------------------------
                    Distance matrix (angstroms):
                    1          2          3          4          5
     1  C    0.000000
     2  C    1.517524   0.000000
     3  O    2.443390   1.414221   0.000000
     4  H    1.091949   2.159713   3.378592   0.000000
     5  H    1.093385   2.164624   2.753773   1.764672   0.000000
     6  H    1.090813   2.157120   2.699505   1.772803   1.770189
     7  H    2.156957   1.097555   2.073923   2.490738   2.512057
     8  H    2.153266   1.090876   2.003974   2.495899   3.066643
     9  H    2.609589   1.943691   0.958409   3.609885   2.516453
                    6          7          8          9
     6  H    0.000000
     7  H    3.065407   0.000000
     8  H    2.500693   1.761748   0.000000
     9  H    2.952376   2.347969   2.807496   0.000000
 Stoichiometry    C2H6O
 Framework group  C1[X(C2H6O)]
 Deg. of freedom    21
 Full point group                 C1      NOp   1
 Largest Abelian subgroup         C1      NOp   1
 Largest concise Abelian subgroup C1      NOp   1
                         Standard orientation:                         
 ---------------------------------------------------------------------
 Center     Atomic      Atomic             Coordinates (Angstroms)
 Number     Number       Type             X           Y           Z
 ---------------------------------------------------------------------
      1          6           0       -1.208422   -0.239069   -0.021917
      2          6           0        0.083893    0.553452    0.046734
      3          8           0        1.233467   -0.256002   -0.105864
      4          1           0       -2.071999    0.425135    0.051700
      5          1           0       -1.270670   -0.957756    0.799731
      6          1           0       -1.270625   -0.788280   -0.962327
      7          1           0        0.130030    1.119197    0.986112
      8          1           0        0.125951    1.277026   -0.768547
      9          1           0        1.236751   -0.913605    0.591341
 ---------------------------------------------------------------------
 Rotational constants (GHZ):          34.6666409           9.2583988           8.1755823
 Leave Link  202 at Mon Mar 21 20:12:07 2022, MaxMem=  8589934592 cpu:               0.1 elap:               0.0
 (Enter /home/sabyasachi/g16/l301.exe)
 General basis read from cards:  (5D, 7F)
 Centers:       4      5      6      7      8      9
 S 3 1.00
     Exponent=  1.3010701000D+01 Coefficients=  1.9682158000D-02
     Exponent=  1.9622572000D+00 Coefficients=  1.3796524000D-01
     Exponent=  4.4453796000D-01 Coefficients=  4.7831935000D-01
 S 1 1.00
     Exponent=  1.2194962000D-01 Coefficients=  1.0000000000D+00
 P 1 1.00
     Exponent=  8.0000000000D-01 Coefficients=  1.0000000000D+00
 P 1 1.00
     Exponent=  1.1704099050D-01 Coefficients=  1.0000000000D+00
 ****
 Centers:       1      2
 S 5 1.00
     Exponent=  1.2384016938D+03 Coefficients=  5.4568832082D-03
     Exponent=  1.8629004992D+02 Coefficients=  4.0638409211D-02
     Exponent=  4.2251176346D+01 Coefficients=  1.8025593888D-01
     Exponent=  1.1676557932D+01 Coefficients=  4.6315121755D-01
     Exponent=  3.5930506482D+00 Coefficients=  4.4087173314D-01
 S 1 1.00
     Exponent=  4.0245147363D-01 Coefficients=  1.0000000000D+00
 S 1 1.00
     Exponent=  1.3090182668D-01 Coefficients=  1.0000000000D+00
 S 1 1.00
     Exponent=  6.7053540256D-02 Coefficients=  1.0000000000D+00
 P 3 1.00
     Exponent=  9.4680970621D+00 Coefficients=  3.8387871728D-02
     Exponent=  2.0103545142D+00 Coefficients=  2.1117025112D-01
     Exponent=  5.4771004707D-01 Coefficients=  5.1328172114D-01
 P 1 1.00
     Exponent=  1.5268613795D-01 Coefficients=  1.0000000000D+00
 D 1 1.00
     Exponent=  8.0000000000D-01 Coefficients=  1.0000000000D+00
 D 1 1.00
     Exponent=  1.1713185140D-01 Coefficients=  1.0000000000D+00
 ****
 Centers:       3
 S 5 1.00
     Exponent=  2.2661767785D+03 Coefficients= -5.3431809926D-03
     Exponent=  3.4087010191D+02 Coefficients= -3.9890039230D-02
     Exponent=  7.7363135167D+01 Coefficients= -1.7853911985D-01
     Exponent=  2.1479644940D+01 Coefficients= -4.6427684959D-01
     Exponent=  6.6589433124D+00 Coefficients= -4.4309745172D-01
 S 1 1.00
     Exponent=  8.0975975668D-01 Coefficients=  1.0000000000D+00
 S 1 1.00
     Exponent=  2.5530772234D-01 Coefficients=  1.0000000000D+00
 S 1 1.00
     Exponent=  7.6572453250D-02 Coefficients=  1.0000000000D+00
 P 3 1.00
     Exponent=  1.7721504317D+01 Coefficients=  4.3394573193D-02
     Exponent=  3.8635505440D+00 Coefficients=  2.3094120765D-01
     Exponent=  1.0480920883D+00 Coefficients=  5.1375311064D-01
 P 1 1.00
     Exponent=  2.7641544411D-01 Coefficients=  1.0000000000D+00
 P 1 1.00
     Exponent=  6.9002276350D-02 Coefficients=  1.0000000000D+00
 D 1 1.00
     Exponent=  1.2000000000D+00 Coefficients=  1.0000000000D+00
 D 1 1.00
     Exponent=  1.7992024323D-01 Coefficients=  1.0000000000D+00
 ****
 Ernie: Thresh=  0.10000D-02 Tol=  0.10000D-05 Strict=F.
 There are   117 symmetry adapted cartesian basis functions of A   symmetry.
 There are   111 symmetry adapted basis functions of A   symmetry.
   111 basis functions,   159 primitive gaussians,   117 cartesian basis functions
    13 alpha electrons       13 beta electrons
       nuclear repulsion energy        81.9103171642 Hartrees.
 IExCor=10402 DFT=T Ex=LC-B+HF Corr=LYP ExCW=0 ScaHFX=  1.000000
 ScaDFX=  1.000000  1.000000  1.000000  1.000000 ScalE2=  1.000000  1.000000
 IRadAn=      5 IRanWt=     -1 IRanGd=            0 ICorTp=0 IEmpDi=  4
 HFx  wShort=  0.000000 wLong=  0.470000 cFull=  0.000000 cShort=  0.000000 cLong=  1.000000
 DFx  wShort=  0.000000 wLong=  0.470000 cFull=  0.000000 cShort=  0.000000 cLong=  1.000000
 NAtoms=    9 NActive=    9 NUniq=    9 SFac= 1.00D+00 NAtFMM=   60 NAOKFM=F Big=F
 Integral buffers will be    131072 words long.
 Raffenetti 1 integral format.
 Two-electron integral symmetry is turned on.
 Leave Link  301 at Mon Mar 21 20:12:07 2022, MaxMem=  8589934592 cpu:               0.6 elap:               0.1
 (Enter /home/sabyasachi/g16/l302.exe)
 NPDir=0 NMtPBC=     1 NCelOv=     1 NCel=       1 NClECP=     1 NCelD=      1
         NCelK=      1 NCelE2=     1 NClLst=     1 CellRange=     0.0.
 One-electron integrals computed using PRISM.
 One-electron integral symmetry used in STVInt
 NBasis=   111 RedAO= T EigKep=  3.00D-04  NBF=   111
 NBsUse=   111 1.00D-06 EigRej= -1.00D+00 NBFU=   111
 Precomputing XC quadrature grid using
 IXCGrd= 4 IRadAn=           5 IRanWt=          -1 IRanGd=           0 AccXCQ= 0.00D+00.
 Generated NRdTot=       0 NPtTot=           0 NUsed=           0 NTot=          32
 NSgBfM=   117   117   117   117   117 MxSgAt=     9 MxSgA2=     9.
 Leave Link  302 at Mon Mar 21 20:12:07 2022, MaxMem=  8589934592 cpu:               1.1 elap:               0.2
 (Enter /home/sabyasachi/g16/l303.exe)
 DipDrv:  MaxL=1.
 Leave Link  303 at Mon Mar 21 20:12:07 2022, MaxMem=  8589934592 cpu:               0.2 elap:               0.0
 (Enter /home/sabyasachi/g16/l308.exe)
 Leave Link  308 at Mon Mar 21 20:12:07 2022, MaxMem=  8589934592 cpu:               0.2 elap:               0.0
 (Enter /home/sabyasachi/g16/l401.exe)
 ExpMin= 6.71D-02 ExpMax= 2.27D+03 ExpMxC= 3.41D+02 IAcc=3 IRadAn=         5 AccDes= 0.00D+00
 Harris functional with IExCor=10402 and IRadAn=       5 diagonalized for initial guess.
 HarFok:  IExCor=10402 AccDes= 0.00D+00 IRadAn=         5 IDoV= 1 UseB2=F ITyADJ=14
 ICtDFT=  3500011 ScaDFX=  1.000000  1.000000  1.000000  1.000000
 FoFCou: FMM=F IPFlag=           0 FMFlag=      100000 FMFlg1=           0
         NFxFlg=           0 DoJE=T BraDBF=F KetDBF=T FulRan=T
         wScrn=  0.000000 ICntrl=       500 IOpCl=  0 I1Cent=   200000004 NGrid=           0
         NMat0=    1 NMatS0=      1 NMatT0=    0 NMatD0=    1 NMtDS0=    0 NMtDT0=    0
 Petite list used in FoFCou.
 Harris En= -148.747634380624    
 JPrj=0 DoOrth=F DoCkMO=F.
 Leave Link  401 at Mon Mar 21 20:12:08 2022, MaxMem=  8589934592 cpu:               3.5 elap:               0.5
 (Enter /home/sabyasachi/g16/l502.exe)
 Keep R1 ints in memory in canonical form, NReq=46894608.
 FoFCou: FMM=F IPFlag=           0 FMFlag=           0 FMFlg1=           0
         NFxFlg=           0 DoJE=F BraDBF=F KetDBF=F FulRan=T
         wScrn=  0.000000 ICntrl=       600 IOpCl=  0 I1Cent=           0 NGrid=           0
         NMat0=    1 NMatS0=   6216 NMatT0=    0 NMatD0=    1 NMtDS0=    0 NMtDT0=    0
 Symmetry not used in FoFCou.
 Two-electron integral symmetry not used.
 Closed shell SCF:
 Using DIIS extrapolation, IDIIS=  1040.
 NGot=  8589934592 LenX=  8551259892 LenY=  8551245762
 Requested convergence on RMS density matrix=1.00D-08 within 100 cycles.
 Requested convergence on MAX density matrix=1.00D-06.
 Requested convergence on             energy=1.00D-06.
 No special actions if energy rises.
 Integral accuracy reduced to 1.0D-05 until final iterations.

 Cycle   1  Pass 0  IDiag  1:
 E= -154.494667886283    
 DIIS: error= 1.79D-02 at cycle   1 NSaved=   1.
 NSaved= 1 IEnMin= 1 EnMin= -154.494667886283     IErMin= 1 ErrMin= 1.79D-02
 ErrMax= 1.79D-02  0.00D+00 EMaxC= 1.00D-01 BMatC= 4.24D-02 BMatP= 4.24D-02
 IDIUse=3 WtCom= 8.21D-01 WtEn= 1.79D-01
 Coeff-Com:  0.100D+01
 Coeff-En:   0.100D+01
 Coeff:      0.100D+01
 Gap=     0.457 Goal=   None    Shift=    0.000
 GapD=    0.457 DampG=2.000 DampE=0.500 DampFc=1.0000 IDamp=-1.
 RMSDP=4.85D-03 MaxDP=1.40D-01              OVMax= 7.23D-02

 Cycle   2  Pass 0  IDiag  1:
 E= -154.524126946312     Delta-E=       -0.029459060029 Rises=F Damp=F
 DIIS: error= 9.79D-03 at cycle   2 NSaved=   2.
 NSaved= 2 IEnMin= 2 EnMin= -154.524126946312     IErMin= 2 ErrMin= 9.79D-03
 ErrMax= 9.79D-03  0.00D+00 EMaxC= 1.00D-01 BMatC= 1.52D-02 BMatP= 4.24D-02
 IDIUse=3 WtCom= 9.02D-01 WtEn= 9.79D-02
 Coeff-Com:  0.365D+00 0.635D+00
 Coeff-En:   0.683D-01 0.932D+00
 Coeff:      0.336D+00 0.664D+00
 Gap=     0.496 Goal=   None    Shift=    0.000
 RMSDP=1.69D-03 MaxDP=4.91D-02 DE=-2.95D-02 OVMax= 3.00D-02

 Cycle   3  Pass 0  IDiag  1:
 E= -154.538508380255     Delta-E=       -0.014381433944 Rises=F Damp=F
 DIIS: error= 1.23D-03 at cycle   3 NSaved=   3.
 NSaved= 3 IEnMin= 3 EnMin= -154.538508380255     IErMin= 3 ErrMin= 1.23D-03
 ErrMax= 1.23D-03  0.00D+00 EMaxC= 1.00D-01 BMatC= 4.19D-04 BMatP= 1.52D-02
 IDIUse=3 WtCom= 9.88D-01 WtEn= 1.23D-02
 Coeff-Com:  0.641D-02 0.122D+00 0.872D+00
 Coeff-En:   0.000D+00 0.000D+00 0.100D+01
 Coeff:      0.633D-02 0.120D+00 0.874D+00
 Gap=     0.483 Goal=   None    Shift=    0.000
 RMSDP=3.83D-04 MaxDP=5.83D-03 DE=-1.44D-02 OVMax= 4.20D-03

 Cycle   4  Pass 0  IDiag  1:
 E= -154.538871433299     Delta-E=       -0.000363053043 Rises=F Damp=F
 DIIS: error= 5.16D-04 at cycle   4 NSaved=   4.
 NSaved= 4 IEnMin= 4 EnMin= -154.538871433299     IErMin= 4 ErrMin= 5.16D-04
 ErrMax= 5.16D-04  0.00D+00 EMaxC= 1.00D-01 BMatC= 6.21D-05 BMatP= 4.19D-04
 IDIUse=3 WtCom= 9.95D-01 WtEn= 5.16D-03
 Coeff-Com: -0.228D-01 0.842D-03 0.325D+00 0.697D+00
 Coeff-En:   0.000D+00 0.000D+00 0.000D+00 0.100D+01
 Coeff:     -0.227D-01 0.838D-03 0.323D+00 0.699D+00
 Gap=     0.486 Goal=   None    Shift=    0.000
 RMSDP=1.22D-04 MaxDP=1.98D-03 DE=-3.63D-04 OVMax= 2.82D-03

 Cycle   5  Pass 0  IDiag  1:
 E= -154.538924862342     Delta-E=       -0.000053429043 Rises=F Damp=F
 DIIS: error= 1.56D-04 at cycle   5 NSaved=   5.
 NSaved= 5 IEnMin= 5 EnMin= -154.538924862342     IErMin= 5 ErrMin= 1.56D-04
 ErrMax= 1.56D-04  0.00D+00 EMaxC= 1.00D-01 BMatC= 6.66D-06 BMatP= 6.21D-05
 IDIUse=3 WtCom= 9.98D-01 WtEn= 1.56D-03
 Coeff-Com: -0.886D-02-0.160D-01-0.139D-01 0.236D+00 0.803D+00
 Coeff-En:   0.000D+00 0.000D+00 0.000D+00 0.000D+00 0.100D+01
 Coeff:     -0.885D-02-0.160D-01-0.138D-01 0.235D+00 0.803D+00
 Gap=     0.485 Goal=   None    Shift=    0.000
 RMSDP=5.37D-05 MaxDP=7.00D-04 DE=-5.34D-05 OVMax= 6.45D-04

 Cycle   6  Pass 0  IDiag  1:
 E= -154.538930958018     Delta-E=       -0.000006095676 Rises=F Damp=F
 DIIS: error= 1.87D-05 at cycle   6 NSaved=   6.
 NSaved= 6 IEnMin= 6 EnMin= -154.538930958018     IErMin= 6 ErrMin= 1.87D-05
 ErrMax= 1.87D-05  0.00D+00 EMaxC= 1.00D-01 BMatC= 6.02D-08 BMatP= 6.66D-06
 IDIUse=1 WtCom= 1.00D+00 WtEn= 0.00D+00
 Coeff-Com:  0.795D-03-0.511D-03-0.146D-01-0.229D-01 0.706D-02 0.103D+01
 Coeff:      0.795D-03-0.511D-03-0.146D-01-0.229D-01 0.706D-02 0.103D+01
 Gap=     0.485 Goal=   None    Shift=    0.000
 RMSDP=9.64D-06 MaxDP=1.31D-04 DE=-6.10D-06 OVMax= 2.16D-04

 Initial convergence to 1.0D-05 achieved.  Increase integral accuracy.
 Cycle   7  Pass 1  IDiag  1:
 E= -154.538931248636     Delta-E=       -0.000000290618 Rises=F Damp=F
 DIIS: error= 5.10D-06 at cycle   1 NSaved=   1.
 NSaved= 1 IEnMin= 1 EnMin= -154.538931248636     IErMin= 1 ErrMin= 5.10D-06
 ErrMax= 5.10D-06  0.00D+00 EMaxC= 1.00D-01 BMatC= 4.28D-09 BMatP= 4.28D-09
 IDIUse=1 WtCom= 1.00D+00 WtEn= 0.00D+00
 Coeff-Com:  0.100D+01
 Coeff:      0.100D+01
 Gap=     0.485 Goal=   None    Shift=    0.000
 RMSDP=9.64D-06 MaxDP=1.31D-04 DE=-2.91D-07 OVMax= 4.47D-05

 Cycle   8  Pass 1  IDiag  1:
 E= -154.538931257758     Delta-E=       -0.000000009123 Rises=F Damp=F
 DIIS: error= 2.49D-06 at cycle   2 NSaved=   2.
 NSaved= 2 IEnMin= 2 EnMin= -154.538931257758     IErMin= 2 ErrMin= 2.49D-06
 ErrMax= 2.49D-06  0.00D+00 EMaxC= 1.00D-01 BMatC= 9.83D-10 BMatP= 4.28D-09
 IDIUse=1 WtCom= 1.00D+00 WtEn= 0.00D+00
 Coeff-Com:  0.221D+00 0.779D+00
 Coeff:      0.221D+00 0.779D+00
 Gap=     0.485 Goal=   None    Shift=    0.000
 RMSDP=6.54D-07 MaxDP=1.38D-05 DE=-9.12D-09 OVMax= 1.33D-05

 Cycle   9  Pass 1  IDiag  1:
 E= -154.538931259272     Delta-E=       -0.000000001514 Rises=F Damp=F
 DIIS: error= 1.00D-06 at cycle   3 NSaved=   3.
 NSaved= 3 IEnMin= 3 EnMin= -154.538931259272     IErMin= 3 ErrMin= 1.00D-06
 ErrMax= 1.00D-06  0.00D+00 EMaxC= 1.00D-01 BMatC= 1.51D-10 BMatP= 9.83D-10
 IDIUse=1 WtCom= 1.00D+00 WtEn= 0.00D+00
 Coeff-Com: -0.180D+00 0.588D-01 0.112D+01
 Coeff:     -0.180D+00 0.588D-01 0.112D+01
 Gap=     0.485 Goal=   None    Shift=    0.000
 RMSDP=3.98D-07 MaxDP=6.62D-06 DE=-1.51D-09 OVMax= 1.18D-05

 Cycle  10  Pass 1  IDiag  1:
 E= -154.538931259656     Delta-E=       -0.000000000383 Rises=F Damp=F
 DIIS: error= 1.68D-07 at cycle   4 NSaved=   4.
 NSaved= 4 IEnMin= 4 EnMin= -154.538931259656     IErMin= 4 ErrMin= 1.68D-07
 ErrMax= 1.68D-07  0.00D+00 EMaxC= 1.00D-01 BMatC= 5.81D-12 BMatP= 1.51D-10
 IDIUse=1 WtCom= 1.00D+00 WtEn= 0.00D+00
 Coeff-Com: -0.523D-01-0.152D-01 0.260D+00 0.807D+00
 Coeff:     -0.523D-01-0.152D-01 0.260D+00 0.807D+00
 Gap=     0.485 Goal=   None    Shift=    0.000
 RMSDP=4.28D-08 MaxDP=6.63D-07 DE=-3.83D-10 OVMax= 1.73D-06

 Cycle  11  Pass 1  IDiag  1:
 E= -154.538931259662     Delta-E=       -0.000000000007 Rises=F Damp=F
 DIIS: error= 5.74D-08 at cycle   5 NSaved=   5.
 NSaved= 5 IEnMin= 5 EnMin= -154.538931259662     IErMin= 5 ErrMin= 5.74D-08
 ErrMax= 5.74D-08  0.00D+00 EMaxC= 1.00D-01 BMatC= 1.23D-12 BMatP= 5.81D-12
 IDIUse=1 WtCom= 1.00D+00 WtEn= 0.00D+00
 Coeff-Com: -0.727D-02-0.945D-02 0.170D-01 0.313D+00 0.687D+00
 Coeff:     -0.727D-02-0.945D-02 0.170D-01 0.313D+00 0.687D+00
 Gap=     0.485 Goal=   None    Shift=    0.000
 RMSDP=1.34D-08 MaxDP=2.90D-07 DE=-6.76D-12 OVMax= 4.17D-07

 Cycle  12  Pass 1  IDiag  1:
 E= -154.538931259662     Delta-E=        0.000000000000 Rises=F Damp=F
 DIIS: error= 1.99D-08 at cycle   6 NSaved=   6.
 NSaved= 6 IEnMin= 5 EnMin= -154.538931259662     IErMin= 6 ErrMin= 1.99D-08
 ErrMax= 1.99D-08  0.00D+00 EMaxC= 1.00D-01 BMatC= 9.71D-14 BMatP= 1.23D-12
 IDIUse=1 WtCom= 1.00D+00 WtEn= 0.00D+00
 Coeff-Com:  0.867D-02 0.163D-02-0.472D-01-0.936D-01 0.137D+00 0.994D+00
 Coeff:      0.867D-02 0.163D-02-0.472D-01-0.936D-01 0.137D+00 0.994D+00
 Gap=     0.485 Goal=   None    Shift=    0.000
 RMSDP=9.27D-09 MaxDP=1.89D-07 DE= 1.14D-13 OVMax= 2.06D-07

 SCF Done:  E(RLC-B+HF-LYP) =  -154.538931260     A.U. after   12 cycles
            NFock= 12  Conv=0.93D-08     -V/T= 2.0098
 KE= 1.530435640217D+02 PE=-5.246390709007D+02 EE= 1.351462584552D+02
 Leave Link  502 at Mon Mar 21 20:12:11 2022, MaxMem=  8589934592 cpu:              28.3 elap:               3.8
 (Enter /home/sabyasachi/g16/l801.exe)
 DoSCS=F DFT=T ScalE2(SS,OS)=  1.000000  1.000000
 ExpMin= 6.71D-02 ExpMax= 2.27D+03 ExpMxC= 3.41D+02 IAcc=3 IRadAn=         5 AccDes= 0.00D+00
 HarFok:  IExCor=  205 AccDes= 0.00D+00 IRadAn=         5 IDoV=-2 UseB2=F ITyADJ=14
 ICtDFT= 12500011 ScaDFX=  1.000000  1.000000  1.000000  1.000000
 Largest valence mixing into a core orbital is  6.12D-05
 Largest core mixing into a valence orbital is  7.83D-06
 Range of M.O.s used for correlation:     4   111
 NBasis=   111 NAE=    13 NBE=    13 NFC=     3 NFV=     0
 NROrb=    108 NOA=    10 NOB=    10 NVA=    98 NVB=    98

 **** Warning!!: The largest alpha MO coefficient is  0.22363571D+02

 Leave Link  801 at Mon Mar 21 20:12:12 2022, MaxMem=  8589934592 cpu:               0.6 elap:               0.1
 (Enter /home/sabyasachi/g16/l914.exe)
 RHF ground state
 Keep R1, R2, and R3 ints in memory in canonical form, NReq=1186336844.
 FoFCou: FMM=F IPFlag=           0 FMFlag=           0 FMFlg1=           0
         NFxFlg=           0 DoJE=F BraDBF=F KetDBF=F FulRan=T
         wScrn=  0.000000 ICntrl=       600 IOpCl=  0 I1Cent=           0 NGrid=           0
         NMat0=    1 NMatS0=   6216 NMatT0=    0 NMatD0=    1 NMtDS0=    0 NMtDT0=    0
 Symmetry not used in FoFCou.
 Two-electron integral symmetry not used.
 MDV=  8589934592 DFT=T DoStab=F Mixed=T DoRPA=T DoScal=F NonHer=T
 Making orbital integer symmetry assigments:
 Orbital symmetries:
       Occupied  (A) (A) (A) (A) (A) (A) (A) (A) (A) (A) (A) (A)
                 (A)
       Virtual   (A) (A) (A) (A) (A) (A) (A) (A) (A) (A) (A) (A)
                 (A) (A) (A) (A) (A) (A) (A) (A) (A) (A) (A) (A)
                 (A) (A) (A) (A) (A) (A) (A) (A) (A) (A) (A) (A)
                 (A) (A) (A) (A) (A) (A) (A) (A) (A) (A) (A) (A)
                 (A) (A) (A) (A) (A) (A) (A) (A) (A) (A) (A) (A)
                 (A) (A) (A) (A) (A) (A) (A) (A) (A) (A) (A) (A)
                 (A) (A) (A) (A) (A) (A) (A) (A) (A) (A) (A) (A)
                 (A) (A) (A) (A) (A) (A) (A) (A) (A) (A) (A) (A)
                 (A) (A)
   980 initial guesses have been made.
 Convergence on wavefunction:    0.001000000000000
 Davidson Disk Diagonalization:  ConvIn= 1.00D-03 SkipCon=T Conv= 1.00D-03.
 Max sub-space:  5880 roots to seek:  1960 dimension of matrix:         1960
 *** WARNING: Number of orthogonal guesses is          980
 Iteration     1 Dimension   980 NMult     0 NNew    980
 CISAX will form   980 AO SS matrices at one time.
 NMat=   980 NSing=   980 JSym2X= 0.
 New state      3 was old state      4
 New state      4 was old state      3
 New state      7 was old state      8
 New state      8 was old state      7
 New state     11 was old state     13
 New state     12 was old state     11
 New state     13 was old state     12
 New state     14 was old state     15
 New state     15 was old state     14
 New state     16 was old state     20
 New state     17 was old state     21
 New state     19 was old state     16
 New state     20 was old state     17
 New state     21 was old state     19
 New state     24 was old state     28
 New state     25 was old state     24
 New state     26 was old state     25
 New state     27 was old state     33
 New state     28 was old state     27
 New state     29 was old state     30
 New state     30 was old state     29
 New state     31 was old state     34
 New state     32 was old state     31
 New state     33 was old state     35
 New state     34 was old state     39
 New state     35 was old state     26
 New state     36 was old state     40
 New state     37 was old state     47
 New state     38 was old state     45
 New state     39 was old state     42
 New state     40 was old state     41
 New state     41 was old state     46
 New state     42 was old state     36
 New state     43 was old state     37
 New state     44 was old state     38
 New state     45 was old state     43
 New state     46 was old state     44
 New state     47 was old state     48
 New state     48 was old state     51
 New state     49 was old state     58
 New state     51 was old state     55
 New state     52 was old state     53
 New state     53 was old state     54
 New state     54 was old state     62
 New state     55 was old state     52
 New state     57 was old state     72
 New state     58 was old state     64
 New state     59 was old state     57
 New state     60 was old state     49
 New state     61 was old state     60
 New state     62 was old state     59
 New state     63 was old state     65
 New state     64 was old state     61
 New state     65 was old state     66
 New state     66 was old state     73
 New state     67 was old state     79
 New state     68 was old state     63
 New state     71 was old state     74
 New state     72 was old state     76
 New state     73 was old state     81
 New state     74 was old state     77
 New state     75 was old state     67
 New state     76 was old state     68
 New state     77 was old state     80
 New state     79 was old state     75
 New state     80 was old state     85
 New state     81 was old state     84
 New state     82 was old state     93
 New state     83 was old state     71
 New state     84 was old state     87
 New state     85 was old state     83
 New state     86 was old state     88
 New state     87 was old state     82
 New state     88 was old state     91
 New state     89 was old state     96
 New state     90 was old state     89
 New state     91 was old state     92
 New state     92 was old state     86
 New state     93 was old state     94
 New state     94 was old state     90
 New state     95 was old state     98
 New state     96 was old state    101
 New state     98 was old state    100
 New state     99 was old state    102
 New state    100 was old state    103
 New state    101 was old state     99
 New state    102 was old state    104
 New state    103 was old state    113
 New state    104 was old state    109
 New state    105 was old state    107
 New state    107 was old state    118
 New state    108 was old state    117
 New state    109 was old state    123
 New state    110 was old state    114
 New state    112 was old state    115
 New state    113 was old state    108
 New state    114 was old state    122
 New state    115 was old state    112
 New state    117 was old state    105
 New state    118 was old state    119
 New state    119 was old state    124
 New state    120 was old state    110
 New state    122 was old state    120
 New state    123 was old state    125
 New state    124 was old state    138
 New state    125 was old state    128
 New state    126 was old state    131
 New state    127 was old state    129
 New state    128 was old state    140
 New state    129 was old state    134
 New state    130 was old state    135
 New state    131 was old state    133
 New state    132 was old state    126
 New state    133 was old state    142
 New state    134 was old state    156
 New state    135 was old state    136
 New state    136 was old state    127
 New state    137 was old state    146
 New state    138 was old state    141
 New state    140 was old state    137
 New state    141 was old state    147
 New state    142 was old state    130
 New state    143 was old state    144
 New state    144 was old state    155
 New state    145 was old state    148
 New state    146 was old state    153
 New state    147 was old state    143
 New state    148 was old state    152
 New state    149 was old state    166
 New state    150 was old state    149
 New state    151 was old state    171
 New state    152 was old state    157
 New state    153 was old state    169
 New state    154 was old state    145
 New state    155 was old state    150
 New state    156 was old state    165
 New state    157 was old state    158
 New state    158 was old state    151
 New state    159 was old state    154
 New state    160 was old state    162
 New state    162 was old state    159
 New state    163 was old state    168
 New state    164 was old state    176
 New state    165 was old state    160
 New state    166 was old state    174
 New state    167 was old state    180
 New state    168 was old state    167
 New state    169 was old state    164
 New state    170 was old state    172
 New state    171 was old state    173
 New state    172 was old state    185
 New state    173 was old state    188
 New state    174 was old state    178
 New state    175 was old state    179
 New state    176 was old state    170
 New state    177 was old state    184
 New state    178 was old state    183
 New state    179 was old state    175
 New state    180 was old state    201
 New state    182 was old state    177
 New state    183 was old state    186
 New state    184 was old state    190
 New state    185 was old state    193
 New state    186 was old state    182
 New state    187 was old state    195
 New state    188 was old state    192
 New state    189 was old state    187
 New state    190 was old state    189
 New state    191 was old state    204
 New state    192 was old state    194
 New state    193 was old state    197
 New state    194 was old state    200
 New state    195 was old state    205
 New state    196 was old state    191
 New state    197 was old state    203
 New state    199 was old state    214
 New state    200 was old state    219
 New state    201 was old state    207
 New state    202 was old state    196
 New state    203 was old state    215
 New state    204 was old state    199
 New state    205 was old state    210
 New state    206 was old state    209
 New state    207 was old state    202
 New state    208 was old state    212
 New state    209 was old state    221
 New state    210 was old state    224
 New state    211 was old state    216
 New state    212 was old state    213
 New state    213 was old state    226
 New state    214 was old state    218
 New state    215 was old state    206
 New state    216 was old state    208
 New state    217 was old state    223
 New state    218 was old state    232
 New state    219 was old state    220
 New state    220 was old state    222
 New state    221 was old state    228
 New state    222 was old state    241
 New state    223 was old state    225
 New state    224 was old state    229
 New state    225 was old state    239
 New state    226 was old state    238
 New state    227 was old state    234
 New state    228 was old state    244
 New state    229 was old state    227
 New state    231 was old state    237
 New state    232 was old state    253
 New state    233 was old state    211
 New state    234 was old state    240
 New state    236 was old state    233
 New state    237 was old state    242
 New state    238 was old state    247
 New state    239 was old state    248
 New state    240 was old state    266
 New state    241 was old state    231
 New state    242 was old state    245
 New state    243 was old state    236
 New state    244 was old state    246
 New state    245 was old state    249
 New state    246 was old state    256
 New state    247 was old state    259
 New state    248 was old state    252
 New state    249 was old state    251
 New state    250 was old state    243
 New state    251 was old state    250
 New state    252 was old state    254
 New state    253 was old state    270
 New state    254 was old state    257
 New state    256 was old state    260
 New state    257 was old state    261
 New state    258 was old state    264
 New state    259 was old state    269
 New state    260 was old state    272
 New state    261 was old state    262
 New state    262 was old state    258
 New state    264 was old state    267
 New state    265 was old state    293
 New state    266 was old state    268
 New state    267 was old state    286
 New state    268 was old state    265
 New state    269 was old state    274
 New state    270 was old state    275
 New state    271 was old state    280
 New state    272 was old state    277
 New state    273 was old state    304
 New state    274 was old state    271
 New state    275 was old state    292
 New state    276 was old state    278
 New state    277 was old state    273
 New state    278 was old state    311
 New state    279 was old state    282
 New state    280 was old state    290
 New state    281 was old state    285
 New state    282 was old state    287
 New state    283 was old state    276
 New state    285 was old state    279
 New state    286 was old state    295
 New state    287 was old state    283
 New state    288 was old state    291
 New state    289 was old state    288
 New state    290 was old state    281
 New state    291 was old state    297
 New state    292 was old state    296
 New state    293 was old state    305
 New state    294 was old state    289
 New state    295 was old state    301
 New state    296 was old state    303
 New state    297 was old state    322
 New state    298 was old state    300
 New state    299 was old state    307
 New state    300 was old state    294
 New state    301 was old state    333
 New state    302 was old state    306
 New state    303 was old state    298
 New state    304 was old state    299
 New state    305 was old state    302
 New state    306 was old state    316
 New state    307 was old state    318
 New state    308 was old state    324
 New state    309 was old state    338
 New state    310 was old state    313
 New state    311 was old state    308
 New state    312 was old state    319
 New state    313 was old state    317
 New state    314 was old state    309
 New state    315 was old state    320
 New state    316 was old state    310
 New state    317 was old state    314
 New state    318 was old state    329
 New state    319 was old state    312
 New state    320 was old state    315
 New state    321 was old state    326
 New state    322 was old state    334
 New state    323 was old state    328
 New state    324 was old state    321
 New state    325 was old state    323
 New state    326 was old state    331
 New state    327 was old state    330
 New state    328 was old state    327
 New state    329 was old state    325
 New state    330 was old state    341
 New state    331 was old state    339
 New state    333 was old state    337
 New state    334 was old state    342
 New state    335 was old state    340
 New state    336 was old state    335
 New state    337 was old state    352
 New state    338 was old state    343
 New state    339 was old state    353
 New state    340 was old state    357
 New state    341 was old state    347
 New state    342 was old state    336
 New state    343 was old state    350
 New state    344 was old state    363
 New state    345 was old state    349
 New state    346 was old state    351
 New state    347 was old state    345
 New state    348 was old state    344
 New state    349 was old state    364
 New state    350 was old state    346
 New state    351 was old state    354
 New state    352 was old state    359
 New state    353 was old state    355
 New state    354 was old state    348
 New state    355 was old state    356
 New state    356 was old state    368
 New state    357 was old state    362
 New state    358 was old state    360
 New state    359 was old state    361
 New state    360 was old state    369
 New state    361 was old state    358
 New state    362 was old state    382
 New state    363 was old state    365
 New state    364 was old state    370
 New state    365 was old state    367
 New state    367 was old state    371
 New state    368 was old state    380
 New state    369 was old state    372
 New state    370 was old state    375
 New state    371 was old state    376
 New state    372 was old state    415
 New state    373 was old state    374
 New state    374 was old state    373
 New state    375 was old state    378
 New state    376 was old state    381
 New state    377 was old state    384
 New state    378 was old state    388
 New state    379 was old state    383
 New state    380 was old state    379
 New state    381 was old state    377
 New state    382 was old state    391
 New state    383 was old state    389
 New state    384 was old state    387
 New state    386 was old state    390
 New state    387 was old state    386
 New state    388 was old state    397
 New state    389 was old state    394
 New state    390 was old state    393
 New state    391 was old state    399
 New state    392 was old state    400
 New state    393 was old state    404
 New state    394 was old state    407
 New state    395 was old state    396
 New state    396 was old state    405
 New state    397 was old state    408
 New state    398 was old state    392
 New state    399 was old state    398
 New state    400 was old state    414
 New state    401 was old state    422
 New state    402 was old state    403
 New state    403 was old state    402
 New state    404 was old state    401
 New state    405 was old state    416
 New state    406 was old state    395
 New state    407 was old state    406
 New state    408 was old state    409
 New state    409 was old state    413
 New state    410 was old state    412
 New state    411 was old state    417
 New state    412 was old state    425
 New state    413 was old state    411
 New state    414 was old state    418
 New state    415 was old state    428
 New state    416 was old state    410
 New state    417 was old state    423
 New state    418 was old state    419
 New state    419 was old state    426
 New state    420 was old state    427
 New state    421 was old state    424
 New state    422 was old state    432
 New state    423 was old state    420
 New state    424 was old state    421
 New state    425 was old state    429
 New state    426 was old state    430
 New state    427 was old state    437
 New state    428 was old state    434
 No map to state    429
 New state    430 was old state    431
 New state    431 was old state    433
 New state    432 was old state    458
 New state    433 was old state    439
 New state    434 was old state    442
 New state    435 was old state    440
 New state    436 was old state    438
 New state    437 was old state    445
 New state    438 was old state    444
 New state    439 was old state    460
 New state    440 was old state    452
 New state    441 was old state    450
 New state    442 was old state    447
 New state    443 was old state    436
 New state    444 was old state    435
 New state    445 was old state    464
 New state    446 was old state    441
 New state    447 was old state    453
 New state    448 was old state    446
 New state    449 was old state    448
 New state    450 was old state    479
 New state    451 was old state    443
 New state    452 was old state    449
 New state    453 was old state    459
 New state    454 was old state    463
 New state    455 was old state    475
 New state    458 was old state    454
 New state    459 was old state    476
 New state    460 was old state    451
 New state    461 was old state    455
 New state    462 was old state    467
 New state    463 was old state    477
 New state    464 was old state    465
 New state    465 was old state    466
 New state    466 was old state    473
 New state    467 was old state    461
 New state    468 was old state    470
 New state    469 was old state    468
 New state    470 was old state    474
 New state    472 was old state    462
 New state    473 was old state    482
 New state    474 was old state    488
 New state    475 was old state    484
 New state    476 was old state    472
 New state    477 was old state    469
 New state    478 was old state    493
 New state    479 was old state    480
 New state    480 was old state    499
 New state    481 was old state    496
 New state    482 was old state    486
 New state    483 was old state    478
 New state    484 was old state    485
 New state    485 was old state    490
 New state    486 was old state    494
 New state    487 was old state    491
 New state    488 was old state    505
 New state    489 was old state    481
 New state    490 was old state    498
 New state    491 was old state    511
 New state    492 was old state    483
 New state    493 was old state    506
 New state    494 was old state    507
 New state    495 was old state    500
 New state    496 was old state    502
 New state    497 was old state    492
 New state    498 was old state    489
 New state    499 was old state    501
 New state    500 was old state    509
 New state    501 was old state    487
 New state    502 was old state    518
 New state    503 was old state    495
 New state    504 was old state    524
 New state    505 was old state    497
 New state    506 was old state    508
 New state    507 was old state    512
 New state    508 was old state    516
 New state    509 was old state    503
 New state    510 was old state    519
 New state    511 was old state    517
 New state    512 was old state    521
 New state    513 was old state    504
 New state    514 was old state    515
 New state    515 was old state    514
 New state    516 was old state    527
 New state    517 was old state    510
 New state    518 was old state    526
 New state    519 was old state    520
 New state    520 was old state    536
 New state    521 was old state    529
 New state    522 was old state    523
 New state    523 was old state    532
 New state    524 was old state    528
 New state    525 was old state    531
 New state    526 was old state    522
 New state    527 was old state    535
 New state    528 was old state    540
 New state    529 was old state    530
 New state    530 was old state    533
 New state    531 was old state    513
 New state    532 was old state    539
 New state    533 was old state    537
 New state    534 was old state    544
 New state    535 was old state    549
 New state    536 was old state    534
 New state    537 was old state    541
 New state    538 was old state    547
 New state    539 was old state    548
 New state    540 was old state    546
 New state    541 was old state    525
 New state    542 was old state    545
 New state    543 was old state    538
 New state    544 was old state    553
 New state    545 was old state    559
 New state    546 was old state    550
 New state    547 was old state    552
 New state    548 was old state    542
 New state    549 was old state    543
 New state    550 was old state    551
 New state    551 was old state    561
 New state    552 was old state    557
 New state    553 was old state    554
 New state    554 was old state    558
 New state    555 was old state    560
 New state    557 was old state    555
 New state    558 was old state    569
 New state    559 was old state    566
 New state    560 was old state    574
 New state    561 was old state    564
 New state    562 was old state    568
 New state    563 was old state    567
 New state    564 was old state    565
 New state    565 was old state    562
 New state    566 was old state    563
 New state    567 was old state    570
 New state    568 was old state    571
 New state    569 was old state    576
 New state    570 was old state    573
 No map to state    571
 New state    573 was old state    575
 New state    574 was old state    578
 New state    575 was old state    585
 New state    576 was old state    579
 New state    578 was old state    581
 New state    579 was old state    590
 New state    580 was old state    582
 New state    581 was old state    583
 New state    582 was old state    584
 New state    583 was old state    580
 New state    584 was old state    587
 New state    585 was old state    589
 New state    586 was old state    591
 New state    587 was old state    586
 New state    588 was old state    595
 New state    589 was old state    588
 New state    590 was old state    593
 New state    591 was old state    602
 New state    593 was old state    597
 New state    595 was old state    603
 New state    596 was old state    599
 New state    597 was old state    598
 New state    598 was old state    600
 New state    599 was old state    601
 New state    600 was old state    623
 New state    601 was old state    596
 New state    602 was old state    605
 New state    603 was old state    604
 New state    604 was old state    616
 New state    605 was old state    617
 New state    606 was old state    608
 New state    607 was old state    606
 New state    608 was old state    610
 New state    609 was old state    607
 New state    610 was old state    615
 New state    611 was old state    614
 New state    612 was old state    609
 New state    613 was old state    611
 New state    614 was old state    619
 New state    615 was old state    622
 New state    616 was old state    613
 New state    617 was old state    632
 New state    618 was old state    612
 New state    619 was old state    618
 New state    620 was old state    625
 New state    621 was old state    626
 New state    622 was old state    627
 New state    623 was old state    629
 New state    624 was old state    620
 New state    625 was old state    621
 New state    626 was old state    628
 New state    627 was old state    634
 New state    628 was old state    636
 New state    629 was old state    633
 New state    630 was old state    631
 New state    631 was old state    624
 New state    632 was old state    646
 New state    633 was old state    635
 New state    634 was old state    637
 New state    635 was old state    643
 New state    636 was old state    639
 New state    637 was old state    630
 New state    638 was old state    642
 New state    639 was old state    638
 New state    640 was old state    641
 New state    641 was old state    640
 New state    642 was old state    647
 New state    643 was old state    644
 New state    644 was old state    648
 New state    646 was old state    657
 No map to state    647
 New state    648 was old state    651
 New state    649 was old state    662
 New state    650 was old state    649
 New state    651 was old state    650
 New state    652 was old state    654
 New state    653 was old state    655
 New state    654 was old state    658
 New state    655 was old state    653
 New state    656 was old state    652
 New state    657 was old state    661
 New state    658 was old state    659
 New state    659 was old state    667
 New state    660 was old state    668
 New state    661 was old state    656
 New state    662 was old state    670
 New state    663 was old state    666
 New state    664 was old state    663
 New state    665 was old state    664
 New state    666 was old state    660
 New state    667 was old state    671
 New state    668 was old state    665
 New state    669 was old state    674
 New state    670 was old state    672
 New state    671 was old state    676
 New state    672 was old state    675
 New state    673 was old state    677
 New state    674 was old state    678
 New state    675 was old state    679
 New state    676 was old state    673
 New state    677 was old state    680
 New state    678 was old state    682
 New state    679 was old state    669
 New state    680 was old state    685
 New state    682 was old state    689
 New state    683 was old state    687
 New state    684 was old state    683
 New state    685 was old state    700
 New state    686 was old state    684
 New state    687 was old state    688
 New state    688 was old state    691
 New state    689 was old state    699
 New state    690 was old state    693
 New state    691 was old state    694
 New state    692 was old state    690
 New state    693 was old state    686
 New state    694 was old state    696
 New state    695 was old state    701
 New state    696 was old state    702
 New state    697 was old state    705
 New state    698 was old state    692
 New state    699 was old state    695
 New state    700 was old state    697
 New state    701 was old state    703
 New state    702 was old state    708
 New state    703 was old state    710
 New state    704 was old state    698
 New state    705 was old state    709
 New state    706 was old state    704
 New state    707 was old state    711
 New state    708 was old state    706
 New state    709 was old state    715
 New state    710 was old state    720
 New state    711 was old state    714
 New state    712 was old state    717
 New state    714 was old state    707
 New state    715 was old state    712
 New state    716 was old state    723
 New state    717 was old state    716
 New state    719 was old state    721
 New state    720 was old state    728
 New state    721 was old state    726
 New state    723 was old state    724
 New state    724 was old state    719
 New state    725 was old state    727
 New state    726 was old state    725
 New state    727 was old state    729
 New state    728 was old state    732
 New state    729 was old state    730
 New state    730 was old state    734
 New state    731 was old state    733
 New state    732 was old state    731
 New state    733 was old state    736
 New state    734 was old state    737
 New state    736 was old state    752
 New state    737 was old state    738
 New state    738 was old state    739
 New state    739 was old state    740
 New state    740 was old state    743
 New state    741 was old state    748
 New state    742 was old state    744
 New state    743 was old state    742
 New state    744 was old state    741
 New state    745 was old state    756
 New state    746 was old state    747
 New state    747 was old state    746
 New state    748 was old state    753
 New state    749 was old state    745
 New state    750 was old state    749
 New state    751 was old state    750
 New state    752 was old state    754
 New state    753 was old state    763
 New state    754 was old state    758
 New state    755 was old state    760
 New state    756 was old state    751
 New state    757 was old state    759
 New state    758 was old state    764
 New state    759 was old state    755
 New state    760 was old state    757
 New state    761 was old state    765
 New state    763 was old state    778
 New state    764 was old state    761
 New state    765 was old state    769
 New state    766 was old state    768
 New state    768 was old state    774
 New state    769 was old state    766
 New state    770 was old state    772
 New state    771 was old state    777
 New state    772 was old state    771
 New state    774 was old state    779
 New state    775 was old state    770
 New state    777 was old state    782
 New state    778 was old state    787
 New state    779 was old state    783
 New state    781 was old state    775
 New state    782 was old state    781
 New state    783 was old state    785
 New state    785 was old state    788
 New state    786 was old state    789
 New state    787 was old state    786
 New state    788 was old state    794
 New state    789 was old state    790
 New state    790 was old state    791
 New state    791 was old state    793
 New state    792 was old state    796
 New state    793 was old state    798
 New state    794 was old state    800
 New state    796 was old state    799
 New state    797 was old state    802
 New state    798 was old state    804
 New state    799 was old state    797
 New state    800 was old state    801
 New state    801 was old state    803
 New state    802 was old state    807
 New state    803 was old state    808
 New state    804 was old state    792
 New state    805 was old state    809
 New state    807 was old state    805
 No map to state    808
 New state    809 was old state    812
 New state    810 was old state    813
 New state    812 was old state    810
 New state    813 was old state    814
 New state    814 was old state    815
 New state    815 was old state    816
 New state    816 was old state    818
 New state    817 was old state    819
 New state    818 was old state    817
 New state    819 was old state    822
 New state    820 was old state    821
 New state    821 was old state    824
 New state    822 was old state    820
 New state    823 was old state    826
 New state    824 was old state    832
 New state    825 was old state    830
 New state    826 was old state    823
 New state    827 was old state    829
 New state    828 was old state    825
 New state    829 was old state    827
 New state    830 was old state    831
 New state    831 was old state    828
 New state    832 was old state    834
 New state    833 was old state    835
 New state    834 was old state    846
 New state    835 was old state    837
 New state    836 was old state    833
 New state    837 was old state    836
 New state    838 was old state    842
 New state    839 was old state    841
 New state    840 was old state    838
 New state    841 was old state    845
 New state    842 was old state    840
 New state    843 was old state    844
 New state    844 was old state    843
 New state    845 was old state    847
 New state    846 was old state    858
 New state    847 was old state    839
 New state    848 was old state    849
 New state    849 was old state    852
 New state    851 was old state    853
 New state    852 was old state    854
 New state    853 was old state    848
 New state    854 was old state    855
 New state    855 was old state    856
 New state    856 was old state    851
 New state    858 was old state    864
 New state    859 was old state    861
 New state    860 was old state    859
 New state    861 was old state    862
 New state    862 was old state    860
 New state    863 was old state    866
 New state    864 was old state    863
 New state    866 was old state    867
 New state    867 was old state    868
 New state    868 was old state    869
 New state    869 was old state    875
 New state    872 was old state    873
 New state    873 was old state    872
 New state    874 was old state    877
 New state    875 was old state    879
 New state    877 was old state    878
 New state    878 was old state    883
 New state    879 was old state    874
 New state    880 was old state    882
 New state    881 was old state    880
 New state    882 was old state    885
 New state    883 was old state    881
 New state    884 was old state    886
 New state    885 was old state    884
 New state    886 was old state    887
 New state    887 was old state    890
 New state    889 was old state    892
 New state    890 was old state    897
 New state    891 was old state    894
 New state    892 was old state    889
 New state    893 was old state    896
 New state    894 was old state    893
 New state    895 was old state    891
 New state    896 was old state    903
 New state    897 was old state    898
 New state    898 was old state    900
 New state    899 was old state    901
 New state    900 was old state    895
 New state    901 was old state    907
 New state    903 was old state    899
 New state    904 was old state    908
 New state    905 was old state    913
 New state    906 was old state    905
 New state    907 was old state    904
 New state    908 was old state    906
 New state    910 was old state    911
 New state    911 was old state    925
 New state    912 was old state    910
 New state    913 was old state    914
 New state    914 was old state    916
 New state    915 was old state    912
 New state    916 was old state    917
 New state    917 was old state    915
 New state    919 was old state    927
 New state    920 was old state    921
 New state    921 was old state    919
 New state    922 was old state    920
 New state    923 was old state    922
 New state    924 was old state    928
 New state    925 was old state    924
 New state    926 was old state    932
 New state    927 was old state    923
 New state    928 was old state    926
 New state    929 was old state    931
 New state    930 was old state    929
 New state    931 was old state    938
 New state    932 was old state    933
 New state    933 was old state    930
 New state    935 was old state    939
 New state    936 was old state    937
 New state    937 was old state    935
 New state    938 was old state    941
 New state    939 was old state    936
 New state    940 was old state    942
 New state    941 was old state    940
 New state    942 was old state    949
 New state    943 was old state    946
 New state    944 was old state    945
 New state    945 was old state    944
 New state    946 was old state    947
 New state    947 was old state    943
 New state    948 was old state    954
 New state    949 was old state    948
 New state    951 was old state    952
 New state    952 was old state    951
 New state    954 was old state    955
 New state    955 was old state    957
 New state    957 was old state    959
 New state    959 was old state    962
 New state    960 was old state    967
 New state    961 was old state    960
 New state    962 was old state    961
 New state    963 was old state    964
 New state    964 was old state    963
 New state    965 was old state    966
 New state    966 was old state    965
 New state    967 was old state    968
 No map to state    968
 New state    970 was old state    971
 New state    971 was old state    970
 New state    976 was old state    977
 New state    977 was old state    976
 Excitation Energies [eV] at current iteration:
 Root      1 :     7.451718662891428
 Root      2 :     8.963170528815541
 Root      3 :     9.090191309516298
 Root      4 :     9.511718288789572
 Root      5 :     9.609938241148051
 Root      6 :    10.024183507520880
 Root      7 :    10.420330923514260
 Root      8 :    10.498699627562520
 Root      9 :    10.628158762405250
 Root     10 :    10.666698671518520
 Root     11 :    10.908118668577660
 Root     12 :    10.986131688625350
 Root     13 :    11.089468124420660
 Root     14 :    11.470441308221750
 Root     15 :    11.515502564444610
 Root     16 :    11.540644449247790
 Root     17 :    11.643405769108700
 Root     18 :    11.720309762735870
 Root     19 :    11.891989563675830
 Root     20 :    11.977303802956840
 Root     21 :    12.133687555401990
 Root     22 :    12.212586746868420
 Root     23 :    12.280244328272420
 Root     24 :    12.350418592384760
 Root     25 :    12.437808935973530
 Root     26 :    12.598453559454480
 Root     27 :    12.666209935636740
 Root     28 :    12.678110651396450
 Root     29 :    12.786586681611640
 Root     30 :    12.860610291373260
 Root     31 :    13.007585172651670
 Root     32 :    13.061127738019320
 Root     33 :    13.113781092236100
 Root     34 :    13.229059289896620
 Root     35 :    13.278238506054120
 Root     36 :    13.310974763585830
 Root     37 :    13.384839967358880
 Root     38 :    13.438847516043700
 Root     39 :    13.498203272494240
 Root     40 :    13.569364147288050
 Root     41 :    13.670547541590770
 Root     42 :    13.720320837849790
 Root     43 :    13.859164805941160
 Root     44 :    13.907684117010260
 Root     45 :    14.009149146773000
 Root     46 :    14.031783910360900
 Root     47 :    14.184696321502760
 Root     48 :    14.266522190137550
 Root     49 :    14.332989288454470
 Root     50 :    14.409862459889680
 Root     51 :    14.467793287650430
 Root     52 :    14.573838954163980
 Root     53 :    14.612879792985170
 Root     54 :    14.632744348948390
 Root     55 :    14.709728771682590
 Root     56 :    14.868208767412930
 Root     57 :    14.910321473607120
 Root     58 :    14.969392795202040
 Root     59 :    15.027297502846440
 Root     60 :    15.037584076476720
 Root     61 :    15.168310341833700
 Root     62 :    15.230860079565800
 Root     63 :    15.298943961273450
 Root     64 :    15.310744796731520
 Root     65 :    15.409382790341720
 Root     66 :    15.470362248302570
 Root     67 :    15.502975272842060
 Root     68 :    15.589282668672150
 Root     69 :    15.659691944829230
 Root     70 :    15.839023895462710
 Root     71 :    15.860506771103620
 Root     72 :    15.871403508356260
 Root     73 :    15.919714157651270
 Root     74 :    15.938286451596270
 Root     75 :    16.053488922705670
 Root     76 :    16.197429783428780
 Root     77 :    16.203058641313750
 Root     78 :    16.269647140931200
 Root     79 :    16.300569059637130
 Root     80 :    16.324522291372250
 Root     81 :    16.400476728327950
 Root     82 :    16.456554168669730
 Root     83 :    16.477878326214930
 Root     84 :    16.525946130126640
 Root     85 :    16.588566175230900
 Root     86 :    16.613229873053390
 Root     87 :    16.665321439711890
 Root     88 :    16.789754277208810
 Root     89 :    16.888680552605090
 Root     90 :    16.909051468208550
 Root     91 :    16.959943613098470
 Root     92 :    17.026116703650020
 Root     93 :    17.084963759593410
 Root     94 :    17.140950774328790
 Root     95 :    17.192565774401230
 Root     96 :    17.273726118597810
 Root     97 :    17.341829463008750
 Root     98 :    17.353075449360380
 Root     99 :    17.397696362730220
 Root    100 :    17.470137413313480
 Root    101 :    17.512471068376770
 Root    102 :    17.570369611903790
 Root    103 :    17.658977966784130
 Root    104 :    17.694278011342530
 Root    105 :    17.758396152520290
 Root    106 :    17.762895638157700
 Root    107 :    17.848196374264520
 Root    108 :    17.897826624300230
 Root    109 :    17.944005858462120
 Root    110 :    18.021764961023820
 Root    111 :    18.093240749964130
 Root    112 :    18.112195460138790
 Root    113 :    18.185650677475950
 Root    114 :    18.208655440661830
 Root    115 :    18.233276632007720
 Root    116 :    18.258581319908190
 Root    117 :    18.294638077425920
 Root    118 :    18.349009889127070
 Root    119 :    18.406084163748600
 Root    120 :    18.433822279884160
 Root    121 :    18.498524919918840
 Root    122 :    18.529963665117340
 Root    123 :    18.567849825269750
 Root    124 :    18.599748829878430
 Root    125 :    18.661410461784570
 Root    126 :    18.732939407118310
 Root    127 :    18.760137962902010
 Root    128 :    18.828949138050340
 Root    129 :    18.939885944466500
 Root    130 :    18.971232860587110
 Root    131 :    19.034080907632860
 Root    132 :    19.081456859986710
 Root    133 :    19.136808422185230
 Root    134 :    19.175707775953980
 Root    135 :    19.211905464901940
 Root    136 :    19.242497465446810
 Root    137 :    19.276093676118090
 Root    138 :    19.291187372998290
 Root    139 :    19.331310166020110
 Root    140 :    19.362495508512110
 Root    141 :    19.396425023446080
 Root    142 :    19.501723247940110
 Root    143 :    19.551734336620580
 Root    144 :    19.575579906792080
 Root    145 :    19.612832647200940
 Root    146 :    19.686772389402710
 Root    147 :    19.729587522374130
 Root    148 :    19.766635813745910
 Root    149 :    19.802401906821860
 Root    150 :    19.828168143982140
 Root    151 :    19.872396454789520
 Root    152 :    19.907791632958830
 Root    153 :    19.952458430050050
 Root    154 :    20.003251293917730
 Root    155 :    20.070537199528830
 Root    156 :    20.110320110698690
 Root    157 :    20.147736401849830
 Root    158 :    20.185020792227080
 Root    159 :    20.247055845620580
 Root    160 :    20.270917336549220
 Root    161 :    20.352309212770650
 Root    162 :    20.377020062919580
 Root    163 :    20.435360278356550
 Root    164 :    20.483576224646360
 Root    165 :    20.537695417521870
 Root    166 :    20.563789990541160
 Root    167 :    20.685160985893140
 Root    168 :    20.724850002953150
 Root    169 :    20.738358935848440
 Root    170 :    20.764269113280520
 Root    171 :    20.796900067595720
 Root    172 :    20.851452234098500
 Root    173 :    20.913046840214150
 Root    174 :    20.939041212082300
 Root    175 :    20.960886170472090
 Root    176 :    20.992250325970680
 Root    177 :    21.033368616933970
 Root    178 :    21.063358753212500
 Root    179 :    21.119297966939970
 Root    180 :    21.132653823754570
 Root    181 :    21.239530490072600
 Root    182 :    21.245810458303930
 Root    183 :    21.301651869565400
 Root    184 :    21.361115253222920
 Root    185 :    21.383740740759840
 Root    186 :    21.482551661170710
 Root    187 :    21.517436871620610
 Root    188 :    21.549705887979760
 Root    189 :    21.591066692213920
 Root    190 :    21.616001641179950
 Root    191 :    21.662803939032740
 Root    192 :    21.690173317999890
 Root    193 :    21.716814452257760
 Root    194 :    21.750412312639240
 Root    195 :    21.790581189403180
 Root    196 :    21.839438468064830
 Root    197 :    21.873740827451950
 Root    198 :    21.892944259348660
 Root    199 :    21.952505164759020
 Root    200 :    22.028897751672230
 Root    201 :    22.048478671248850
 Root    202 :    22.066387586384690
 Root    203 :    22.096020091313230
 Root    204 :    22.154415788957280
 Root    205 :    22.221836656848150
 Root    206 :    22.233528036467080
 Root    207 :    22.293749881555510
 Root    208 :    22.368248173415030
 Root    209 :    22.395434145430980
 Root    210 :    22.449181503583930
 Root    211 :    22.470966498172050
 Root    212 :    22.488690934739610
 Root    213 :    22.533361395297220
 Root    214 :    22.569842975954490
 Root    215 :    22.611327957486280
 Root    216 :    22.655872808959840
 Root    217 :    22.670944891475210
 Root    218 :    22.698958214378500
 Root    219 :    22.799173125092540
 Root    220 :    22.819198374220450
 Root    221 :    22.844870330621850
 Root    222 :    22.878036835340800
 Root    223 :    22.916139054349050
 Root    224 :    22.958677327510550
 Root    225 :    23.003717066855370
 Root    226 :    23.029255515429300
 Root    227 :    23.052321504747450
 Root    228 :    23.101037673358780
 Root    229 :    23.169009432892050
 Root    230 :    23.197316248036400
 Root    231 :    23.223357762655720
 Root    232 :    23.264662988158360
 Root    233 :    23.316344107692890
 Root    234 :    23.339364840412450
 Root    235 :    23.358844667615730
 Root    236 :    23.432348398208950
 Root    237 :    23.449386438827940
 Root    238 :    23.475958989991710
 Root    239 :    23.509446771581810
 Root    240 :    23.570864858376190
 Root    241 :    23.599176569343650
 Root    242 :    23.673533048954660
 Root    243 :    23.712619381214750
 Root    244 :    23.768268389733930
 Root    245 :    23.777183969594450
 Root    246 :    23.794845435075890
 Root    247 :    23.848799871548590
 Root    248 :    23.931745806527810
 Root    249 :    23.948422387521660
 Root    250 :    24.000805546999630
 Root    251 :    24.047194820723160
 Root    252 :    24.106178042324600
 Root    253 :    24.152328729015030
 Root    254 :    24.180284973492030
 Root    255 :    24.211759709917240
 Root    256 :    24.234980833342100
 Root    257 :    24.294027606748510
 Root    258 :    24.358616860483010
 Root    259 :    24.408530440320220
 Root    260 :    24.425171679557430
 Root    261 :    24.459781514245250
 Root    262 :    24.537406205798600
 Root    263 :    24.550773650077360
 Root    264 :    24.647238406327710
 Root    265 :    24.683918216986050
 Root    266 :    24.689554166881970
 Root    267 :    24.724224740755970
 Root    268 :    24.813959688985980
 Root    269 :    24.848475825431430
 Root    270 :    24.859881520099880
 Root    271 :    24.895641498271890
 Root    272 :    24.942225534344840
 Root    273 :    24.970869458279080
 Root    274 :    25.050808190894330
 Root    275 :    25.070402510940070
 Root    276 :    25.110952901047590
 Root    277 :    25.160140675470430
 Root    278 :    25.210671442089820
 Root    279 :    25.246180437739220
 Root    280 :    25.293331538906220
 Root    281 :    25.374936202682270
 Root    282 :    25.408534421817370
 Root    283 :    25.461215456050020
 Root    284 :    25.534316139683480
 Root    285 :    25.561953612209940
 Root    286 :    25.586030810948270
 Root    287 :    25.608000107905480
 Root    288 :    25.621179820781360
 Root    289 :    25.681851153630430
 Root    290 :    25.731680809249730
 Root    291 :    25.793512784016400
 Root    292 :    25.841581553304600
 Root    293 :    25.907433795642010
 Root    294 :    25.919666893313380
 Root    295 :    25.972227308757090
 Root    296 :    25.994534391625560
 Root    297 :    26.008797887018010
 Root    298 :    26.037948492028220
 Root    299 :    26.116100404752360
 Root    300 :    26.213861905701480
 Root    301 :    26.246377999665710
 Root    302 :    26.300390475267640
 Root    303 :    26.391322748608110
 Root    304 :    26.431169750954750
 Root    305 :    26.461961495321540
 Root    306 :    26.545508270063560
 Root    307 :    26.575152305938540
 Root    308 :    26.601952187993170
 Root    309 :    26.703866390989700
 Root    310 :    26.812013405967830
 Root    311 :    26.827050139590110
 Root    312 :    26.923272844077770
 Root    313 :    26.953984043722720
 Root    314 :    27.071582650445020
 Root    315 :    27.112503256551280
 Root    316 :    27.145665026317200
 Root    317 :    27.162138821063620
 Root    318 :    27.213017435183920
 Root    319 :    27.264426407607050
 Root    320 :    27.288768488573970
 Root    321 :    27.330498791061300
 Root    322 :    27.395500494871110
 Root    323 :    27.421071516251890
 Root    324 :    27.447669462377900
 Root    325 :    27.486512982044470
 Root    326 :    27.580674527864240
 Root    327 :    27.629533859113730
 Root    328 :    27.647642187461780
 Root    329 :    27.717648742698470
 Root    330 :    27.821711207062190
 Root    331 :    27.904380317343310
 Root    332 :    27.971183418902570
 Root    333 :    28.009967035195250
 Root    334 :    28.033312103934050
 Root    335 :    28.044093364050710
 Root    336 :    28.117276342519750
 Root    337 :    28.141967760372590
 Root    338 :    28.296739808585090
 Root    339 :    28.340829779926780
 Root    340 :    28.396441299039220
 Root    341 :    28.466556913583840
 Root    342 :    28.554523851135410
 Root    343 :    28.659332768912670
 Root    344 :    28.691167438011120
 Root    345 :    28.779025913627970
 Root    346 :    28.840520186534280
 Root    347 :    28.948006499736530
 Root    348 :    28.961981165272770
 Root    349 :    29.021954950985160
 Root    350 :    29.036714054465700
 Root    351 :    29.096533789206960
 Root    352 :    29.316986806168780
 Root    353 :    29.355700022694450
 Root    354 :    29.453762711754560
 Root    355 :    29.515293498883290
 Root    356 :    29.547260859873450
 Root    357 :    29.667392207948450
 Root    358 :    29.701799286918620
 Root    359 :    29.816847710665870
 Root    360 :    29.848498423584720
 Root    361 :    29.933783383320840
 Root    362 :    29.990453597334990
 Root    363 :    30.124707595678980
 Root    364 :    30.162458432013000
 Root    365 :    30.252857161574990
 Root    366 :    30.277368528455540
 Root    367 :    30.347984977308670
 Root    368 :    30.386144093480930
 Root    369 :    30.414313858879860
 Root    370 :    30.489867699406990
 Root    371 :    30.593656541111660
 Root    372 :    30.614347640606810
 Root    373 :    30.660869760549860
 Root    374 :    30.733814779745100
 Root    375 :    30.841644105992300
 Root    376 :    30.929712062495890
 Root    377 :    31.022292014964770
 Root    378 :    31.076126339576730
 Root    379 :    31.111398371745810
 Root    380 :    31.133151571481850
 Root    381 :    31.142619748318850
 Root    382 :    31.193336184761790
 Root    383 :    31.300901676062520
 Root    384 :    31.358649385418420
 Root    385 :    31.394529673150250
 Root    386 :    31.448739719009620
 Root    387 :    31.500231599081640
 Root    388 :    31.508887665209900
 Root    389 :    31.673295163291110
 Root    390 :    31.756086434271000
 Root    391 :    31.852102665712570
 Root    392 :    31.918384359985410
 Root    393 :    32.015282043142010
 Root    394 :    32.094874653330410
 Root    395 :    32.114414060783690
 Root    396 :    32.197906066907540
 Root    397 :    32.233733691631250
 Root    398 :    32.317095264791100
 Root    399 :    32.351228044822420
 Root    400 :    32.402835791388410
 Root    401 :    32.427406196939340
 Root    402 :    32.479398103319220
 Root    403 :    32.526362428595680
 Root    404 :    32.561870060235400
 Root    405 :    32.666235756344090
 Root    406 :    32.717341188535490
 Root    407 :    32.774782596759380
 Root    408 :    32.787187854090700
 Root    409 :    32.916078027309060
 Root    410 :    32.941501259716170
 Root    411 :    32.980553248299610
 Root    412 :    33.071355086550450
 Root    413 :    33.130960949206880
 Root    414 :    33.177526137653020
 Root    415 :    33.241531963657780
 Root    416 :    33.318497574774860
 Root    417 :    33.327340526638300
 Root    418 :    33.413566995883020
 Root    419 :    33.459439039744180
 Root    420 :    33.672412646222580
 Root    421 :    33.740407557925030
 Root    422 :    33.809874194653910
 Root    423 :    33.967598656992910
 Root    424 :    34.036932401378640
 Root    425 :    34.101987432394770
 Root    426 :    34.166477867640110
 Root    427 :    34.215039845902190
 Root    428 :    34.281554489904900
 Root    429 :    34.310835307408380
 Root    430 :    34.525686355443090
 Root    431 :    34.532443672061710
 Root    432 :    34.637927599693840
 Root    433 :    34.664170395845550
 Root    434 :    34.719067517399740
 Root    435 :    34.816153622484440
 Root    436 :    34.898290600356430
 Root    437 :    35.034939430602910
 Root    438 :    35.097916747754890
 Root    439 :    35.141308212970730
 Root    440 :    35.194668000373670
 Root    441 :    35.282840554040610
 Root    442 :    35.329253853692700
 Root    443 :    35.420661183338360
 Root    444 :    35.455818041460070
 Root    445 :    35.603473535102170
 Root    446 :    35.684603529064230
 Root    447 :    35.806563837771870
 Root    448 :    35.876773611741350
 Root    449 :    35.906798646261170
 Root    450 :    35.930130100791420
 Root    451 :    35.963029449076740
 Root    452 :    36.046865331350210
 Root    453 :    36.139812762774870
 Root    454 :    36.340401786470160
 Root    455 :    36.361890657690910
 Root    456 :    36.439579502738430
 Root    457 :    36.536912284689130
 Root    458 :    36.567859328148100
 Root    459 :    36.617179088824990
 Root    460 :    36.635793186291360
 Root    461 :    36.752484672058640
 Root    462 :    36.790601444586540
 Root    463 :    36.803047000562960
 Root    464 :    36.842090054530600
 Root    465 :    36.967748389343800
 Root    466 :    37.021909432952920
 Root    467 :    37.170302783958700
 Root    468 :    37.225323406741520
 Root    469 :    37.354862476424240
 Root    470 :    37.456117405435770
 Root    471 :    37.508168886711090
 Root    472 :    37.576291367013790
 Root    473 :    37.618504904950580
 Root    474 :    37.658324193307450
 Root    475 :    37.758159165266720
 Root    476 :    37.870334468217980
 Root    477 :    37.903161487268020
 Root    478 :    37.930651485213300
 Root    479 :    38.038335792465500
 Root    480 :    38.099970827841840
 Root    481 :    38.240211308723050
 Root    482 :    38.275469242546710
 Root    483 :    38.368597355987970
 Root    484 :    38.394903635668060
 Root    485 :    38.530059420553340
 Root    486 :    38.621799800075810
 Root    487 :    38.853608538921400
 Root    488 :    38.896582736883890
 Root    489 :    38.933133661672410
 Root    490 :    38.956343427037590
 Root    491 :    39.024944293432110
 Root    492 :    39.075748210424290
 Root    493 :    39.338701671415780
 Root    494 :    39.446522360387290
 Root    495 :    39.463716067814770
 Root    496 :    39.507650760311250
 Root    497 :    39.556598185205090
 Root    498 :    39.652717254608710
 Root    499 :    39.732827102190160
 Root    500 :    39.795978502788250
 Root    501 :    39.983851386164460
 Root    502 :    40.022853447732540
[...]
      3   0.612373D-01 -0.589287D-01  0.385727D-01  0.113632D-01  0.270331D-01
      4   0.663222D-01 -0.498624D-01  0.539137D-01 -0.337858D-01  0.910698D-02
      5  -0.703203D-01 -0.234690D-02 -0.218963D-01 -0.708628D-01  0.118287D+00
      6  -0.188600D+00  0.171500D+00 -0.110253D+00 -0.311912D-01 -0.699704D-01
      7  -0.206021D+00  0.155703D+00 -0.149758D+00  0.105416D+00 -0.387431D-01
      8   0.525147D-01 -0.649424D-01 -0.755597D-01  0.665611D-01  0.744698D-01
      9   0.596091D+00 -0.463034D+00  0.439448D-01 -0.217406D-01  0.175304D+00
     10  -0.411078D+00 -0.390257D-01 -0.207913D-01  0.245277D-01 -0.906520D-01
     11  -0.744110D-01  0.403663D+00  0.425497D+00 -0.207222D+00  0.226011D+00
     12   0.174401D+00 -0.178459D-01 -0.382403D-01 -0.157576D+00  0.676024D-03
     13   0.175882D+00 -0.172345D+00 -0.552946D-01 -0.335108D-01  0.244429D-01
     14  -0.422801D+00  0.466007D-01  0.817866D-01  0.570824D-01  0.491405D-01
     15  -0.724809D+00  0.482085D+00 -0.141403D+00 -0.144168D-01 -0.119111D+00
     16   0.134121D+00 -0.176582D+00 -0.113946D+00 -0.619512D-01  0.798460D-01
               916           917           918           919           920 
      1  -0.150997D+03 -0.150996D+03 -0.150989D+03 -0.150977D+03 -0.150974D+03
      2   0.462890D-01  0.874210D-01 -0.813690D-02  0.293393D-03  0.102753D+00
      3   0.409534D-01  0.563338D-01 -0.332543D-01  0.710354D-01 -0.261048D-01
      4   0.212050D-01 -0.563112D-01 -0.841572D-01  0.683339D-01 -0.665665D-01
      5  -0.148880D+00 -0.264917D+00  0.252310D-01 -0.529170D-02 -0.328174D+00
      6  -0.122128D+00 -0.179429D+00  0.993345D-01 -0.214584D+00  0.862159D-01
      7  -0.699236D-01  0.192316D+00  0.258915D+00 -0.206699D+00  0.204399D+00
      8   0.769370D-01 -0.238839D+00 -0.682057D-01  0.430067D-01  0.219055D-01
      9   0.790796D-01 -0.583101D+00 -0.881721D+00  0.367455D+00 -0.410829D+00
     10  -0.234102D+00 -0.651047D+00  0.258087D-01 -0.552978D+00  0.155505D+00
     11  -0.107510D+01 -0.129124D+01 -0.431869D+00 -0.759562D+00 -0.705716D+00
     12  -0.121942D+00  0.262868D+00 -0.177688D+00 -0.191270D+00 -0.144429D+00
     13   0.942085D-01 -0.117007D+00 -0.176495D+00  0.363224D+00 -0.185950D+00
     14  -0.477181D-01 -0.370095D+00  0.798654D-01 -0.833760D+00  0.430401D+00
     15   0.738649D-01  0.711975D+00  0.902653D+00 -0.392003D+00  0.626289D+00
     16   0.840802D-01 -0.628392D-01 -0.710981D-01  0.791136D-01 -0.452008D-01
               921           922           923           924           925 
      1  -0.150969D+03 -0.150966D+03 -0.150958D+03 -0.150949D+03 -0.150942D+03
      2   0.116518D-01  0.791723D-01 -0.215152D-01 -0.778178D-01 -0.117794D+00
      3   0.447744D-01 -0.150483D-01  0.508449D-01 -0.401644D-01 -0.374580D-01
      4  -0.839835D-01  0.144129D-01 -0.727959D-02 -0.441796D-01  0.898965D-01
      5  -0.359099D-01 -0.244443D+00  0.756212D-01  0.243760D+00  0.368771D+00
      6  -0.154130D+00  0.367918D-01 -0.150522D+00  0.116337D+00  0.117643D+00
      7   0.266444D+00 -0.454661D-01  0.132575D-01  0.134837D+00 -0.283859D+00
      8  -0.161290D+00  0.229068D-01  0.479476D-01 -0.399167D-01  0.141611D+00
      9  -0.540257D+00  0.182067D+00 -0.758110D-01 -0.448313D+00  0.413796D+00
     10  -0.425362D+00 -0.280453D+00 -0.346725D-01  0.634150D+00  0.473755D+00
     11   0.108910D+00 -0.537844D+00  0.100767D+01  0.123810D+01  0.185696D+01
     12   0.970639D-01  0.342954D+00  0.251947D-02 -0.126287D-02  0.205245D-01
     13  -0.136282D+00  0.989085D-01  0.134997D-01 -0.740131D-01  0.139865D+00
     14  -0.382288D+00  0.183174D-01 -0.202788D+00  0.422468D+00  0.279451D-01
     15   0.582100D+00 -0.143713D+00 -0.689437D-01  0.277981D+00 -0.788555D+00
     16  -0.283873D-01  0.825293D-01  0.107389D+00 -0.132513D+00  0.138313D+00
               926           927           928           929           930 
      1  -0.150935D+03 -0.150930D+03 -0.150927D+03 -0.150912D+03 -0.150905D+03
      2   0.114307D-01  0.172665D-01 -0.368023D-01  0.191783D-01 -0.131864D-01
      3  -0.282223D-01  0.118266D-01  0.732888D-01  0.109019D-01 -0.350257D-01
      4   0.135123D-01  0.542668D-02  0.271277D-01 -0.475158D-01 -0.231742D-01
      5  -0.431417D-01 -0.446660D-01  0.116926D+00 -0.757080D-01  0.330299D-01
      6   0.100445D+00 -0.367755D-01 -0.230780D+00 -0.245697D-01  0.959653D-01
      7  -0.433817D-01 -0.117236D-01 -0.724023D-01  0.152206D+00  0.742939D-01
      8   0.140815D+00 -0.410214D-01 -0.265246D-01 -0.605105D-01 -0.483952D-01
      9   0.201445D+00  0.250523D-01  0.166489D+00 -0.181506D+00  0.318857D-01
     10   0.181537D+00 -0.120124D+00 -0.364296D+00  0.230418D+00 -0.369088D-01
     11  -0.156710D+00 -0.332274D+00 -0.932323D-02 -0.699530D+00  0.634377D+00
     12  -0.135360D+00 -0.247307D-01  0.179429D+00  0.508042D-01 -0.877039D-01
     13   0.279246D-01  0.836271D-01  0.128469D+00 -0.189477D+00 -0.156735D-01
     14   0.812578D-01 -0.147044D+00 -0.491594D+00  0.166380D+00  0.165450D+00
     15  -0.194579D+00 -0.303810D-01 -0.219325D+00  0.165259D+00 -0.707068D-01
     16   0.778473D-01 -0.263812D-01  0.114487D+00 -0.109802D+00 -0.617124D-01
               931           932           933           934           935 
      1  -0.150895D+03 -0.150890D+03 -0.150886D+03 -0.150877D+03 -0.150858D+03
      2   0.238579D-01  0.636498D-01  0.702944D-01  0.398805D-01  0.584427D-01
      3  -0.119646D-01  0.378272D-01  0.555294D-02 -0.667738D-02 -0.275199D-01
      4  -0.307761D-01 -0.511603D-01 -0.622430D-01 -0.101063D-01 -0.601574D-01
      5  -0.747425D-01 -0.206089D+00 -0.236013D+00 -0.124115D+00 -0.197739D+00
      6   0.298878D-01 -0.116170D+00 -0.135966D-01  0.203192D-01  0.984536D-01
      7   0.103550D+00  0.171801D+00  0.194191D+00  0.435600D-01  0.191394D+00
      8  -0.936949D-01 -0.102825D+00 -0.146948D+00 -0.138868D+00 -0.529935D-01
      9  -0.309989D+00 -0.503853D+00 -0.446515D+00 -0.418509D+00  0.257334D+00
     10  -0.313849D+00 -0.625782D+00  0.534521D-01 -0.205608D+00 -0.253450D-01
     11   0.424006D-01 -0.147713D+01 -0.914021D+00 -0.964938D-01 -0.984856D+00
     12   0.604017D-01  0.390310D+00  0.114815D+00 -0.190166D+00 -0.460597D-01
     13   0.107541D-01 -0.426912D-01 -0.115891D+00 -0.124276D+00 -0.161036D-02
     14  -0.134482D+00 -0.371017D+00  0.204121D+00 -0.230977D+00  0.846265D-01
     15   0.415952D+00  0.589967D+00  0.592480D+00  0.462073D+00 -0.685598D-01
     16  -0.115901D+00  0.729689D-01 -0.148938D+00 -0.125881D+00  0.538608D-01
               936           937           938           939           940 
      1  -0.150843D+03 -0.150836D+03 -0.150832D+03 -0.150826D+03 -0.150825D+03
      2  -0.100610D-02  0.286684D-01  0.342753D-01  0.182742D-02 -0.252920D-01
      3  -0.641839D-02  0.881809D-02  0.117148D-01 -0.493502D-02 -0.469151D-02
      4   0.249158D-01 -0.253132D-01  0.386924D-02  0.433702D-01 -0.318333D-01
      5   0.108354D-01 -0.813149D-01 -0.754212D-01 -0.293557D-01  0.698110D-01
      6   0.260914D-01 -0.288710D-01 -0.277598D-01  0.199908D-01  0.601817D-02
      7  -0.738106D-01  0.774587D-01 -0.846625D-02 -0.123028D+00  0.821333D-01
      8  -0.421448D-01  0.204896D-01 -0.348738D-01 -0.500037D-01  0.543911D-01
      9   0.389121D-01 -0.132313D+00  0.826332D-01 -0.278738D-01  0.249612D+00
     10  -0.390295D-01 -0.167640D+00 -0.140438D+00  0.593706D-01  0.196533D-01
     11   0.259059D+00  0.320895D-01  0.742916D+00 -0.590893D+00 -0.258134D-01
     12   0.900186D-01 -0.111659D+00 -0.990348D-01  0.381804D-01  0.655185D-01
     13   0.571191D-01  0.147140D+00  0.565503D-01  0.154991D-01  0.705104D-01
     14   0.946998D-01 -0.128985D+00 -0.778577D-01  0.103828D+00 -0.238355D-01
     15  -0.264254D-01  0.799649D-01 -0.101075D+00  0.973910D-01 -0.284803D+00
     16   0.824512D-03  0.157308D-01 -0.544384D-01  0.135856D-01  0.424179D-01
               941           942           943           944           945 
      1  -0.150817D+03 -0.150805D+03 -0.150789D+03 -0.150782D+03 -0.150775D+03
      2   0.361519D-02 -0.365879D-01  0.729984D-02  0.101424D+00  0.236862D-01
      3   0.298500D-01  0.407125D-02  0.933866D-01  0.154078D+00  0.500965D-01
      4  -0.180544D-01  0.510160D-01  0.162314D-01  0.136336D+00 -0.107356D-01
      5  -0.179623D-01  0.134080D+00 -0.137145D-01 -0.314425D+00 -0.794302D-01
      6  -0.103805D+00 -0.774097D-02 -0.278542D+00 -0.500576D+00 -0.146891D+00
      7   0.651157D-01 -0.177700D+00 -0.556351D-01 -0.443254D+00  0.398938D-01
      8  -0.376044D-01  0.230705D+00 -0.632373D-01  0.155296D-01  0.754929D-01
      9  -0.170052D+00  0.186812D+00  0.282185D+00  0.124773D+01 -0.236466D+00
     10  -0.312264D+00 -0.150094D+00 -0.404431D-01 -0.123509D+01  0.103233D+00
     11  -0.643702D+00  0.695922D+00 -0.335792D+00 -0.158525D+01 -0.427617D+00
     12   0.145935D+00 -0.208978D+00  0.147734D+00  0.290888D+00  0.155551D+00
     13  -0.130246D-01  0.138748D+00 -0.561092D-01  0.326533D+00 -0.107986D+00
     14  -0.309025D+00 -0.258626D+00  0.362646D-01 -0.117931D+01  0.109216D+00
     15   0.258098D+00 -0.278801D+00 -0.262499D+00 -0.116018D+01  0.375620D+00
     16  -0.559551D-01  0.534501D-01  0.284070D-01  0.315564D+00  0.671937D-01
               946           947           948           949           950 
      1  -0.150762D+03 -0.150749D+03 -0.150723D+03 -0.150699D+03 -0.150668D+03
      2  -0.236212D-01  0.118370D+00 -0.200159D-01 -0.168520D-01  0.540975D-01
      3   0.481993D-01  0.114198D+00 -0.145635D-01 -0.600120D-01  0.143027D-01
      4  -0.741037D-01  0.145082D+00  0.250672D-01 -0.543479D-01 -0.199416D-01
      5   0.887616D-01 -0.393054D+00  0.748868D-01  0.533919D-01 -0.180275D+00
      6  -0.172883D+00 -0.371850D+00  0.539881D-01  0.204438D+00 -0.296934D-01
      7   0.245837D+00 -0.466046D+00 -0.671199D-01  0.177669D+00  0.501506D-01
      8  -0.912233D-01  0.187813D+00  0.439378D-01 -0.328559D-01  0.144987D+00
      9  -0.494458D+00  0.756736D+00 -0.368183D+00 -0.319223D+00  0.254385D+00
     10  -0.409475D+00 -0.108310D+01  0.470996D+00  0.458931D+00  0.114896D+00
     11   0.279562D+00 -0.185888D+01  0.251400D+00  0.246689D+00 -0.608013D+00
     12   0.218406D+00  0.445808D+00 -0.495635D-01 -0.225460D+00 -0.265476D+00
     13  -0.202407D+00  0.266911D+00 -0.104432D+00 -0.226491D-01  0.102730D+00
     14  -0.572454D+00 -0.737452D+00  0.234578D+00  0.372906D+00  0.288877D+00
     15   0.581858D+00 -0.612712D+00  0.284874D+00  0.370822D+00 -0.130583D+00
     16  -0.167698D+00  0.348756D+00 -0.128542D+00 -0.102263D+00  0.601479D-01
               951           952           953           954           955 
      1  -0.150665D+03 -0.150662D+03 -0.150641D+03 -0.150638D+03 -0.150629D+03
      2   0.854761D-01  0.115692D-01  0.417551D-02 -0.137104D-01  0.250126D-01
      3  -0.464890D-01  0.904877D-02  0.744892D-01 -0.261740D-01 -0.375130D-01
      4   0.360607D-01  0.451543D-01  0.571211D-01 -0.110649D-02 -0.703583D-02
      5  -0.302789D+00 -0.323322D-01 -0.306160D-03  0.342285D-01 -0.969961D-01
      6   0.163096D+00 -0.332963D-01 -0.262952D+00  0.837034D-01  0.116256D+00
      7  -0.115560D+00 -0.135030D+00 -0.185469D+00  0.106362D-01  0.128322D-01
      8   0.118976D+00 -0.760351D-01  0.719111D-01 -0.775647D-01  0.945279D-01
      9   0.239799D+00 -0.446239D-01  0.407661D+00 -0.275304D+00  0.210147D+00
     10   0.219689D+00 -0.150977D+00 -0.822816D+00 -0.302176D-01 -0.166849D+00
     11  -0.138013D+01 -0.221034D-01 -0.298099D+00  0.212422D+00 -0.161024D+00
     12  -0.143136D+00 -0.887104D-01  0.497729D+00 -0.136662D+00 -0.752592D-01
     13   0.134119D+00  0.154159D-01  0.114519D+00 -0.981060D-01  0.390768D-02
     14   0.452713D+00 -0.190393D+00 -0.703239D+00  0.116686D+00 -0.323656D-01
     15  -0.238826D+00  0.391332D-01 -0.425898D+00  0.397897D+00 -0.228668D+00
     16   0.721081D-01 -0.621797D-01  0.253757D+00 -0.133888D+00  0.608530D-03
               956           957           958           959           960 
      1  -0.150593D+03 -0.150584D+03 -0.150555D+03 -0.150550D+03 -0.150543D+03
      2  -0.140695D+00 -0.434802D-02 -0.397629D-01 -0.489749D-01  0.380259D-01
      3   0.862458D-01 -0.154905D-01  0.398446D-01 -0.252747D-01  0.241324D-01
      4  -0.101902D-01  0.767551D-02  0.143847D-01 -0.261850D-01  0.168590D-02
      5   0.502511D+00  0.238291D-01  0.149994D+00  0.169598D+00 -0.123965D+00
      6  -0.316267D+00  0.539257D-01 -0.154518D+00  0.826535D-01 -0.713639D-01
      7   0.379515D-01 -0.155833D-01 -0.437348D-01  0.906075D-01 -0.457177D-02
      8  -0.796419D-01 -0.492052D-01 -0.606048D-01 -0.626703D-01 -0.175936D-02
      9  -0.134680D+00 -0.245356D+00  0.663476D-01 -0.289432D+00  0.902823D-01
     10  -0.352638D+00 -0.100848D-01 -0.383322D+00  0.265952D+00 -0.104133D+00
     11   0.208690D+01  0.592773D+00  0.811423D+00  0.577405D+00 -0.400207D+00
     12  -0.332445D-02 -0.280075D+00  0.208045D+00 -0.257316D+00 -0.180483D+00
     13  -0.296045D-01  0.679977D-01 -0.937673D-01  0.288517D+00  0.698267D-01
     14  -0.557957D+00  0.893084D-01 -0.484184D+00 -0.558664D-01 -0.713841D-01
     15  -0.927705D-01  0.277763D+00 -0.128400D+00  0.277425D+00 -0.930425D-02
     16   0.290686D-01 -0.123174D+00 -0.306980D-01  0.425410D-01 -0.476376D-01
               961           962           963           964           965 
      1  -0.150538D+03 -0.150501D+03 -0.150451D+03 -0.150429D+03 -0.150411D+03
      2  -0.693550D-01 -0.263169D-01 -0.262495D-01 -0.402563D-02  0.874956D-02
      3   0.702182D-01  0.148840D-01 -0.196935D-01 -0.109504D-01 -0.217537D-01
      4   0.943800D-02  0.345450D-01  0.304581D-01 -0.338253D-01 -0.350082D-01
      5   0.262314D+00  0.898656D-01  0.951378D-01  0.128881D-01 -0.421730D-01
      6  -0.262681D+00 -0.498084D-01  0.594674D-01  0.406189D-01  0.750370D-01
      7  -0.382491D-01 -0.112140D+00 -0.103744D+00  0.113098D+00  0.127895D+00
      8   0.384365D-01  0.797316D-02  0.272107D-02  0.712363D-01 -0.446288D-01
      9   0.123964D+00 -0.812396D-01  0.191208D+00 -0.123568D+00 -0.260038D+00
     10  -0.582456D+00 -0.209607D-02  0.457041D-01  0.892178D-01  0.566719D-01
     11   0.980325D+00  0.202303D+00  0.515541D+00  0.512773D-01 -0.696139D-01
     12   0.134209D+00  0.406760D-02  0.673300D-02 -0.106949D+00 -0.888054D-01
     13   0.494805D-01 -0.421614D-01  0.357863D-02  0.753487D-01 -0.513228D-02
     14  -0.619456D+00 -0.225567D-01 -0.197110D-01  0.317825D-01 -0.146458D-01
     15  -0.270700D+00  0.160430D+00 -0.462637D-01  0.112160D+00  0.165716D+00
     16   0.197398D+00  0.195046D-01 -0.104452D-01 -0.489312D-02 -0.997697D-01
               966           967           968           969           970 
      1  -0.150401D+03 -0.150397D+03 -0.150313D+03 -0.150297D+03 -0.150274D+03
      2  -0.170159D-01 -0.718253D-01 -0.181711D-01 -0.110606D+00  0.201329D-01
      3  -0.197949D-01 -0.859328D-01 -0.627714D-02  0.159455D+00 -0.270456D-02
      4  -0.294222D-01 -0.790591D-01  0.136507D-02 -0.717175D-01  0.126612D-01
      5   0.237757D-01  0.281392D+00  0.720279D-01  0.441249D+00 -0.912660D-01
      6   0.102442D+00  0.316236D+00  0.223217D-01 -0.615557D+00  0.169504D-01
      7   0.113909D+00  0.294913D+00 -0.178642D-03  0.265635D+00 -0.339489D-01
      8  -0.398548D-01 -0.101490D+00 -0.288614D-01 -0.198965D+00 -0.650103D-01
      9  -0.237775D+00 -0.728571D+00 -0.769525D-01 -0.642575D+00 -0.774216D-01
     10   0.185608D+00  0.901470D+00  0.366704D-01 -0.113355D+01 -0.810156D-03
     11  -0.484499D+00  0.144247D+01  0.391028D+00  0.220225D+01 -0.449639D+00
     12  -0.273409D+00 -0.253006D-01  0.193116D-01  0.448495D+00 -0.112535D-01
     13  -0.169999D-01 -0.331270D+00  0.175297D-03 -0.156995D+00 -0.998734D-02
     14   0.698538D+00  0.578747D+00 -0.120281D+00 -0.156595D+01  0.837765D-01
     15   0.291586D+00  0.507172D+00  0.185954D-01  0.425640D+00  0.137190D-01
     16  -0.111229D+00 -0.198582D+00  0.149198D-01  0.206560D+00 -0.956460D-01
               971           972           973           974           975 
      1  -0.150239D+03 -0.150210D+03 -0.150177D+03 -0.150133D+03 -0.150094D+03
      2  -0.126366D-01  0.688023D-01 -0.307517D-01 -0.279383D-01 -0.279079D-01
      3   0.460239D-02 -0.123652D-02 -0.443695D-01 -0.734860D-01 -0.972202D-03
      4   0.652192D-02 -0.706329D-01  0.202462D-01  0.120398D+00  0.113555D-01
      5   0.320042D-01 -0.284754D+00  0.124644D+00  0.124753D+00  0.119734D+00
      6  -0.385513D-02  0.228792D-01  0.162669D+00  0.272722D+00  0.689769D-03
      7  -0.238504D-01  0.276667D+00 -0.716293D-01 -0.467424D+00 -0.508467D-01
      8   0.811757D-05 -0.883189D-01  0.542308D-01  0.280968D+00  0.108041D-01
      9   0.503800D-01 -0.528321D+00  0.170679D+00  0.104466D+01  0.847922D-01
     10   0.113357D+00 -0.478642D-01  0.396805D+00  0.686211D+00  0.144066D-01
     11  -0.304143D+00 -0.130696D+01  0.494775D+00  0.451346D+00  0.615712D+00
     12  -0.203976D+00 -0.100790D+00 -0.177932D-01 -0.300801D+00  0.517151D-01
     13   0.620912D-01 -0.184960D+00 -0.816448D-02  0.379964D+00  0.189555D-01
     14   0.385092D+00  0.212598D+00  0.359509D+00  0.642469D+00 -0.893000D-01
     15   0.918484D-02  0.653142D+00 -0.262156D+00 -0.116776D+01 -0.139570D+00
     16  -0.283005D-01 -0.286168D-01 -0.689126D-01 -0.157916D-01  0.233841D-01
               976           977           978           979           980 
      1  -0.150083D+03 -0.150070D+03 -0.149935D+03 -0.149774D+03 -0.149645D+03
      2  -0.100986D-01 -0.220331D-01  0.733599D-02 -0.447747D-02  0.659678D-02
      3   0.458638D-02 -0.505852D-01  0.202407D-01  0.144505D-02  0.187499D-01
      4   0.235393D-01  0.627054D-01 -0.334585D-01  0.414069D-02 -0.258416D-01
      5  -0.116566D-01  0.731416D-01 -0.402467D-01  0.175701D-01 -0.534839D-01
      6   0.187579D-01  0.207704D+00 -0.746828D-01 -0.987950D-02 -0.525022D-01
      7  -0.850964D-01 -0.248781D+00  0.136897D+00 -0.155963D-01  0.102229D+00
      8   0.448691D-01  0.181575D+00 -0.740244D-01  0.130171D-01 -0.451249D-01
      9   0.201109D+00  0.588755D+00 -0.301625D+00  0.377531D-01 -0.210595D+00
     10   0.747399D-01  0.545996D+00 -0.193688D+00  0.569093D-02 -0.129965D+00
     11  -0.972107D-01  0.300407D+00 -0.422098D+00 -0.128682D+00 -0.161291D+00
     12  -0.704514D-01 -0.238313D+00 -0.216740D-01 -0.639779D-01  0.459001D-02
     13  -0.808803D-02  0.161837D+00 -0.890814D-01  0.456014D-01 -0.873395D-01
     14  -0.335141D-01  0.497175D+00  0.386508D-02  0.709073D-01 -0.635580D-01
     15  -0.236326D+00 -0.709816D+00  0.377777D+00 -0.306871D-01  0.255590D+00
     16  -0.871400D-01 -0.495429D-01 -0.679322D-01 -0.683162D-01  0.142488D+00
 Unable to Open any file for archive entry.
 1\1\GINC-HEL11\SP\RLC-BLYP TD-FC\Gen\C2H6O1\SABYASACHI\21-Mar-2022\0\\
 #P TD(Nstates=10000) lc-blyp/Gen SCF(maxcycles=100) Int(Grid=ultrafine
 )\\xGDB7_00001_tier4.com\\0,1\C,0,-1.208422,-0.239069,-0.021917\C,0,0.
 083893,0.553452,0.046734\O,0,1.233467,-0.256002,-0.105864\H,0,-2.07199
 9,0.425136,0.0517\H,0,-1.27067,-0.957756,0.799731\H,0,-1.270625,-0.788
 28,-0.962327\H,0,0.13003,1.119197,0.986112\H,0,0.125952,1.277026,-0.76
 8547\H,0,1.236751,-0.913605,0.591341\\Version=EM64L-G16RevC.01\State=1
 -A\HF=-154.5389313\RMSD=9.273e-09\PG=C01 [X(C2H6O1)]\\@
 The archive entry for this job was punched.


 LET US LEARN TO DREAM, GENTLEMEN, THEN PERHAPS WE SHALL
 DISCOVER THE TRUTH;  BUT LET US BEWARE OF PUBLISHING
 OUR DREAMS ABROAD BEFORE THEY HAVE BEEN SCRUTINIZED
 BY OUR VIGILANT INTELLECT ... LET US ALWAYS ALLOW
 THE FRUIT TO HANG UNTIL IT IS RIPE.  UNRIPE FRUIT
 BRINGS EVEN THE GROWER BUT LITTLE PROFIT; IT DAMAGES
 THE HEALTH OF THOSE WHO CONSUME IT; IT ENDANGERS
 PARTICULARLY THE YOUTH WHO CANNOT YET DISTINGUISH
 BETWEEN RIPE AND UNRIPE FRUIT.

                                  -- KEKULE, 1890
 Job cpu time:       0 days  0 hours 24 minutes 30.7 seconds.
 Elapsed time:       0 days  0 hours  3 minutes  4.3 seconds.
 File lengths (MBytes):  RWF=   1237 Int=      0 D2E=      0 Chk=    291 Scr=      1
 Normal termination of Gaussian 16 at Mon Mar 21 20:15:11 2022.
