 Entering Gaussian System, Link 0=g16
 Input=000013.com
 Output=000013.log
 Initial command:
 /home/sabyasachi/g16/l1.exe "/scratch/sabyasachi/PBS_7976213.helios/Gau-32126.inp" -scrdir="/scratch/sabyasachi/PBS_7976213.helios/"
 Entering Link 1 = /home/sabyasachi/g16/l1.exe PID=     32127.
  
 Copyright (c) 1988-2019, Gaussian, Inc.  All Rights Reserved.
  
 This is part of the Gaussian(R) 16 program.  It is based on
 the Gaussian(R) 09 system (copyright 2009, Gaussian, Inc.),
 the Gaussian(R) 03 system (copyright 2003, Gaussian, Inc.),
 the Gaussian(R) 98 system (copyright 1998, Gaussian, Inc.),
 the Gaussian(R) 94 system (copyright 1995, Gaussian, Inc.),
 the Gaussian 92(TM) system (copyright 1992, Gaussian, Inc.),
 the Gaussian 90(TM) system (copyright 1990, Gaussian, Inc.),
 the Gaussian 88(TM) system (copyright 1988, Gaussian, Inc.),
 the Gaussian 86(TM) system (copyright 1986, Carnegie Mellon
 University), and the Gaussian 82(TM) system (copyright 1983,
 Carnegie Mellon University). Gaussian is a federally registered
 trademark of Gaussian, Inc.
  
 This software contains proprietary and confidential information,
 including trade secrets, belonging to Gaussian, Inc.
  
 This software is provided under written license and may be
 used, copied, transmitted, or stored only in accord with that
 written license.
  
 The following legend is applicable only to US Government
 contracts under FAR:
  
                    RESTRICTED RIGHTS LEGEND
  
 Use, reproduction and disclosure by the US Government is
 subject to restrictions as set forth in subparagraphs (a)
 and (c) of the Commercial Computer Software - Restricted
 Rights clause in FAR 52.227-19.
  
 Gaussian, Inc.
 340 Quinnipiac St., Bldg. 40, Wallingford CT 06492
  
  
 ---------------------------------------------------------------
 Warning -- This program may not be used in any manner that
 competes with the business of Gaussian, Inc. or will provide
 assistance to any competitor of Gaussian, Inc.  The licensee
 of this program is prohibited from giving any competitor of
 Gaussian, Inc. access to this program.  By using this program,
 the user acknowledges that Gaussian, Inc. is engaged in the
 business of creating and licensing software in the field of
 computational chemistry and represents and warrants to the
 licensee that it is not a competitor of Gaussian, Inc. and that
 it will not use this program in any manner prohibited above.
 ---------------------------------------------------------------
  

 Cite this work as:
 Gaussian 16, Revision C.01,
 M. J. Frisch, G. W. Trucks, H. B. Schlegel, G. E. Scuseria, 
 M. A. Robb, J. R. Cheeseman, G. Scalmani, V. Barone, 
 G. A. Petersson, H. Nakatsuji, X. Li, M. Caricato, A. V. Marenich, 
 J. Bloino, B. G. Janesko, R. Gomperts, B. Mennucci, H. P. Hratchian, 
 J. V. Ortiz, A. F. Izmaylov, J. L. Sonnenberg, D. Williams-Young, 
 F. Ding, F. Lipparini, F. Egidi, J. Goings, B. Peng, A. Petrone, 
 T. Henderson, D. Ranasinghe, V. G. Zakrzewski, J. Gao, N. Rega, 
 G. Zheng, W. Liang, M. Hada, M. Ehara, K. Toyota, R. Fukuda, 
 J. Hasegawa, M. Ishida, T. Nakajima, Y. Honda, O. Kitao, H. Nakai, 
 T. Vreven, K. Throssell, J. A. Montgomery, Jr., J. E. Peralta, 
 F. Ogliaro, M. J. Bearpark, J. J. Heyd, E. N. Brothers, K. N. Kudin, 
 V. N. Staroverov, T. A. Keith, R. Kobayashi, J. Normand, 
 K. Raghavachari, A. P. Rendell, J. C. Burant, S. S. Iyengar, 
 J. Tomasi, M. Cossi, J. M. Millam, M. Klene, C. Adamo, R. Cammi, 
 J. W. Ochterski, R. L. Martin, K. Morokuma, O. Farkas, 
 J. B. Foresman, and D. J. Fox, Gaussian, Inc., Wallingford CT, 2019.
 
 ******************************************
 Gaussian 16:  EM64L-G16RevC.01  3-Jul-2019
                21-Mar-2022 
 ******************************************
 %mem=64gb
 %nproc=8
 Will use up to    8 processors via shared memory.
 ----------------------------------------------------------------------
 #P TD(Nstates=10000) lc-blyp/Gen SCF(maxcycles=100) Int(Grid=ultrafine
 )
 ----------------------------------------------------------------------
 1/38=1,172=1/1;
 2/12=2,17=6,18=5,40=1/2;
 3/5=7,11=9,25=1,30=1,74=1000402,75=-5/1,2,3,8;
 4//1;
 5/5=2,7=100,38=5/2;
 8/6=1,10=1,108=10000/1;
 9/41=10000,42=1,70=2/14;
 6/7=2,8=2,9=2,10=2/1;
 99/5=1,9=1/99;
 Leave Link    1 at Mon Mar 21 20:15:11 2022, MaxMem=  8589934592 cpu:               0.4 elap:               0.1
 (Enter /home/sabyasachi/g16/l101.exe)
 ---------------------
 xGDB7_00001_tier4.com
 ---------------------
 Symbolic Z-matrix:
 Charge =  0 Multiplicity = 1
 6                     0.        0.        0.59732 
 6                     0.        0.       -0.59732 
 1                     0.        0.        1.66134 
 1                     0.        0.       -1.66134 
 
 ITRead=  0  0  0  0
 MicOpt= -1 -1 -1 -1
 NAtoms=      4 NQM=        4 NQMF=       0 NMMI=      0 NMMIF=      0
                NMic=       0 NMicF=      0.
                    Isotopes and Nuclear Properties:
 (Nuclear quadrupole moments (NQMom) in fm**2, nuclear magnetic moments (NMagM)
  in nuclear magnetons)

  Atom         1           2           3           4
 IAtWgt=          12          12           1           1
 AtmWgt=  12.0000000  12.0000000   1.0078250   1.0078250
 NucSpn=           0           0           1           1
 AtZEff=  -0.0000000  -0.0000000  -0.0000000  -0.0000000
 NQMom=    0.0000000   0.0000000   0.0000000   0.0000000
 NMagM=    0.0000000   0.0000000   2.7928460   2.7928460
 AtZNuc=   6.0000000   6.0000000   1.0000000   1.0000000
 Leave Link  101 at Mon Mar 21 20:15:11 2022, MaxMem=  8589934592 cpu:               0.6 elap:               0.1
 (Enter /home/sabyasachi/g16/l202.exe)
                          Input orientation:                          
 ---------------------------------------------------------------------
 Center     Atomic      Atomic             Coordinates (Angstroms)
 Number     Number       Type             X           Y           Z
 ---------------------------------------------------------------------
      1          6           0        0.000000    0.000000    0.597322
      2          6           0        0.000000    0.000000   -0.597322
      3          1           0        0.000000    0.000000    1.661338
      4          1           0        0.000000    0.000000   -1.661338
 ---------------------------------------------------------------------
                    Distance matrix (angstroms):
                    1          2          3          4
     1  C    0.000000
     2  C    1.194644   0.000000
     3  H    1.064016   2.258660   0.000000
     4  H    2.258660   1.064016   3.322676   0.000000
 Stoichiometry    C2H2
 Framework group  D*H[C*(HC.CH)]
 Deg. of freedom     2
 Full point group                 D*H     NOp   8
 Largest Abelian subgroup         D2H     NOp   8
 Largest concise Abelian subgroup C2      NOp   2
                         Standard orientation:                         
 ---------------------------------------------------------------------
 Center     Atomic      Atomic             Coordinates (Angstroms)
 Number     Number       Type             X           Y           Z
 ---------------------------------------------------------------------
      1          6           0        0.000000    0.000000    0.597322
      2          6           0        0.000000    0.000000   -0.597322
      3          1           0        0.000000    0.000000    1.661338
      4          1           0        0.000000    0.000000   -1.661338
 ---------------------------------------------------------------------
 Rotational constants (GHZ):           0.0000000          35.7756801          35.7756801
 Leave Link  202 at Mon Mar 21 20:15:11 2022, MaxMem=  8589934592 cpu:               0.1 elap:               0.0
 (Enter /home/sabyasachi/g16/l301.exe)
 General basis read from cards:  (5D, 7F)
 Centers:       3      4
 S 3 1.00
     Exponent=  1.3010701000D+01 Coefficients=  1.9682158000D-02
     Exponent=  1.9622572000D+00 Coefficients=  1.3796524000D-01
     Exponent=  4.4453796000D-01 Coefficients=  4.7831935000D-01
 S 1 1.00
     Exponent=  1.2194962000D-01 Coefficients=  1.0000000000D+00
 P 1 1.00
     Exponent=  8.0000000000D-01 Coefficients=  1.0000000000D+00
 P 1 1.00
     Exponent=  1.1704099050D-01 Coefficients=  1.0000000000D+00
 ****
 Centers:       1      2
 S 5 1.00
     Exponent=  1.2384016938D+03 Coefficients=  5.4568832082D-03
     Exponent=  1.8629004992D+02 Coefficients=  4.0638409211D-02
     Exponent=  4.2251176346D+01 Coefficients=  1.8025593888D-01
     Exponent=  1.1676557932D+01 Coefficients=  4.6315121755D-01
     Exponent=  3.5930506482D+00 Coefficients=  4.4087173314D-01
 S 1 1.00
     Exponent=  4.0245147363D-01 Coefficients=  1.0000000000D+00
 S 1 1.00
     Exponent=  1.3090182668D-01 Coefficients=  1.0000000000D+00
 S 1 1.00
     Exponent=  6.7053540256D-02 Coefficients=  1.0000000000D+00
 P 3 1.00
     Exponent=  9.4680970621D+00 Coefficients=  3.8387871728D-02
     Exponent=  2.0103545142D+00 Coefficients=  2.1117025112D-01
     Exponent=  5.4771004707D-01 Coefficients=  5.1328172114D-01
 P 1 1.00
     Exponent=  1.5268613795D-01 Coefficients=  1.0000000000D+00
 D 1 1.00
     Exponent=  8.0000000000D-01 Coefficients=  1.0000000000D+00
 D 1 1.00
     Exponent=  1.1713185140D-01 Coefficients=  1.0000000000D+00
 ****
 Ernie: Thresh=  0.10000D-02 Tol=  0.10000D-05 Strict=F.
 There are    16 symmetry adapted cartesian basis functions of AG  symmetry.
 There are     2 symmetry adapted cartesian basis functions of B1G symmetry.
 There are     6 symmetry adapted cartesian basis functions of B2G symmetry.
 There are     6 symmetry adapted cartesian basis functions of B3G symmetry.
 There are     2 symmetry adapted cartesian basis functions of AU  symmetry.
 There are    16 symmetry adapted cartesian basis functions of B1U symmetry.
 There are     6 symmetry adapted cartesian basis functions of B2U symmetry.
 There are     6 symmetry adapted cartesian basis functions of B3U symmetry.
 There are    14 symmetry adapted basis functions of AG  symmetry.
 There are     2 symmetry adapted basis functions of B1G symmetry.
 There are     6 symmetry adapted basis functions of B2G symmetry.
 There are     6 symmetry adapted basis functions of B3G symmetry.
 There are     2 symmetry adapted basis functions of AU  symmetry.
 There are    14 symmetry adapted basis functions of B1U symmetry.
 There are     6 symmetry adapted basis functions of B2U symmetry.
 There are     6 symmetry adapted basis functions of B3U symmetry.
    56 basis functions,    84 primitive gaussians,    60 cartesian basis functions
     7 alpha electrons        7 beta electrons
       nuclear repulsion energy        24.8852849468 Hartrees.
 IExCor=10402 DFT=T Ex=LC-B+HF Corr=LYP ExCW=0 ScaHFX=  1.000000
 ScaDFX=  1.000000  1.000000  1.000000  1.000000 ScalE2=  1.000000  1.000000
 IRadAn=      5 IRanWt=     -1 IRanGd=            0 ICorTp=0 IEmpDi=  4
 HFx  wShort=  0.000000 wLong=  0.470000 cFull=  0.000000 cShort=  0.000000 cLong=  1.000000
 DFx  wShort=  0.000000 wLong=  0.470000 cFull=  0.000000 cShort=  0.000000 cLong=  1.000000
 NAtoms=    4 NActive=    4 NUniq=    2 SFac= 4.00D+00 NAtFMM=   60 NAOKFM=F Big=F
 Integral buffers will be    131072 words long.
 Raffenetti 1 integral format.
 Two-electron integral symmetry is turned on.
 Leave Link  301 at Mon Mar 21 20:15:11 2022, MaxMem=  8589934592 cpu:               0.5 elap:               0.1
 (Enter /home/sabyasachi/g16/l302.exe)
 NPDir=0 NMtPBC=     1 NCelOv=     1 NCel=       1 NClECP=     1 NCelD=      1
         NCelK=      1 NCelE2=     1 NClLst=     1 CellRange=     0.0.
 One-electron integrals computed using PRISM.
 One-electron integral symmetry used in STVInt
 NBasis=    56 RedAO= T EigKep=  4.85D-05  NBF=    14     2     6     6     2    14     6     6
 NBsUse=    56 1.00D-06 EigRej= -1.00D+00 NBFU=    14     2     6     6     2    14     6     6
 Precomputing XC quadrature grid using
 IXCGrd= 4 IRadAn=           5 IRanWt=          -1 IRanGd=           0 AccXCQ= 0.00D+00.
 Generated NRdTot=       0 NPtTot=           0 NUsed=           0 NTot=          32
 NSgBfM=    60    60    60    60    60 MxSgAt=     4 MxSgA2=     4.
 Leave Link  302 at Mon Mar 21 20:15:11 2022, MaxMem=  8589934592 cpu:               0.9 elap:               0.1
 (Enter /home/sabyasachi/g16/l303.exe)
 DipDrv:  MaxL=1.
 Leave Link  303 at Mon Mar 21 20:15:11 2022, MaxMem=  8589934592 cpu:               0.2 elap:               0.0
 (Enter /home/sabyasachi/g16/l308.exe)
 Leave Link  308 at Mon Mar 21 20:15:11 2022, MaxMem=  8589934592 cpu:               0.2 elap:               0.0
 (Enter /home/sabyasachi/g16/l401.exe)
 ExpMin= 6.71D-02 ExpMax= 1.24D+03 ExpMxC= 1.86D+02 IAcc=3 IRadAn=         5 AccDes= 0.00D+00
 Harris functional with IExCor=10402 and IRadAn=       5 diagonalized for initial guess.
 HarFok:  IExCor=10402 AccDes= 0.00D+00 IRadAn=         5 IDoV= 1 UseB2=F ITyADJ=14
 ICtDFT=  3500011 ScaDFX=  1.000000  1.000000  1.000000  1.000000
 FoFCou: FMM=F IPFlag=           0 FMFlag=      100000 FMFlg1=           0
         NFxFlg=           0 DoJE=T BraDBF=F KetDBF=T FulRan=T
         wScrn=  0.000000 ICntrl=       500 IOpCl=  0 I1Cent=   200000004 NGrid=           0
         NMat0=    1 NMatS0=      1 NMatT0=    0 NMatD0=    1 NMtDS0=    0 NMtDT0=    0
 Petite list used in FoFCou.
 Harris En= -73.9662239531400    
 JPrj=0 DoOrth=F DoCkMO=F.
 Initial guess orbital symmetries:
       Occupied  (SGG) (SGU) (SGG) (SGU) (SGG) (PIU) (PIU)
       Virtual   (SGG) (PIG) (PIG) (SGU) (SGG) (PIU) (PIU) (SGU)
                 (DLTG) (DLTG) (PIG) (PIG) (SGG) (SGU) (SGG) (DLTU)
                 (DLTU) (PIU) (PIU) (SGU) (PIG) (PIG) (SGU) (SGG)
                 (PIU) (PIU) (PIG) (PIG) (SGG) (SGU) (SGG) (SGU)
                 (PIU) (PIU) (SGU) (PIG) (PIG) (DLTG) (DLTG) (DLTU)
                 (DLTU) (PIU) (PIU) (SGG) (SGU) (PIG) (PIG) (SGG)
                 (SGU)
 The electronic state of the initial guess is 1-SGG.
 Leave Link  401 at Mon Mar 21 20:15:11 2022, MaxMem=  8589934592 cpu:               1.2 elap:               0.2
 (Enter /home/sabyasachi/g16/l502.exe)
 Keep R1 ints in memory in symmetry-blocked form, NReq=9729412.
 FoFCou: FMM=F IPFlag=           0 FMFlag=           0 FMFlg1=           0
         NFxFlg=           0 DoJE=F BraDBF=F KetDBF=F FulRan=T
         wScrn=  0.000000 ICntrl=       600 IOpCl=  0 I1Cent=           0 NGrid=           0
         NMat0=    1 NMatS0=   1596 NMatT0=    0 NMatD0=    1 NMtDS0=    0 NMtDT0=    0
 Petite list used in FoFCou.
 Closed shell SCF:
 Using DIIS extrapolation, IDIIS=  1040.
 NGot=  8589934592 LenX=  8589745924 LenY=  8589741883
 Requested convergence on RMS density matrix=1.00D-08 within 100 cycles.
 Requested convergence on MAX density matrix=1.00D-06.
 Requested convergence on             energy=1.00D-06.
 No special actions if energy rises.
 Integral accuracy reduced to 1.0D-05 until final iterations.

 Cycle   1  Pass 0  IDiag  1:
 E= -76.9936262214781    
 DIIS: error= 3.66D-02 at cycle   1 NSaved=   1.
 NSaved= 1 IEnMin= 1 EnMin= -76.9936262214781     IErMin= 1 ErrMin= 3.66D-02
 ErrMax= 3.66D-02  0.00D+00 EMaxC= 1.00D-01 BMatC= 2.70D-02 BMatP= 2.70D-02
 IDIUse=3 WtCom= 6.34D-01 WtEn= 3.66D-01
 Coeff-Com:  0.100D+01
 Coeff-En:   0.100D+01
 Coeff:      0.100D+01
 Gap=     0.457 Goal=   None    Shift=    0.000
 GapD=    0.457 DampG=2.000 DampE=0.500 DampFc=1.0000 IDamp=-1.
 RMSDP=2.40D-02 MaxDP=4.41D-01              OVMax= 8.16D-02

 Cycle   2  Pass 0  IDiag  1:
 E= -77.0158813946783     Delta-E=       -0.022255173200 Rises=F Damp=F
 DIIS: error= 1.29D-02 at cycle   2 NSaved=   2.
 NSaved= 2 IEnMin= 2 EnMin= -77.0158813946783     IErMin= 2 ErrMin= 1.29D-02
 ErrMax= 1.29D-02  0.00D+00 EMaxC= 1.00D-01 BMatC= 5.62D-03 BMatP= 2.70D-02
 IDIUse=3 WtCom= 8.71D-01 WtEn= 1.29D-01
 Coeff-Com:  0.304D+00 0.696D+00
 Coeff-En:   0.000D+00 0.100D+01
 Coeff:      0.265D+00 0.735D+00
 Gap=     0.519 Goal=   None    Shift=    0.000
 RMSDP=5.97D-03 MaxDP=1.38D-01 DE=-2.23D-02 OVMax= 2.82D-02

 Cycle   3  Pass 0  IDiag  1:
 E= -77.0218821842414     Delta-E=       -0.006000789563 Rises=F Damp=F
 DIIS: error= 2.51D-03 at cycle   3 NSaved=   3.
 NSaved= 3 IEnMin= 3 EnMin= -77.0218821842414     IErMin= 3 ErrMin= 2.51D-03
 ErrMax= 2.51D-03  0.00D+00 EMaxC= 1.00D-01 BMatC= 8.73D-05 BMatP= 5.62D-03
 IDIUse=3 WtCom= 9.75D-01 WtEn= 2.51D-02
 Coeff-Com: -0.413D-01 0.220D-01 0.102D+01
 Coeff-En:   0.000D+00 0.000D+00 0.100D+01
 Coeff:     -0.403D-01 0.214D-01 0.102D+01
 Gap=     0.513 Goal=   None    Shift=    0.000
 RMSDP=1.48D-03 MaxDP=2.83D-02 DE=-6.00D-03 OVMax= 4.83D-03

 Cycle   4  Pass 0  IDiag  1:
 E= -77.0220054137065     Delta-E=       -0.000123229465 Rises=F Damp=F
 DIIS: error= 2.56D-04 at cycle   4 NSaved=   4.
 NSaved= 4 IEnMin= 4 EnMin= -77.0220054137065     IErMin= 4 ErrMin= 2.56D-04
 ErrMax= 2.56D-04  0.00D+00 EMaxC= 1.00D-01 BMatC= 1.14D-06 BMatP= 8.73D-05
 IDIUse=3 WtCom= 9.97D-01 WtEn= 2.56D-03
 Coeff-Com: -0.646D-02-0.246D-01-0.880D-01 0.112D+01
 Coeff-En:   0.000D+00 0.000D+00 0.000D+00 0.100D+01
 Coeff:     -0.644D-02-0.245D-01-0.878D-01 0.112D+01
 Gap=     0.513 Goal=   None    Shift=    0.000
 RMSDP=3.00D-04 MaxDP=6.62D-03 DE=-1.23D-04 OVMax= 9.02D-04

 Cycle   5  Pass 0  IDiag  1:
 E= -77.0220090327083     Delta-E=       -0.000003619002 Rises=F Damp=F
 DIIS: error= 4.94D-05 at cycle   5 NSaved=   5.
 NSaved= 5 IEnMin= 5 EnMin= -77.0220090327083     IErMin= 5 ErrMin= 4.94D-05
 ErrMax= 4.94D-05  0.00D+00 EMaxC= 1.00D-01 BMatC= 2.46D-08 BMatP= 1.14D-06
 IDIUse=1 WtCom= 1.00D+00 WtEn= 0.00D+00
 Coeff-Com:  0.156D-02 0.385D-02-0.181D-02-0.214D+00 0.121D+01
 Coeff:      0.156D-02 0.385D-02-0.181D-02-0.214D+00 0.121D+01
 Gap=     0.513 Goal=   None    Shift=    0.000
 RMSDP=1.91D-05 MaxDP=3.14D-04 DE=-3.62D-06 OVMax= 1.60D-04

 Cycle   6  Pass 0  IDiag  1:
 E= -77.0220091119863     Delta-E=       -0.000000079278 Rises=F Damp=F
 DIIS: error= 2.48D-06 at cycle   6 NSaved=   6.
 NSaved= 6 IEnMin= 6 EnMin= -77.0220091119863     IErMin= 6 ErrMin= 2.48D-06
 ErrMax= 2.48D-06  0.00D+00 EMaxC= 1.00D-01 BMatC= 2.34D-10 BMatP= 2.46D-08
 IDIUse=1 WtCom= 1.00D+00 WtEn= 0.00D+00
 Coeff-Com: -0.129D-03-0.139D-03 0.260D-02 0.948D-02-0.159D+00 0.115D+01
 Coeff:     -0.129D-03-0.139D-03 0.260D-02 0.948D-02-0.159D+00 0.115D+01
 Gap=     0.513 Goal=   None    Shift=    0.000
 RMSDP=3.28D-06 MaxDP=4.92D-05 DE=-7.93D-08 OVMax= 1.27D-05

 Initial convergence to 1.0D-05 achieved.  Increase integral accuracy.
 Cycle   7  Pass 1  IDiag  1:
 E= -77.0220088879724     Delta-E=        0.000000224014 Rises=F Damp=F
 DIIS: error= 3.22D-07 at cycle   1 NSaved=   1.
 NSaved= 1 IEnMin= 1 EnMin= -77.0220088879724     IErMin= 1 ErrMin= 3.22D-07
 ErrMax= 3.22D-07  0.00D+00 EMaxC= 1.00D-01 BMatC= 4.12D-12 BMatP= 4.12D-12
 IDIUse=1 WtCom= 1.00D+00 WtEn= 0.00D+00
 Coeff-Com:  0.100D+01
 Coeff:      0.100D+01
 Gap=     0.513 Goal=   None    Shift=    0.000
 RMSDP=3.28D-06 MaxDP=4.92D-05 DE= 2.24D-07 OVMax= 1.39D-06

 Cycle   8  Pass 1  IDiag  1:
 E= -77.0220088879820     Delta-E=       -0.000000000010 Rises=F Damp=F
 DIIS: error= 8.85D-08 at cycle   2 NSaved=   2.
 NSaved= 2 IEnMin= 2 EnMin= -77.0220088879820     IErMin= 2 ErrMin= 8.85D-08
 ErrMax= 8.85D-08  0.00D+00 EMaxC= 1.00D-01 BMatC= 2.28D-13 BMatP= 4.12D-12
 IDIUse=1 WtCom= 1.00D+00 WtEn= 0.00D+00
 Coeff-Com: -0.251D+00 0.125D+01
 Coeff:     -0.251D+00 0.125D+01
 Gap=     0.513 Goal=   None    Shift=    0.000
 RMSDP=4.25D-07 MaxDP=9.02D-06 DE=-9.66D-12 OVMax= 4.85D-07

 Cycle   9  Pass 1  IDiag  1:
 E= -77.0220088879832     Delta-E=       -0.000000000001 Rises=F Damp=F
 DIIS: error= 1.35D-08 at cycle   3 NSaved=   3.
 NSaved= 3 IEnMin= 3 EnMin= -77.0220088879832     IErMin= 3 ErrMin= 1.35D-08
 ErrMax= 1.35D-08  0.00D+00 EMaxC= 1.00D-01 BMatC= 4.16D-15 BMatP= 2.28D-13
 IDIUse=1 WtCom= 1.00D+00 WtEn= 0.00D+00
 Coeff-Com:  0.219D-01-0.192D+00 0.117D+01
 Coeff:      0.219D-01-0.192D+00 0.117D+01
 Gap=     0.513 Goal=   None    Shift=    0.000
 RMSDP=2.08D-08 MaxDP=4.89D-07 DE=-1.14D-12 OVMax= 6.99D-08

 Cycle  10  Pass 1  IDiag  1:
 E= -77.0220088879826     Delta-E=        0.000000000001 Rises=F Damp=F
 DIIS: error= 3.16D-09 at cycle   4 NSaved=   4.
 NSaved= 4 IEnMin= 3 EnMin= -77.0220088879832     IErMin= 4 ErrMin= 3.16D-09
 ErrMax= 3.16D-09  0.00D+00 EMaxC= 1.00D-01 BMatC= 2.72D-16 BMatP= 4.16D-15
 IDIUse=1 WtCom= 1.00D+00 WtEn= 0.00D+00
 Coeff-Com:  0.134D-01-0.773D-01 0.224D+00 0.840D+00
 Coeff:      0.134D-01-0.773D-01 0.224D+00 0.840D+00
 Gap=     0.513 Goal=   None    Shift=    0.000
 RMSDP=6.29D-09 MaxDP=1.42D-07 DE= 5.40D-13 OVMax= 9.23D-09

 SCF Done:  E(RLC-B+HF-LYP) =  -77.0220088880     A.U. after   10 cycles
            NFock= 10  Conv=0.63D-08     -V/T= 2.0106
 KE= 7.621600478342D+01 PE=-2.282050754691D+02 EE= 5.008177685085D+01
 Leave Link  502 at Mon Mar 21 20:15:12 2022, MaxMem=  8589934592 cpu:               2.6 elap:               0.3
 (Enter /home/sabyasachi/g16/l801.exe)
 DoSCS=F DFT=T ScalE2(SS,OS)=  1.000000  1.000000
 ExpMin= 6.71D-02 ExpMax= 1.24D+03 ExpMxC= 1.86D+02 IAcc=3 IRadAn=         5 AccDes= 0.00D+00
 HarFok:  IExCor=  205 AccDes= 0.00D+00 IRadAn=         5 IDoV=-2 UseB2=F ITyADJ=14
 ICtDFT= 12500011 ScaDFX=  1.000000  1.000000  1.000000  1.000000
 Largest valence mixing into a core orbital is  6.38D-05
 Largest core mixing into a valence orbital is  5.79D-06
 Range of M.O.s used for correlation:     3    56
 NBasis=    56 NAE=     7 NBE=     7 NFC=     2 NFV=     0
 NROrb=     54 NOA=     5 NOB=     5 NVA=    49 NVB=    49

 **** Warning!!: The largest alpha MO coefficient is  0.66361286D+02

 Leave Link  801 at Mon Mar 21 20:15:12 2022, MaxMem=  8589934592 cpu:               0.4 elap:               0.1
 (Enter /home/sabyasachi/g16/l914.exe)
 RHF ground state
 Keep R1, R2, and R3 ints in memory in symmetry-blocked form, NReq=95156784.
 FoFCou: FMM=F IPFlag=           0 FMFlag=           0 FMFlg1=           0
         NFxFlg=           0 DoJE=F BraDBF=F KetDBF=F FulRan=T
         wScrn=  0.000000 ICntrl=       600 IOpCl=  0 I1Cent=           0 NGrid=           0
         NMat0=    1 NMatS0=   1596 NMatT0=    0 NMatD0=    1 NMtDS0=    0 NMtDT0=    0
 Petite list used in FoFCou.
 MDV=  8589934592 DFT=T DoStab=F Mixed=T DoRPA=T DoScal=F NonHer=T
 Making orbital integer symmetry assigments:
 Orbital symmetries:
       Occupied  (SGG) (SGU) (SGG) (SGU) (SGG) (PIU) (PIU)
       Virtual   (SGG) (SGU) (PIG) (PIG) (SGG) (PIU) (PIU) (SGU)
                 (DLTG) (DLTG) (PIG) (PIG) (SGG) (SGU) (SGG) (DLTU)
                 (DLTU) (PIG) (PIG) (PIU) (PIU) (SGU) (SGU) (SGG)
                 (PIU) (PIU) (SGG) (PIG) (PIG) (SGU) (SGG) (SGU)
                 (PIU) (PIU) (SGU) (PIG) (PIG) (DLTG) (DLTG) (DLTU)
                 (DLTU) (PIU) (PIU) (SGG) (SGU) (PIG) (PIG) (SGG)
                 (SGU)
   245 initial guesses have been made.
 Convergence on wavefunction:    0.001000000000000
 Davidson Disk Diagonalization:  ConvIn= 1.00D-03 SkipCon=T Conv= 1.00D-03.
 Max sub-space:  1470 roots to seek:   490 dimension of matrix:          490
 *** WARNING: Number of orthogonal guesses is          245
 Iteration     1 Dimension   245 NMult     0 NNew    245
 CISAX will form   245 AO SS matrices at one time.
 NMat=   245 NSing=   245 JSym2X=-1.
 New state      1 was old state      5
 New state      2 was old state      8
 New state      3 was old state      6
 New state      4 was old state      1
 New state      5 was old state      2
 New state      6 was old state      3
 New state      7 was old state      4
 New state      8 was old state      9
 New state      9 was old state     10
 New state     10 was old state      7
 New state     11 was old state     12
 New state     12 was old state     13
 New state     13 was old state     14
 New state     14 was old state     15
 New state     15 was old state     16
 New state     16 was old state     23
 New state     17 was old state     24
 New state     18 was old state     11
 New state     21 was old state     22
 New state     22 was old state     21
 New state     23 was old state     18
 New state     24 was old state     17
 New state     26 was old state     28
 New state     28 was old state     35
 New state     29 was old state     34
 New state     30 was old state     26
 New state     34 was old state     36
 New state     35 was old state     37
 New state     36 was old state     29
 New state     37 was old state     43
 New state     38 was old state     42
 New state     39 was old state     40
 New state     40 was old state     41
 New state     41 was old state     30
 New state     42 was old state     45
 New state     43 was old state     44
 New state     44 was old state     39
 New state     45 was old state     38
 New state     47 was old state     53
 New state     48 was old state     54
 New state     49 was old state     52
 New state     50 was old state     58
 New state     51 was old state     59
 New state     52 was old state     55
 New state     53 was old state     47
 New state     54 was old state     56
 New state     55 was old state     57
 New state     56 was old state     61
 New state     57 was old state     62
 New state     58 was old state     49
 New state     59 was old state     48
 New state     60 was old state     50
 New state     61 was old state     51
 New state     62 was old state     60
 New state     63 was old state     69
 New state     64 was old state     70
 New state     65 was old state     67
 New state     66 was old state     68
 New state     67 was old state     64
 New state     68 was old state     63
 New state     69 was old state     65
 New state     70 was old state     72
 New state     72 was old state     73
 New state     73 was old state     74
 New state     74 was old state     66
 New state     79 was old state     83
 New state     80 was old state     84
 New state     81 was old state     79
 New state     82 was old state     81
 New state     83 was old state     82
 New state     84 was old state     86
 New state     85 was old state     87
 New state     86 was old state     92
 New state     87 was old state     93
 New state     88 was old state     80
 New state     89 was old state     91
 New state     91 was old state     89
 New state     92 was old state     85
 New state     93 was old state     88
 New state     94 was old state     96
 New state     95 was old state     97
 New state     96 was old state     99
 New state     97 was old state    100
 New state     98 was old state    101
 New state     99 was old state    102
 New state    100 was old state    106
 New state    101 was old state    107
 New state    102 was old state    105
 New state    103 was old state     94
 New state    104 was old state     95
 New state    105 was old state     98
 New state    106 was old state    104
 New state    107 was old state    103
 New state    108 was old state    109
 New state    109 was old state    108
 New state    111 was old state    113
 New state    112 was old state    114
 New state    113 was old state    117
 New state    114 was old state    118
 New state    115 was old state    111
 New state    116 was old state    112
 New state    117 was old state    119
 New state    118 was old state    115
 New state    119 was old state    116
 New state    120 was old state    122
 New state    121 was old state    123
 New state    122 was old state    120
 New state    123 was old state    121
 New state    124 was old state    128
 New state    125 was old state    127
 New state    126 was old state    129
 New state    127 was old state    125
 New state    128 was old state    126
 New state    129 was old state    124
 New state    130 was old state    131
 New state    131 was old state    132
 New state    132 was old state    133
 New state    133 was old state    134
 New state    134 was old state    130
 New state    135 was old state    137
 New state    137 was old state    135
 New state    138 was old state    139
 New state    139 was old state    140
 New state    140 was old state    138
 New state    143 was old state    144
 New state    144 was old state    145
 New state    145 was old state    143
 New state    147 was old state    148
 New state    148 was old state    149
 New state    149 was old state    147
 New state    150 was old state    151
 New state    151 was old state    150
 New state    153 was old state    155
 New state    154 was old state    156
 New state    155 was old state    154
 New state    156 was old state    153
 New state    157 was old state    160
 New state    158 was old state    161
 New state    159 was old state    158
 New state    160 was old state    159
 New state    161 was old state    162
 New state    162 was old state    157
 New state    166 was old state    174
 New state    167 was old state    173
 New state    168 was old state    167
 New state    169 was old state    166
 New state    170 was old state    168
 New state    171 was old state    169
 New state    172 was old state    171
 New state    173 was old state    172
 New state    174 was old state    170
 New state    175 was old state    178
 New state    176 was old state    177
 New state    177 was old state    176
 New state    178 was old state    175
 New state    180 was old state    183
 New state    181 was old state    184
 New state    182 was old state    180
 New state    183 was old state    181
 New state    184 was old state    182
 New state    187 was old state    189
 New state    188 was old state    190
 New state    189 was old state    192
 New state    190 was old state    191
 New state    191 was old state    188
 New state    192 was old state    187
 New state    193 was old state    196
 New state    194 was old state    195
 New state    195 was old state    197
 New state    196 was old state    193
 New state    197 was old state    194
 New state    200 was old state    202
 New state    201 was old state    203
 New state    202 was old state    200
 New state    203 was old state    201
 New state    208 was old state    209
 New state    209 was old state    208
 New state    212 was old state    213
 New state    213 was old state    214
 New state    214 was old state    212
 New state    215 was old state    216
 New state    216 was old state    217
 New state    217 was old state    215
 New state    225 was old state    227
 New state    227 was old state    229
 New state    228 was old state    225
 New state    229 was old state    228
 New state    230 was old state    231
 New state    231 was old state    230
 New state    236 was old state    237
 New state    237 was old state    236
 New state    241 was old state    242
 New state    242 was old state    241
 Excitation Energies [eV] at current iteration:
 Root      1 :     6.561942808513617
 Root      2 :     7.001816580684690
 Root      3 :     7.001816815760488
 Root      4 :     8.809259411240767
 Root      5 :     8.809259411240786
 Root      6 :     9.411154270184854
 Root      7 :     9.411154270185090
 Root      8 :    10.582524479405510
 Root      9 :    10.582524479405540
 Root     10 :    10.638283629564540
 Root     11 :    12.279292034881240
 Root     12 :    12.308710119337750
 Root     13 :    12.308710184356640
 Root     14 :    12.344373444134380
 Root     15 :    12.344373444134440
 Root     16 :    12.946580654248970
 Root     17 :    12.946580654248980
 Root     18 :    13.117871776133920
 Root     19 :    13.513615511363550
 Root     20 :    13.513615511363560
 Root     21 :    14.019230920626740
 Root     22 :    14.019230920626750
 Root     23 :    14.661828720117550
 Root     24 :    14.671237577393380
 Root     25 :    14.780626465265180
 Root     26 :    14.843973085553010
 Root     27 :    14.843973195170180
 Root     28 :    16.188556406782020
 Root     29 :    16.188556406782110
 Root     30 :    16.367383147863170
 Root     31 :    16.695915220044690
 Root     32 :    16.867920271819090
 Root     33 :    16.867920271819370
 Root     34 :    17.114543661715030
 Root     35 :    17.114543661715160
 Root     36 :    17.163484946504410
 Root     37 :    17.703967174642520
 Root     38 :    17.703967174642580
 Root     39 :    17.833395409498960
 Root     40 :    17.833395409499020
 Root     41 :    17.848977907136160
 Root     42 :    17.882474052845890
 Root     43 :    17.882474052845970
 Root     44 :    18.024111562822380
 Root     45 :    18.024111562822480
 Root     46 :    18.103088718935190
 Root     47 :    18.181762327459720
 Root     48 :    18.206652747940300
 Root     49 :    18.206653218394250
 Root     50 :    18.895795479364040
 Root     51 :    18.895795479364070
 Root     52 :    18.973705251643260
 Root     53 :    19.165963770311370
 Root     54 :    19.305120683182610
 Root     55 :    19.305120683182920
 Root     56 :    19.410071220841980
 Root     57 :    19.410071319900060
 Root     58 :    19.599844345430390
 Root     59 :    19.599844998912240
 Root     60 :    19.635718687800680
 Root     61 :    20.154322138792780
 Root     62 :    20.567980647350720
 Root     63 :    20.672895903003430
 Root     64 :    20.672895903003450
 Root     65 :    21.359921110707020
 Root     66 :    21.359921304696690
 Root     67 :    21.531945190120410
 Root     68 :    21.531945190120420
 Root     69 :    22.016403961723860
 Root     70 :    22.424952066881230
 Root     71 :    22.779003248162390
 Root     72 :    22.878308130323540
 Root     73 :    22.878308130323680
 Root     74 :    22.886311109394660
 Root     75 :    23.583993580925260
 Root     76 :    23.895391505422540
 Root     77 :    23.895392422277640
 Root     78 :    24.074793015837690
 Root     79 :    24.505004454536940
 Root     80 :    24.505004454537020
 Root     81 :    24.797957441151190
 Root     82 :    25.291875470520010
 Root     83 :    25.291875470520360
 Root     84 :    25.322446061599440
 Root     85 :    25.322446061601860
 Root     86 :    25.593692281537950
 Root     87 :    25.593693013077830
 Root     88 :    25.600768789997540
 Root     89 :    25.725292200086180
 Root     90 :    25.809000109198720
 Root     91 :    25.809000109198740
 Root     92 :    25.858964317470890
 Root     93 :    26.424451868566820
 Root     94 :    26.619002243339750
 Root     95 :    26.619002243339870
 Root     96 :    26.821245503929820
 Root     97 :    26.821245671504190
 Root     98 :    26.852396420046650
 Root     99 :    26.852396420046690
 Root    100 :    27.135313718858290
 Root    101 :    27.237372143566460
 Root    102 :    27.237372408239720
 Root    103 :    27.354921295498310
 Root    104 :    27.354921295498640
 Root    105 :    27.619191363965880
 Root    106 :    28.280208761676920
 Root    107 :    28.280208761676980
 Root    108 :    29.485676454324340
 Root    109 :    30.325985496501710
 Root    110 :    30.510653809652200
 Root    111 :    30.871433881266430
 Root    112 :    30.871434770223090
 Root    113 :    31.340341698607970
 Root    114 :    31.340341698608130
 Root    115 :    31.385052515679950
 Root    116 :    31.390167437678230
 Root    117 :    32.425327035150450
 Root    118 :    32.782151874892030
 Root    119 :    32.782151874892280
 Root    120 :    33.315911246778220
 Root    121 :    33.315911246778580
 Root    122 :    33.361194898889130
 Root    123 :    34.307338379409880
 Root    124 :    34.351286027334370
 Root    125 :    34.351286686327340
 Root    126 :    34.378460269280880
 Root    127 :    34.790328749281140
 Root    128 :    34.790328749281450
 Root    129 :    35.081956606490940
 Root    130 :    35.305079504632730
 Root    131 :    35.305079504633380
 Root    132 :    35.376918201734090
 Root    133 :    35.376918201734210
 Root    134 :    36.429130190114260
 Root    135 :    38.167079065815440
 Root    136 :    38.167079065816410
 Root    137 :    38.740762880451210
 Root    138 :    39.427400614669180
 Root    139 :    39.427400614669520
 Root    140 :    40.053212476316830
 Root    141 :    40.401691033964080
 Root    142 :    40.401691033964400
 Root    143 :    40.640188987630160
 Root    144 :    40.640188987632760
 Root    145 :    40.899526139692410
 Root    146 :    42.908641747018860
 Root    147 :    43.027855447239010
 Root    148 :    43.027855447241170
 Root    149 :    43.249696465629650
 Root    150 :    44.157800052774750
 Root    151 :    44.800382313338650
 Root    152 :    45.458797127353960
 Root    153 :    46.839413815305150
 Root    154 :    46.871928734929460
 Root    155 :    46.871929171541450
 Root    156 :    47.262414888607880
 Root    157 :    47.545859503427520
 Root    158 :    47.545859503430340
 Root    159 :    47.720335328265750
 Root    160 :    48.534885388043720
 Root    161 :    48.913509267455500
 Root    162 :    49.083216022334330
 Root    163 :    51.050608846929370
 Root    164 :    51.050608846931460
 Root    165 :    51.260613308380460
 Root    166 :    51.531547473446490
 Root    167 :    51.531547473446490
 Root    168 :    51.787241550084480
 Root    169 :    51.787241650380050
 Root    170 :    51.807696375695300
 Root    171 :    52.164407105145830
 Root    172 :    52.393311218952600
 Root    173 :    52.393311218953070
 Root    174 :    54.260509671192200
 Root    175 :    55.393727191278970
 Root    176 :    55.393727191279400
 Root    177 :    56.048566373377760
 Root    178 :    56.048566373378190
 Root    179 :    57.120431945357480
 Root    180 :    57.716207036060500
 Root    181 :    57.716207162785500
 Root    182 :    58.228636312098280
 Root    183 :    58.228636312098370
 Root    184 :    59.162389768033170
 Root    185 :    59.687631993749350
 Root    186 :    59.687631993749420
 Root    187 :    60.177280302711180
 Root    188 :    60.177280416690440
 Root    189 :    60.916431447620480
 Root    190 :    60.916431447620580
 Root    191 :    61.065888798377540
 Root    192 :    61.065888798377620
 Root    193 :    62.672757137550450
 Root    194 :    62.672757350887690
 Root    195 :    62.704272601421340
 Root    196 :    62.975010701479400
 Root    197 :    62.975010701479400
 Root    198 :    63.841332060439120
 Root    199 :    64.159407115217530
 Root    200 :    64.795075266835240
 Root    201 :    64.795075266835250
 Root    202 :    64.929084671927900
 Root    203 :    64.929084671928250
 Root    204 :    65.153589389033430
 Root    205 :    65.153589591192850
 Root    206 :    67.453520548462920
 Root    207 :    67.453520794975560
 Root    208 :    69.191630634581090
 Root    209 :    69.191630634581800
 Root    210 :    70.212339943287660
 Root    211 :    70.212340186526250
 Root    212 :    70.940240963727970
 Root    213 :    70.940240963728560
 Root    214 :    71.208525864452980
 Root    215 :    72.485699023007570
 Root    216 :    72.485699023007810
 Root    217 :    72.842515246250070
 Root    218 :    74.352458745453760
 Root    219 :    74.352459049434270
 Root    220 :    76.175105002359740
 Root    221 :    76.175105002359910
 Root    222 :    77.636144382862200
 Root    223 :    79.228015820115910
 Root    224 :    81.244308127413630
 Root    225 :    85.309614702353310
 Root    226 :    85.309614703265960
 Root    227 :    85.515332050563320
 Root    228 :    85.725996027919750
 Root    229 :    86.407863388712640
 Root    230 :    91.956003969339210
 Root    231 :    91.956003969340090
 Root    232 :    94.132829354440720
 Root    233 :    94.132829354441300
 Root    234 :    96.760975727342040
 Root    235 :    96.760975727342110
 Root    236 :    98.529178821748450
 Root    237 :    98.529178821748500
 Root    238 :   103.413584619441600
 Root    239 :   105.147126542626500
 Root    240 :   110.041198350085100
 Root    241 :   117.200786646921400
 Root    242 :   117.200786646921700
 Root    243 :   123.757357879956800
 Root    244 :   125.836953382747500
 Root    245 :   130.627018730447000
 Convergence achieved for final wavefunctions.
 ***********************************************************************
 Excited states from <AA,BB:AA,BB> singles matrix:
 ***********************************************************************
 
 1PDM for each excited state written to RWF  633
 Ground to excited state transition densities written to RWF  633
 Ground to excited state transition electric dipole moments (Au):
       state          X           Y           Z        Dip. S.      Osc.
         1        -0.0000     -0.0000     -0.0000      0.0000      0.0000
         2        -0.0000      0.0000      0.0000      0.0000      0.0000
         3         0.0000      0.0000     -0.0000      0.0000      0.0000
         4         0.5892     -0.4256      0.0000      0.5283      0.1140
         5         0.4256      0.5892      0.0000      0.5283      0.1140
         6         0.0000     -0.0000      0.0000      0.0000      0.0000
         7        -0.0000      0.0000      0.0000      0.0000      0.0000
         8         0.2414     -0.1713      0.0000      0.0876      0.0227
         9         0.1713      0.2414     -0.0000      0.0876      0.0227
        10         0.0000     -0.0000     -1.8736      3.5103      0.9149
        11         0.0000     -0.0000     -0.0000      0.0000      0.0000
        12        -0.0000      0.0000      0.0000      0.0000      0.0000
        13         0.0000     -0.0000     -0.0000      0.0000      0.0000
        14         0.0000     -0.0000      0.0000      0.0000      0.0000
        15         0.0000      0.0000     -0.0000      0.0000      0.0000
        16         0.0000     -0.0000      0.0000      0.0000      0.0000
        17        -0.0000     -0.0000      0.0000      0.0000      0.0000
        18        -0.0000      0.0000      0.0000      0.0000      0.0000
        19        -0.0000     -0.0000      0.0000      0.0000      0.0000
        20        -0.0000      0.0000      0.0000      0.0000      0.0000
        21        -0.6577      0.5470      0.0000      0.7318      0.2513
        22         0.5470      0.6577     -0.0000      0.7318      0.2513
        23        -0.0000     -0.0000     -1.1082      1.2280      0.4411
        24         0.0000     -0.0000      0.0000      0.0000      0.0000
        25        -0.0000      0.0000     -0.0000      0.0000      0.0000
        26         0.0000     -0.0000      0.0000      0.0000      0.0000
        27         0.0000     -0.0000     -0.0000      0.0000      0.0000
        28        -0.7507     -0.6451     -0.0000      0.9797      0.3886
        29         0.6451     -0.7507      0.0000      0.9797      0.3886
        30        -0.0000     -0.0000     -0.0466      0.0022      0.0009
        31         0.0000      0.0000     -0.0000      0.0000      0.0000
        32        -1.1080     -0.0757      0.0000      1.2335      0.5097
        33         0.0757     -1.1080     -0.0000      1.2335      0.5097
        34        -0.0000      0.0000     -0.0000      0.0000      0.0000
        35         0.0000      0.0000      0.0000      0.0000      0.0000
        36         0.0000      0.0000     -0.5718      0.3270      0.1375
        37         0.0000     -0.0000     -0.0000      0.0000      0.0000
        38         0.0000      0.0000     -0.0000      0.0000      0.0000
        39        -0.5864     -0.0870     -0.0000      0.3515      0.1536
        40         0.0870     -0.5864     -0.0000      0.3515      0.1536
        41         0.0000      0.0000      0.0000      0.0000      0.0000
        42         0.0000      0.0000     -0.0000      0.0000      0.0000
        43        -0.0000     -0.0000     -0.0000      0.0000      0.0000
        44         0.1732      0.3047     -0.0000      0.1228      0.0542
        45         0.3047     -0.1732      0.0000      0.1228      0.0542
        46         0.0000     -0.0000      0.9844      0.9690      0.4298
        47        -0.0000      0.0000     -0.0000      0.0000      0.0000
        48        -0.0000     -0.0000      0.0000      0.0000      0.0000
        49         0.0000     -0.0000     -0.0000      0.0000      0.0000
        50         0.0000     -0.0000      0.0000      0.0000      0.0000
        51         0.0000     -0.0000      0.0000      0.0000      0.0000
        52        -0.0000      0.0000     -0.0000      0.0000      0.0000
        53        -0.0000     -0.0000      0.3228      0.1042      0.0489
        54        -0.0000      0.0000      0.0000      0.0000      0.0000
        55        -0.0000     -0.0000      0.0000      0.0000      0.0000
        56         0.0000      0.0000     -0.0000      0.0000      0.0000
        57        -0.0000      0.0000      0.0000      0.0000      0.0000
        58        -0.0000      0.0000     -0.0000      0.0000      0.0000
        59         0.0000     -0.0000      0.0000      0.0000      0.0000
        60        -0.0000      0.0000      0.0000      0.0000      0.0000
        61        -0.0000      0.0000      0.3362      0.1131      0.0558
        62         0.0000     -0.0000     -0.0000      0.0000      0.0000
        63        -0.0000      0.0000     -0.0000      0.0000      0.0000
        64        -0.0000     -0.0000     -0.0000      0.0000      0.0000
        65        -0.0000     -0.0000      0.0000      0.0000      0.0000
        66         0.0000      0.0000     -0.0000      0.0000      0.0000
        67         0.0000     -0.0000     -0.0000      0.0000      0.0000
        68         0.0000     -0.0000      0.0000      0.0000      0.0000
        69         0.0000     -0.0000      0.0000      0.0000      0.0000
        70         0.0000      0.0000     -0.7341      0.5389      0.2961
        71        -0.0000      0.0000      0.0000      0.0000      0.0000
        72         0.0230     -0.0736      0.0000      0.0060      0.0033
        73        -0.0736     -0.0230     -0.0000      0.0060      0.0033
        74         0.0000      0.0000     -0.3554      0.1263      0.0708
        75        -0.0000      0.0000      0.0000      0.0000      0.0000
        76        -0.0000     -0.0000     -0.0000      0.0000      0.0000
        77        -0.0000      0.0000     -0.0000      0.0000      0.0000
        78        -0.0000      0.0000     -0.0000      0.0000      0.0000
        79        -0.3839      0.1969     -0.0000      0.1862      0.1118
        80        -0.1969     -0.3839      0.0000      0.1862      0.1118
        81         0.0000     -0.0000      0.2820      0.0796      0.0483
        82         0.0000     -0.0000     -0.0000      0.0000      0.0000
        83        -0.0000     -0.0000      0.0000      0.0000      0.0000
        84        -0.0000      0.0000      0.0000      0.0000      0.0000
        85         0.0000      0.0000     -0.0000      0.0000      0.0000
        86        -0.0000     -0.0000      0.0000      0.0000      0.0000
        87         0.0000     -0.0000     -0.0000      0.0000      0.0000
        88        -0.0000      0.0000     -0.0000      0.0000      0.0000
        89         0.0000      0.0000     -0.2355      0.0555      0.0350
        90         0.0047     -0.0120     -0.0000      0.0002      0.0001
        91        -0.0120     -0.0047     -0.0000      0.0002      0.0001
        92         0.0000      0.0000     -0.3914      0.1532      0.0970
        93         0.0000     -0.0000      0.0645      0.0042      0.0027
        94         0.0000     -0.0000     -0.0000      0.0000      0.0000
        95        -0.0000     -0.0000     -0.0000      0.0000      0.0000
        96        -0.0000     -0.0000      0.0000      0.0000      0.0000
        97        -0.0000      0.0000      0.0000      0.0000      0.0000
        98         0.1859      0.0477     -0.0000      0.0368      0.0242
        99        -0.0477      0.1859      0.0000      0.0368      0.0242
       100         0.0000     -0.0000     -0.0000      0.0000      0.0000
       101         0.0000      0.0000     -0.0000      0.0000      0.0000
       102        -0.0000      0.0000      0.0000      0.0000      0.0000
       103        -0.0462      0.0202      0.0000      0.0025      0.0017
       104        -0.0202     -0.0462      0.0000      0.0025      0.0017
       105         0.0000     -0.0000     -0.0000      0.0000      0.0000
       106        -0.0000      0.0000      0.0000      0.0000      0.0000
       107        -0.0000     -0.0000     -0.0000      0.0000      0.0000
       108         0.0000     -0.0000     -0.0000      0.0000      0.0000
       109        -0.0000      0.0000      0.0000      0.0000      0.0000
       110         0.0000     -0.0000      0.0857      0.0073      0.0055
       111        -0.0000     -0.0000      0.0000      0.0000      0.0000
       112        -0.0000     -0.0000      0.0000      0.0000      0.0000
       113         0.0875      0.0195      0.0000      0.0080      0.0062
       114        -0.0195      0.0875     -0.0000      0.0080      0.0062
       115         0.0000     -0.0000      0.0000      0.0000      0.0000
       116         0.0000      0.0000      0.4365      0.1906      0.1466
       117         0.0000     -0.0000      0.2053      0.0422      0.0335
       118        -0.0000      0.0000     -0.0000      0.0000      0.0000
       119        -0.0000     -0.0000      0.0000      0.0000      0.0000
       120        -0.3178     -0.1184      0.0000      0.1150      0.0939
       121         0.1184     -0.3178      0.0000      0.1150      0.0939
       122        -0.0000      0.0000     -0.0000      0.0000      0.0000
       123         0.0000     -0.0000     -0.0000      0.0000      0.0000
       124        -0.0000     -0.0000      0.0000      0.0000      0.0000
       125        -0.0000      0.0000      0.0000      0.0000      0.0000
       126         0.0000     -0.0000     -0.0000      0.0000      0.0000
       127         0.2773     -0.0161      0.0000      0.0772      0.0658
       128         0.0161      0.2773      0.0000      0.0772      0.0658
       129        -0.0000      0.0000     -0.2023      0.0409      0.0352
       130        -0.0000      0.0000     -0.0000      0.0000      0.0000
       131         0.0000     -0.0000      0.0000      0.0000      0.0000
       132         0.0000      0.0000      0.0000      0.0000      0.0000
       133         0.0000      0.0000     -0.0000      0.0000      0.0000
       134         0.0000      0.0000     -0.2700      0.0729      0.0650
       135         0.0041      0.0655     -0.0000      0.0043      0.0040
       136         0.0655     -0.0041      0.0000      0.0043      0.0040
       137         0.0000      0.0000     -0.1126      0.0127      0.0120
       138        -0.0000     -0.0000      0.0000      0.0000      0.0000
       139         0.0000     -0.0000     -0.0000      0.0000      0.0000
       140        -0.0000     -0.0000     -0.0000      0.0000      0.0000
       141        -0.2909     -0.1173     -0.0000      0.0984      0.0974
       142         0.1173     -0.2909      0.0000      0.0984      0.0974
       143        -0.0000     -0.0000      0.0000      0.0000      0.0000
       144         0.0000     -0.0000     -0.0000      0.0000      0.0000
       145         0.0000     -0.0000      0.0000      0.0000      0.0000
       146        -0.0000      0.0000     -0.0539      0.0029      0.0031
       147        -0.2363     -0.0161     -0.0000      0.0561      0.0591
       148         0.0161     -0.2363      0.0000      0.0561      0.0591
       149        -0.0000     -0.0000      0.1278      0.0163      0.0173
       150        -0.0000      0.0000      0.0000      0.0000      0.0000
       151         0.0000     -0.0000     -0.0000      0.0000      0.0000
       152         0.0000     -0.0000      0.1882      0.0354      0.0394
       153         0.0000     -0.0000      0.0000      0.0000      0.0000
       154        -0.0000      0.0000      0.0000      0.0000      0.0000
       155         0.0000      0.0000      0.0000      0.0000      0.0000
       156         0.0000     -0.0000      0.0853      0.0073      0.0084
       157         0.0000      0.0000     -0.0000      0.0000      0.0000
       158         0.0000      0.0000      0.0000      0.0000      0.0000
       159         0.0000      0.0000     -0.0000      0.0000      0.0000
       160         0.0000      0.0000     -0.0000      0.0000      0.0000
       161         0.0000     -0.0000     -0.2881      0.0830      0.0995
       162        -0.0000     -0.0000     -0.0000      0.0000      0.0000
       163         0.0000     -0.0000     -0.0000      0.0000      0.0000
       164        -0.0000      0.0000      0.0000      0.0000      0.0000
       165        -0.0000      0.0000      0.0000      0.0000      0.0000
       166         0.0000     -0.0000      0.0000      0.0000      0.0000
       167         0.0000      0.0000      0.0000      0.0000      0.0000
       168         0.0000     -0.0000     -0.0000      0.0000      0.0000
       169        -0.0000      0.0000      0.0000      0.0000      0.0000
       170         0.0000      0.0000     -0.0000      0.0000      0.0000
       171         0.0000     -0.0000      0.2342      0.0549      0.0701
       172        -0.0272     -0.0015      0.0000      0.0007      0.0010
       173         0.0015     -0.0272     -0.0000      0.0007      0.0010
       174         0.0000      0.0000      0.2338      0.0547      0.0727
       175        -0.0000     -0.0000      0.0000      0.0000      0.0000
       176        -0.0000     -0.0000     -0.0000      0.0000      0.0000
       177         0.8870      0.0575     -0.0000      0.7900      1.0848
       178        -0.0575      0.8870     -0.0000      0.7900      1.0848
       179         0.0000     -0.0000     -0.0998      0.0100      0.0139
       180         0.0000     -0.0000      0.0000      0.0000      0.0000
       181         0.0000      0.0000     -0.0000      0.0000      0.0000
       182         0.0000     -0.0000      0.0000      0.0000      0.0000
       183        -0.0000      0.0000      0.0000      0.0000      0.0000
       184         0.0000      0.0000     -0.0000      0.0000      0.0000
       185         0.0128     -0.0068     -0.0000      0.0002      0.0003
       186         0.0068      0.0128     -0.0000      0.0002      0.0003
       187        -0.0000     -0.0000      0.0000      0.0000      0.0000
       188        -0.0000      0.0000     -0.0000      0.0000      0.0000
       189         0.0000     -0.0000     -0.0000      0.0000      0.0000
       190         0.0000      0.0000     -0.0000      0.0000      0.0000
       191         0.1419     -0.2319      0.0000      0.0739      0.1106
       192        -0.2319     -0.1419      0.0000      0.0739      0.1106
       193         0.0000     -0.0000      0.0000      0.0000      0.0000
       194         0.0000     -0.0000     -0.0000      0.0000      0.0000
       195         0.0000      0.0000     -0.0000      0.0000      0.0000
       196         0.0000      0.0000      0.0000      0.0000      0.0000
       197        -0.0000      0.0000     -0.0000      0.0000      0.0000
       198         0.0000      0.0000      0.0000      0.0000      0.0000
       199         0.0000      0.0000      0.0760      0.0058      0.0091
       200        -0.1114     -0.0936     -0.0000      0.0212      0.0336
       201         0.0936     -0.1114      0.0000      0.0212      0.0336
       202         0.0000     -0.0000      0.0000      0.0000      0.0000
       203         0.0000     -0.0000      0.0000      0.0000      0.0000
       204        -0.0000      0.0000      0.0000      0.0000      0.0000
       205        -0.0000      0.0000      0.0000      0.0000      0.0000
       206        -0.0000      0.0000     -0.0000      0.0000      0.0000
       207         0.0000     -0.0000      0.0000      0.0000      0.0000
       208        -0.0121      0.1815      0.0000      0.0331      0.0561
       209         0.1815      0.0121     -0.0000      0.0331      0.0561
       210        -0.0000     -0.0000      0.0000      0.0000      0.0000
       211        -0.0000     -0.0000     -0.0000      0.0000      0.0000
       212        -0.0000     -0.0000      0.0000      0.0000      0.0000
       213        -0.0000     -0.0000     -0.0000      0.0000      0.0000
       214         0.0000      0.0000     -0.0000      0.0000      0.0000
       215        -0.0000     -0.0000     -0.0000      0.0000      0.0000
       216         0.0000      0.0000      0.0000      0.0000      0.0000
       217        -0.0000     -0.0000      0.0336      0.0011      0.0020
       218         0.0000     -0.0000      0.0000      0.0000      0.0000
       219        -0.0000      0.0000     -0.0000      0.0000      0.0000
       220        -0.1709     -0.0578     -0.0000      0.0325      0.0607
       221         0.0578     -0.1709      0.0000      0.0325      0.0607
       222         0.0000     -0.0000     -0.0000      0.0000      0.0000
       223         0.0000     -0.0000      0.0568      0.0032      0.0063
       224        -0.0000      0.0000      0.0000      0.0000      0.0000
       225        -0.0000     -0.0000     -0.0000      0.0000      0.0000
       226        -0.0000     -0.0000     -0.0000      0.0000      0.0000
       227        -0.0000     -0.0000      0.0000      0.0000      0.0000
       228         0.0000     -0.0000     -0.1484      0.0220      0.0463
       229        -0.0000     -0.0000     -0.1504      0.0226      0.0479
       230         0.0000      0.0000     -0.0000      0.0000      0.0000
       231         0.0000     -0.0000     -0.0000      0.0000      0.0000
       232        -0.0036     -0.0838      0.0000      0.0070      0.0162
       233        -0.0838      0.0036     -0.0000      0.0070      0.0162
       234        -0.1163     -0.0122      0.0000      0.0137      0.0324
       235         0.0122     -0.1163      0.0000      0.0137      0.0324
       236        -0.0000      0.0000     -0.0000      0.0000      0.0000
       237        -0.0000      0.0000     -0.0000      0.0000      0.0000
       238        -0.0000     -0.0000     -0.0000      0.0000      0.0000
       239         0.0000     -0.0000      0.0101      0.0001      0.0003
       240        -0.0000     -0.0000      0.0000      0.0000      0.0000
       241         0.0000     -0.0000      0.0000      0.0000      0.0000
       242        -0.0000     -0.0000      0.0000      0.0000      0.0000
       243        -0.0000     -0.0000     -0.0501      0.0025      0.0076
       244         0.0000     -0.0000     -0.0000      0.0000      0.0000
       245         0.0000      0.0000     -0.0522      0.0027      0.0087
 Ground to excited state transition velocity dipole moments (Au):
       state          X           Y           Z        Dip. S.      Osc.
         1         0.0000     -0.0000     -0.0000      0.0000      0.0000
         2         0.0000     -0.0000     -0.0000      0.0000      0.0000
         3        -0.0000     -0.0000     -0.0000      0.0000      0.0000
         4        -0.2241      0.1619      0.0000      0.0764      0.1574
         5        -0.1619     -0.2241     -0.0000      0.0764      0.1574
         6         0.0000      0.0000     -0.0000      0.0000      0.0000
         7        -0.0000     -0.0000     -0.0000      0.0000      0.0000
         8        -0.0983      0.0698     -0.0000      0.0145      0.0249
         9        -0.0698     -0.0983      0.0000      0.0145      0.0249
        10         0.0000      0.0000      0.7271      0.5287      0.9016
        11         0.0000      0.0000      0.0000      0.0000      0.0000
        12         0.0000      0.0000     -0.0000      0.0000      0.0000
        13        -0.0000     -0.0000     -0.0000      0.0000      0.0000
        14        -0.0000      0.0000     -0.0000      0.0000      0.0000
        15        -0.0000     -0.0000      0.0000      0.0000      0.0000
        16        -0.0000      0.0000     -0.0000      0.0000      0.0000
        17         0.0000      0.0000     -0.0000      0.0000      0.0000
        18         0.0000     -0.0000      0.0000      0.0000      0.0000
        19         0.0000      0.0000      0.0000      0.0000      0.0000
        20         0.0000     -0.0000     -0.0000      0.0000      0.0000
        21         0.3672     -0.3054     -0.0000      0.2281      0.2952
        22        -0.3054     -0.3672      0.0000      0.2281      0.2952
        23         0.0000     -0.0000      0.6268      0.3929      0.4861
        24        -0.0000      0.0000     -0.0000      0.0000      0.0000
        25         0.0000     -0.0000      0.0000      0.0000      0.0000
        26        -0.0000      0.0000     -0.0000      0.0000      0.0000
        27         0.0000      0.0000      0.0000      0.0000      0.0000
        28         0.4777      0.4105      0.0000      0.3967      0.4445
        29        -0.4105      0.4777     -0.0000      0.3967      0.4445
        30         0.0000     -0.0000      0.0210      0.0004      0.0005
        31        -0.0000     -0.0000      0.0000      0.0000      0.0000
        32         0.6650      0.0454     -0.0000      0.4443      0.4779
        33        -0.0454      0.6650     -0.0000      0.4443      0.4779
        34         0.0000     -0.0000      0.0000      0.0000      0.0000
        35        -0.0000     -0.0000     -0.0000      0.0000      0.0000
        36        -0.0000     -0.0000      0.3699      0.1368      0.1446
        37        -0.0000      0.0000      0.0000      0.0000      0.0000
        38        -0.0000     -0.0000      0.0000      0.0000      0.0000
        39         0.3773      0.0560     -0.0000      0.1455      0.1480
        40        -0.0560      0.3773      0.0000      0.1455      0.1480
        41        -0.0000     -0.0000     -0.0000      0.0000      0.0000
        42        -0.0000     -0.0000      0.0000      0.0000      0.0000
        43         0.0000      0.0000      0.0000      0.0000      0.0000
        44        -0.1110     -0.1953      0.0000      0.0504      0.0508
        45        -0.1953      0.1110      0.0000      0.0504      0.0508
        46        -0.0000     -0.0000     -0.6509      0.4237      0.4246
        47         0.0000     -0.0000      0.0000      0.0000      0.0000
        48         0.0000      0.0000     -0.0000      0.0000      0.0000
        49        -0.0000      0.0000     -0.0000      0.0000      0.0000
        50        -0.0000      0.0000     -0.0000      0.0000      0.0000
        51        -0.0000      0.0000     -0.0000      0.0000      0.0000
        52         0.0000      0.0000      0.0000      0.0000      0.0000
        53        -0.0000      0.0000     -0.2644      0.0699      0.0661
        54         0.0000     -0.0000      0.0000      0.0000      0.0000
        55         0.0000      0.0000     -0.0000      0.0000      0.0000
        56        -0.0000     -0.0000      0.0000      0.0000      0.0000
        57         0.0000     -0.0000     -0.0000      0.0000      0.0000
        58         0.0000     -0.0000      0.0000      0.0000      0.0000
        59        -0.0000      0.0000      0.0000      0.0000      0.0000
        60         0.0000      0.0000      0.0000      0.0000      0.0000
        61         0.0000     -0.0000     -0.1935      0.0374      0.0337
        62        -0.0000      0.0000     -0.0000      0.0000      0.0000
        63         0.0000     -0.0000      0.0000      0.0000      0.0000
        64         0.0000      0.0000     -0.0000      0.0000      0.0000
        65        -0.0000     -0.0000     -0.0000      0.0000      0.0000
        66        -0.0000     -0.0000      0.0000      0.0000      0.0000
        67         0.0000      0.0000      0.0000      0.0000      0.0000
        68        -0.0000      0.0000     -0.0000      0.0000      0.0000
        69        -0.0000      0.0000     -0.0000      0.0000      0.0000
        70         0.0000     -0.0000      0.5612      0.3150      0.2548
        71         0.0000     -0.0000     -0.0000      0.0000      0.0000
        72        -0.0199      0.0635     -0.0000      0.0044      0.0035
        73         0.0635      0.0199      0.0000      0.0044      0.0035
        74         0.0000     -0.0000      0.2760      0.0762      0.0604
        75        -0.0000      0.0000     -0.0000      0.0000      0.0000
        76         0.0000      0.0000      0.0000      0.0000      0.0000
        77         0.0000     -0.0000      0.0000      0.0000      0.0000
        78         0.0000     -0.0000     -0.0000      0.0000      0.0000
        79         0.3788     -0.1943      0.0000      0.1813      0.1342
        80         0.1943      0.3788     -0.0000      0.1813      0.1342
        81         0.0000      0.0000     -0.2236      0.0500      0.0366
        82        -0.0000      0.0000     -0.0000      0.0000      0.0000
        83         0.0000      0.0000      0.0000      0.0000      0.0000
        84        -0.0000     -0.0000     -0.0000      0.0000      0.0000
        85        -0.0000     -0.0000      0.0000      0.0000      0.0000
        86         0.0000      0.0000     -0.0000      0.0000      0.0000
        87         0.0000      0.0000      0.0000      0.0000      0.0000
        88        -0.0000     -0.0000      0.0000      0.0000      0.0000
        89        -0.0000     -0.0000      0.2276      0.0518      0.0365
        90         0.0003     -0.0008      0.0000      0.0000      0.0000
        91        -0.0008     -0.0003      0.0000      0.0000      0.0000
        92         0.0000      0.0000      0.3299      0.1089      0.0764
        93        -0.0000      0.0000     -0.0682      0.0046      0.0032
        94        -0.0000      0.0000     -0.0000      0.0000      0.0000
        95         0.0000      0.0000      0.0000      0.0000      0.0000
        96         0.0000      0.0000     -0.0000      0.0000      0.0000
        97         0.0000     -0.0000     -0.0000      0.0000      0.0000
        98        -0.1808     -0.0463      0.0000      0.0348      0.0235
        99         0.0463     -0.1808     -0.0000      0.0348      0.0235
       100        -0.0000      0.0000      0.0000      0.0000      0.0000
       101        -0.0000     -0.0000      0.0000      0.0000      0.0000
       102         0.0000     -0.0000     -0.0000      0.0000      0.0000
       103         0.0226     -0.0099      0.0000      0.0006      0.0004
       104         0.0099      0.0226     -0.0000      0.0006      0.0004
       105         0.0000     -0.0000     -0.0000      0.0000      0.0000
       106         0.0000     -0.0000     -0.0000      0.0000      0.0000
       107         0.0000     -0.0000      0.0000      0.0000      0.0000
       108        -0.0000     -0.0000     -0.0000      0.0000      0.0000
       109         0.0000     -0.0000     -0.0000      0.0000      0.0000
       110        -0.0000      0.0000     -0.0823      0.0068      0.0040
       111         0.0000      0.0000     -0.0000      0.0000      0.0000
       112         0.0000      0.0000     -0.0000      0.0000      0.0000
       113        -0.0910     -0.0203     -0.0000      0.0087      0.0050
       114         0.0203     -0.0910      0.0000      0.0087      0.0050
       115        -0.0000      0.0000     -0.0000      0.0000      0.0000
       116         0.0000     -0.0000     -0.5711      0.3261      0.1885
       117        -0.0000      0.0000     -0.2059      0.0424      0.0237
       118         0.0000     -0.0000      0.0000      0.0000      0.0000
       119         0.0000      0.0000     -0.0000      0.0000      0.0000
       120         0.3795      0.1414      0.0000      0.1640      0.0893
       121        -0.1414      0.3795     -0.0000      0.1640      0.0893
       122         0.0000     -0.0000      0.0000      0.0000      0.0000
       123        -0.0000      0.0000      0.0000      0.0000      0.0000
       124         0.0000      0.0000     -0.0000      0.0000      0.0000
       125         0.0000     -0.0000     -0.0000      0.0000      0.0000
       126        -0.0000      0.0000      0.0000      0.0000      0.0000
       127        -0.4285      0.0249     -0.0000      0.1842      0.0961
       128        -0.0249     -0.4285     -0.0000      0.1842      0.0961
       129        -0.0000     -0.0000      0.2688      0.0723      0.0374
       130         0.0000     -0.0000     -0.0000      0.0000      0.0000
       131        -0.0000      0.0000     -0.0000      0.0000      0.0000
       132        -0.0000     -0.0000      0.0000      0.0000      0.0000
       133        -0.0000     -0.0000      0.0000      0.0000      0.0000
       134        -0.0000     -0.0000      0.3439      0.1183      0.0589
       135        -0.0069     -0.1099      0.0000      0.0121      0.0058
       136        -0.1099      0.0069     -0.0000      0.0121      0.0058
       137        -0.0000     -0.0000      0.2153      0.0463      0.0217
       138         0.0000      0.0000     -0.0000      0.0000      0.0000
       139         0.0000      0.0000      0.0000      0.0000      0.0000
       140         0.0000      0.0000      0.0000      0.0000      0.0000
       141         0.4793      0.1933     -0.0000      0.2671      0.1199
       142        -0.1933      0.4793     -0.0000      0.2671      0.1199
       143         0.0000      0.0000      0.0000      0.0000      0.0000
       144        -0.0000      0.0000      0.0000      0.0000      0.0000
       145        -0.0000      0.0000      0.0000      0.0000      0.0000
       146         0.0000     -0.0000      0.1687      0.0285      0.0120
       147         0.3948      0.0269      0.0000      0.1566      0.0660
       148        -0.0269      0.3948     -0.0000      0.1566      0.0660
       149         0.0000      0.0000     -0.2140      0.0458      0.0192
       150        -0.0000     -0.0000     -0.0000      0.0000      0.0000
       151        -0.0000      0.0000     -0.0000      0.0000      0.0000
       152        -0.0000      0.0000     -0.4267      0.1821      0.0727
       153        -0.0000      0.0000     -0.0000      0.0000      0.0000
       154         0.0000     -0.0000     -0.0000      0.0000      0.0000
       155        -0.0000     -0.0000     -0.0000      0.0000      0.0000
       156        -0.0000      0.0000     -0.1117      0.0125      0.0048
       157        -0.0000     -0.0000      0.0000      0.0000      0.0000
       158        -0.0000      0.0000     -0.0000      0.0000      0.0000
       159        -0.0000     -0.0000      0.0000      0.0000      0.0000
       160        -0.0000     -0.0000      0.0000      0.0000      0.0000
       161         0.0000      0.0000      0.4976      0.2476      0.0918
       162        -0.0000      0.0000     -0.0000      0.0000      0.0000
       163        -0.0000      0.0000      0.0000      0.0000      0.0000
       164         0.0000      0.0000     -0.0000      0.0000      0.0000
       165        -0.0000     -0.0000      0.0000      0.0000      0.0000
       166        -0.0000      0.0000     -0.0000      0.0000      0.0000
       167        -0.0000     -0.0000     -0.0000      0.0000      0.0000
       168        -0.0000     -0.0000      0.0000      0.0000      0.0000
       169        -0.0000     -0.0000     -0.0000      0.0000      0.0000
       170        -0.0000     -0.0000      0.0000      0.0000      0.0000
       171         0.0000     -0.0000     -0.4224      0.1785      0.0621
       172        -0.0043     -0.0002     -0.0000      0.0000      0.0000
       173         0.0002     -0.0043      0.0000      0.0000      0.0000
       174        -0.0000     -0.0000     -0.5049      0.2549      0.0852
       175         0.0000      0.0000     -0.0000      0.0000      0.0000
       176         0.0000      0.0000      0.0000      0.0000      0.0000
       177        -1.4737     -0.0955      0.0000      2.1809      0.7059
       178         0.0955     -1.4737      0.0000      2.1809      0.7059
       179        -0.0000     -0.0000      0.2028      0.0411      0.0131
       180        -0.0000     -0.0000     -0.0000      0.0000      0.0000
       181        -0.0000     -0.0000      0.0000      0.0000      0.0000
       182        -0.0000     -0.0000      0.0000      0.0000      0.0000
       183         0.0000     -0.0000     -0.0000      0.0000      0.0000
       184        -0.0000     -0.0000     -0.0000      0.0000      0.0000
       185        -0.0040      0.0021     -0.0000      0.0000      0.0000
       186        -0.0021     -0.0040      0.0000      0.0000      0.0000
       187         0.0000      0.0000     -0.0000      0.0000      0.0000
       188         0.0000     -0.0000      0.0000      0.0000      0.0000
       189        -0.0000      0.0000      0.0000      0.0000      0.0000
       190        -0.0000     -0.0000      0.0000      0.0000      0.0000
       191        -0.2774      0.4533     -0.0000      0.2825      0.0839
       192         0.4533      0.2774      0.0000      0.2825      0.0839
       193        -0.0000      0.0000     -0.0000      0.0000      0.0000
       194        -0.0000      0.0000      0.0000      0.0000      0.0000
       195        -0.0000     -0.0000      0.0000      0.0000      0.0000
       196        -0.0000     -0.0000      0.0000      0.0000      0.0000
       197         0.0000     -0.0000      0.0000      0.0000      0.0000
       198        -0.0000      0.0000      0.0000      0.0000      0.0000
       199         0.0000     -0.0000     -0.1237      0.0153      0.0043
       200         0.2043      0.1716      0.0000      0.0712      0.0199
       201        -0.1716      0.2043     -0.0000      0.0712      0.0199
       202        -0.0000      0.0000     -0.0000      0.0000      0.0000
       203        -0.0000      0.0000     -0.0000      0.0000      0.0000
       204         0.0000     -0.0000     -0.0000      0.0000      0.0000
       205         0.0000     -0.0000      0.0000      0.0000      0.0000
       206         0.0000     -0.0000      0.0000      0.0000      0.0000
       207        -0.0000      0.0000     -0.0000      0.0000      0.0000
       208         0.0266     -0.3972      0.0000      0.1584      0.0415
       209        -0.3972     -0.0266      0.0000      0.1584      0.0415
       210         0.0000      0.0000      0.0000      0.0000      0.0000
       211         0.0000      0.0000     -0.0000      0.0000      0.0000
       212        -0.0000      0.0000     -0.0000      0.0000      0.0000
       213         0.0000      0.0000      0.0000      0.0000      0.0000
       214        -0.0000     -0.0000     -0.0000      0.0000      0.0000
       215        -0.0000      0.0000      0.0000      0.0000      0.0000
       216        -0.0000     -0.0000     -0.0000      0.0000      0.0000
       217         0.0000      0.0000     -0.1183      0.0140      0.0035
       218        -0.0000      0.0000     -0.0000      0.0000      0.0000
       219        -0.0000     -0.0000      0.0000      0.0000      0.0000
       220         0.3843      0.1300      0.0000      0.1646      0.0392
       221        -0.1300      0.3843     -0.0000      0.1646      0.0392
       222        -0.0000      0.0000      0.0000      0.0000      0.0000
       223         0.0000      0.0000     -0.1201      0.0144      0.0033
       224        -0.0000     -0.0000     -0.0000      0.0000      0.0000
       225         0.0000      0.0000      0.0000      0.0000      0.0000
       226         0.0000      0.0000      0.0000      0.0000      0.0000
       227         0.0000      0.0000     -0.0000      0.0000      0.0000
       228         0.0000      0.0000      0.4525      0.2048      0.0433
       229        -0.0000      0.0000      0.4943      0.2443      0.0513
       230        -0.0000     -0.0000     -0.0000      0.0000      0.0000
       231        -0.0000      0.0000      0.0000      0.0000      0.0000
       232         0.0106      0.2446      0.0000      0.0599      0.0115
       233         0.2446     -0.0106      0.0000      0.0599      0.0115
       234         0.3286      0.0343     -0.0000      0.1092      0.0205
       235        -0.0343      0.3286     -0.0000      0.1092      0.0205
       236        -0.0000      0.0000      0.0000      0.0000      0.0000
       237         0.0000     -0.0000     -0.0000      0.0000      0.0000
       238        -0.0000      0.0000     -0.0000      0.0000      0.0000
       239        -0.0000      0.0000     -0.0548      0.0030      0.0005
       240        -0.0000      0.0000     -0.0000      0.0000      0.0000
       241        -0.0000     -0.0000     -0.0000      0.0000      0.0000
       242        -0.0000     -0.0000     -0.0000      0.0000      0.0000
       243         0.0000      0.0000      0.1830      0.0335      0.0049
       244        -0.0000      0.0000      0.0000      0.0000      0.0000
       245        -0.0000     -0.0000      0.2238      0.0501      0.0070
 Ground to excited state transition magnetic dipole moments (Au):
       state          X           Y           Z
         1         0.0000     -0.0000     -0.0000
         2        -0.0000      0.0000     -0.0000
         3        -0.0000     -0.0000     -0.0000
         4        -0.0000      0.0000      0.0000
         5        -0.0000      0.0000     -0.0000
         6        -0.0163      0.1512     -0.0000
         7        -0.1512     -0.0163     -0.0000
         8         0.0000     -0.0000     -0.0000
         9         0.0000      0.0000      0.0000
        10        -0.0000     -0.0000     -0.0000
        11        -0.0000     -0.0000     -0.0000
        12         0.0000      0.0000      0.0000
        13         0.0000      0.0000      0.0000
        14         0.2656     -0.3509      0.0000
        15         0.3509      0.2656      0.0000
        16        -1.6170      1.0339     -0.0000
        17         1.0339      1.6170      0.0000
        18        -0.0000      0.0000     -0.0000
        19        -0.0000     -0.0000     -0.0000
        20        -0.0000      0.0000      0.0000
        21        -0.0000      0.0000     -0.0000
        22        -0.0000      0.0000     -0.0000
        23        -0.0000     -0.0000      0.0000
        24         0.0000      0.0000      0.0000
        25        -0.0000      0.0000      0.0000
        26        -0.0000      0.0000     -0.0000
        27        -0.0000     -0.0000     -0.0000
        28         0.0000      0.0000      0.0000
        29         0.0000      0.0000      0.0000
        30        -0.0000      0.0000     -0.0000
        31        -0.0000     -0.0000      0.0000
        32        -0.0000     -0.0000     -0.0000
        33         0.0000     -0.0000     -0.0000
        34        -0.0764      0.1962      0.0000
        35        -0.1962     -0.0764      0.0000
        36        -0.0000      0.0000      0.0000
        37         0.0000     -0.0000      0.0000
        38         0.0000      0.0000      0.0000
        39         0.0000      0.0000      0.0000
        40         0.0000      0.0000      0.0000
        41        -0.0000     -0.0000     -0.0000
        42        -0.1469      0.5009     -0.0000
        43        -0.5009     -0.1469     -0.0000
        44        -0.0000     -0.0000     -0.0000
        45         0.0000      0.0000      0.0000
        46        -0.0000      0.0000     -0.0000
        47        -0.0000     -0.0000      0.0000
        48        -0.0000      0.0000      0.0000
        49         0.0000      0.0000      0.0000
        50         0.2760      0.3397      0.0000
        51        -0.3397      0.2760     -0.0000
        52        -0.0000     -0.0000     -0.0000
        53         0.0000      0.0000     -0.0000
        54        -0.0847     -0.2914     -0.0000
        55         0.2914     -0.0847      0.0000
        56        -0.0000      0.0000     -0.0000
        57         0.0000     -0.0000     -0.0000
        58         0.0000      0.0000      0.0000
        59         0.0000      0.0000     -0.0000
        60        -0.0000     -0.0000      0.0000
        61        -0.0000     -0.0000     -0.0000
[...]
     13   0.000000D+00  0.000000D+00  0.000000D+00  0.000000D+00  0.000000D+00
     14   0.000000D+00  0.000000D+00  0.000000D+00  0.000000D+00  0.000000D+00
     15   0.000000D+00  0.000000D+00  0.000000D+00  0.000000D+00  0.335822D+00
     16   0.000000D+00  0.000000D+00  0.000000D+00  0.000000D+00 -0.178267D+01
               176           177           178           179           180 
      1  -0.749863D+02 -0.749623D+02 -0.749623D+02 -0.749229D+02 -0.749010D+02
      2   0.000000D+00  0.886957D+00 -0.574514D-01  0.000000D+00  0.000000D+00
      3   0.000000D+00  0.574514D-01  0.886957D+00  0.000000D+00  0.000000D+00
      4   0.000000D+00  0.000000D+00  0.000000D+00 -0.997875D-01  0.000000D+00
      5   0.000000D+00 -0.147371D+01  0.954574D-01  0.000000D+00  0.000000D+00
      6   0.000000D+00 -0.954574D-01 -0.147371D+01  0.000000D+00  0.000000D+00
      7   0.000000D+00  0.000000D+00  0.000000D+00  0.202818D+00  0.000000D+00
      8   0.250015D+00  0.000000D+00  0.000000D+00  0.000000D+00  0.000000D+00
      9  -0.132717D+01  0.000000D+00  0.000000D+00  0.000000D+00  0.000000D+00
     10   0.000000D+00  0.000000D+00  0.000000D+00  0.000000D+00  0.000000D+00
     11   0.000000D+00  0.000000D+00  0.000000D+00  0.000000D+00 -0.130623D+00
     12   0.000000D+00  0.000000D+00  0.000000D+00  0.000000D+00  0.130623D+00
     13   0.000000D+00  0.000000D+00  0.000000D+00  0.000000D+00  0.000000D+00
     14   0.000000D+00  0.000000D+00  0.000000D+00  0.000000D+00  0.000000D+00
     15  -0.178267D+01  0.000000D+00  0.000000D+00  0.000000D+00  0.000000D+00
     16  -0.335822D+00  0.000000D+00  0.000000D+00  0.000000D+00  0.000000D+00
               181           182           183           184           185 
      1  -0.749010D+02 -0.748821D+02 -0.748821D+02 -0.748478D+02 -0.748285D+02
      2   0.000000D+00  0.000000D+00  0.000000D+00  0.000000D+00  0.128228D-01
      3   0.000000D+00  0.000000D+00  0.000000D+00  0.000000D+00 -0.680452D-02
      4   0.000000D+00  0.000000D+00  0.000000D+00  0.000000D+00  0.000000D+00
      5   0.000000D+00  0.000000D+00  0.000000D+00  0.000000D+00 -0.398836D-02
      6   0.000000D+00  0.000000D+00  0.000000D+00  0.000000D+00  0.211646D-02
      7   0.000000D+00  0.000000D+00  0.000000D+00  0.000000D+00  0.000000D+00
      8   0.000000D+00 -0.479673D+00  0.656698D+00  0.000000D+00  0.000000D+00
      9   0.000000D+00 -0.656698D+00 -0.479673D+00  0.000000D+00  0.000000D+00
     10   0.000000D+00  0.000000D+00  0.000000D+00  0.000000D+00  0.000000D+00
     11   0.000000D+00  0.000000D+00  0.000000D+00 -0.243610D+00  0.000000D+00
     12   0.000000D+00  0.000000D+00  0.000000D+00 -0.243610D+00  0.000000D+00
     13   0.000000D+00  0.000000D+00  0.000000D+00  0.463728D+00  0.000000D+00
     14  -0.130623D+00  0.000000D+00  0.000000D+00  0.000000D+00  0.000000D+00
     15   0.000000D+00 -0.116026D+01 -0.847488D+00  0.000000D+00  0.000000D+00
     16   0.000000D+00  0.847488D+00 -0.116026D+01  0.000000D+00  0.000000D+00
               186           187           188           189           190 
      1  -0.748285D+02 -0.748105D+02 -0.748105D+02 -0.747834D+02 -0.747834D+02
      2   0.680452D-02  0.000000D+00  0.000000D+00  0.000000D+00  0.000000D+00
      3   0.128228D-01  0.000000D+00  0.000000D+00  0.000000D+00  0.000000D+00
      4   0.000000D+00  0.000000D+00  0.000000D+00  0.000000D+00  0.000000D+00
      5  -0.211646D-02  0.000000D+00  0.000000D+00  0.000000D+00  0.000000D+00
      6  -0.398836D-02  0.000000D+00  0.000000D+00  0.000000D+00  0.000000D+00
      7   0.000000D+00  0.000000D+00  0.000000D+00  0.000000D+00  0.000000D+00
      8   0.000000D+00  0.000000D+00  0.000000D+00  0.000000D+00  0.000000D+00
      9   0.000000D+00  0.000000D+00  0.000000D+00  0.000000D+00  0.000000D+00
     10   0.000000D+00  0.000000D+00  0.000000D+00  0.000000D+00  0.000000D+00
     11   0.000000D+00  0.000000D+00  0.000000D+00  0.000000D+00  0.000000D+00
     12   0.000000D+00  0.000000D+00  0.000000D+00  0.000000D+00  0.000000D+00
     13   0.000000D+00  0.000000D+00  0.000000D+00  0.000000D+00  0.000000D+00
     14   0.000000D+00  0.000000D+00  0.000000D+00  0.000000D+00  0.000000D+00
     15   0.000000D+00  0.000000D+00  0.000000D+00  0.000000D+00  0.000000D+00
     16   0.000000D+00  0.000000D+00  0.000000D+00  0.000000D+00  0.000000D+00
               191           192           193           194           195 
      1  -0.747779D+02 -0.747779D+02 -0.747188D+02 -0.747188D+02 -0.747177D+02
      2   0.141916D+00 -0.231921D+00  0.000000D+00  0.000000D+00  0.000000D+00
      3  -0.231921D+00 -0.141916D+00  0.000000D+00  0.000000D+00  0.000000D+00
      4   0.000000D+00  0.000000D+00  0.000000D+00  0.000000D+00  0.000000D+00
      5  -0.277400D+00  0.453330D+00  0.000000D+00  0.000000D+00  0.000000D+00
      6   0.453330D+00  0.277400D+00  0.000000D+00  0.000000D+00  0.000000D+00
      7   0.000000D+00  0.000000D+00  0.000000D+00  0.000000D+00  0.000000D+00
      8   0.000000D+00  0.000000D+00  0.000000D+00  0.000000D+00  0.000000D+00
      9   0.000000D+00  0.000000D+00  0.000000D+00  0.000000D+00  0.000000D+00
     10   0.000000D+00  0.000000D+00  0.000000D+00  0.000000D+00  0.000000D+00
     11   0.000000D+00  0.000000D+00  0.000000D+00 -0.186876D+00  0.000000D+00
     12   0.000000D+00  0.000000D+00  0.000000D+00  0.186876D+00  0.000000D+00
     13   0.000000D+00  0.000000D+00  0.000000D+00  0.000000D+00  0.000000D+00
     14   0.000000D+00  0.000000D+00 -0.186876D+00  0.000000D+00  0.000000D+00
     15   0.000000D+00  0.000000D+00  0.000000D+00  0.000000D+00  0.000000D+00
     16   0.000000D+00  0.000000D+00  0.000000D+00  0.000000D+00  0.000000D+00
               196           197           198           199           200 
      1  -0.747077D+02 -0.747077D+02 -0.746759D+02 -0.746642D+02 -0.746408D+02
      2   0.000000D+00  0.000000D+00  0.000000D+00  0.000000D+00 -0.111417D+00
      3   0.000000D+00  0.000000D+00  0.000000D+00  0.000000D+00 -0.935812D-01
      4   0.000000D+00  0.000000D+00  0.000000D+00  0.760140D-01  0.000000D+00
      5   0.000000D+00  0.000000D+00  0.000000D+00  0.000000D+00  0.204334D+00
      6   0.000000D+00  0.000000D+00  0.000000D+00  0.000000D+00  0.171624D+00
      7   0.000000D+00  0.000000D+00  0.000000D+00 -0.123705D+00  0.000000D+00
      8   0.127377D+01 -0.503044D+00  0.000000D+00  0.000000D+00  0.000000D+00
      9   0.503044D+00  0.127377D+01  0.000000D+00  0.000000D+00  0.000000D+00
     10   0.000000D+00  0.000000D+00  0.000000D+00  0.000000D+00  0.000000D+00
     11   0.000000D+00  0.000000D+00 -0.356302D+00  0.000000D+00  0.000000D+00
     12   0.000000D+00  0.000000D+00 -0.356302D+00  0.000000D+00  0.000000D+00
     13   0.000000D+00  0.000000D+00 -0.535371D+00  0.000000D+00  0.000000D+00
     14   0.000000D+00  0.000000D+00  0.000000D+00  0.000000D+00  0.000000D+00
     15   0.729343D+00  0.184679D+01  0.000000D+00  0.000000D+00  0.000000D+00
     16  -0.184679D+01  0.729343D+00  0.000000D+00  0.000000D+00  0.000000D+00
               201           202           203           204           205 
      1  -0.746408D+02 -0.746359D+02 -0.746359D+02 -0.746277D+02 -0.746277D+02
      2   0.935812D-01  0.000000D+00  0.000000D+00  0.000000D+00  0.000000D+00
      3  -0.111417D+00  0.000000D+00  0.000000D+00  0.000000D+00  0.000000D+00
      4   0.000000D+00  0.000000D+00  0.000000D+00  0.000000D+00  0.000000D+00
      5  -0.171624D+00  0.000000D+00  0.000000D+00  0.000000D+00  0.000000D+00
      6   0.204334D+00  0.000000D+00  0.000000D+00  0.000000D+00  0.000000D+00
      7   0.000000D+00  0.000000D+00  0.000000D+00  0.000000D+00  0.000000D+00
      8   0.000000D+00 -0.213666D-01  0.202683D+00  0.000000D+00  0.000000D+00
      9   0.000000D+00 -0.202683D+00 -0.213666D-01  0.000000D+00  0.000000D+00
     10   0.000000D+00  0.000000D+00  0.000000D+00  0.000000D+00  0.000000D+00
     11   0.000000D+00  0.000000D+00  0.000000D+00  0.702770D+00  0.000000D+00
     12   0.000000D+00  0.000000D+00  0.000000D+00 -0.702770D+00  0.000000D+00
     13   0.000000D+00  0.000000D+00  0.000000D+00  0.000000D+00  0.000000D+00
     14   0.000000D+00  0.000000D+00  0.000000D+00  0.000000D+00  0.702770D+00
     15   0.000000D+00 -0.182261D+00 -0.192137D-01  0.000000D+00  0.000000D+00
     16   0.000000D+00  0.192137D-01 -0.182261D+00  0.000000D+00  0.000000D+00
               206           207           208           209           210 
      1  -0.745431D+02 -0.745431D+02 -0.744793D+02 -0.744793D+02 -0.744418D+02
      2   0.000000D+00  0.000000D+00 -0.121408D-01  0.181534D+00  0.000000D+00
      3   0.000000D+00  0.000000D+00  0.181534D+00  0.121408D-01  0.000000D+00
      4   0.000000D+00  0.000000D+00  0.000000D+00  0.000000D+00  0.000000D+00
      5   0.000000D+00  0.000000D+00  0.265619D-01 -0.397166D+00  0.000000D+00
      6   0.000000D+00  0.000000D+00 -0.397166D+00 -0.265619D-01  0.000000D+00
      7   0.000000D+00  0.000000D+00  0.000000D+00  0.000000D+00  0.000000D+00
      8   0.000000D+00  0.000000D+00  0.000000D+00  0.000000D+00  0.000000D+00
      9   0.000000D+00  0.000000D+00  0.000000D+00  0.000000D+00  0.000000D+00
     10   0.000000D+00  0.000000D+00  0.000000D+00  0.000000D+00  0.000000D+00
     11   0.000000D+00  0.000000D+00  0.000000D+00  0.000000D+00  0.410153D+00
     12   0.000000D+00  0.000000D+00  0.000000D+00  0.000000D+00 -0.410153D+00
     13   0.000000D+00  0.000000D+00  0.000000D+00  0.000000D+00  0.000000D+00
     14   0.000000D+00  0.000000D+00  0.000000D+00  0.000000D+00  0.000000D+00
     15   0.000000D+00  0.000000D+00  0.000000D+00  0.000000D+00  0.000000D+00
     16   0.000000D+00  0.000000D+00  0.000000D+00  0.000000D+00  0.000000D+00
               211           212           213           214           215 
      1  -0.744418D+02 -0.744150D+02 -0.744150D+02 -0.744051D+02 -0.743582D+02
      2   0.000000D+00  0.000000D+00  0.000000D+00  0.000000D+00  0.000000D+00
      3   0.000000D+00  0.000000D+00  0.000000D+00  0.000000D+00  0.000000D+00
      4   0.000000D+00  0.000000D+00  0.000000D+00  0.000000D+00  0.000000D+00
      5   0.000000D+00  0.000000D+00  0.000000D+00  0.000000D+00  0.000000D+00
      6   0.000000D+00  0.000000D+00  0.000000D+00  0.000000D+00  0.000000D+00
      7   0.000000D+00  0.000000D+00  0.000000D+00  0.000000D+00  0.000000D+00
      8   0.000000D+00  0.263534D-01 -0.287109D+00  0.000000D+00  0.200464D-03
      9   0.000000D+00  0.287109D+00  0.263534D-01  0.000000D+00 -0.256090D-01
     10   0.000000D+00  0.000000D+00  0.000000D+00  0.000000D+00  0.000000D+00
     11   0.000000D+00  0.000000D+00  0.000000D+00  0.230819D-01  0.000000D+00
     12   0.000000D+00  0.000000D+00  0.000000D+00  0.230819D-01  0.000000D+00
     13   0.000000D+00  0.000000D+00  0.000000D+00 -0.215589D+00  0.000000D+00
     14   0.410153D+00  0.000000D+00  0.000000D+00  0.000000D+00  0.000000D+00
     15   0.000000D+00  0.629726D+00  0.578019D-01  0.000000D+00 -0.210244D+00
     16   0.000000D+00 -0.578019D-01  0.629726D+00  0.000000D+00 -0.164576D-02
               216           217           218           219           220 
      1  -0.743582D+02 -0.743451D+02 -0.742896D+02 -0.742896D+02 -0.742226D+02
      2   0.000000D+00  0.000000D+00  0.000000D+00  0.000000D+00 -0.170866D+00
      3   0.000000D+00  0.000000D+00  0.000000D+00  0.000000D+00 -0.578065D-01
      4   0.000000D+00  0.336124D-01  0.000000D+00  0.000000D+00  0.000000D+00
      5   0.000000D+00  0.000000D+00  0.000000D+00  0.000000D+00  0.384303D+00
      6   0.000000D+00  0.000000D+00  0.000000D+00  0.000000D+00  0.130015D+00
      7   0.000000D+00 -0.118324D+00  0.000000D+00  0.000000D+00  0.000000D+00
      8   0.256090D-01  0.000000D+00  0.000000D+00  0.000000D+00  0.000000D+00
      9   0.200464D-03  0.000000D+00  0.000000D+00  0.000000D+00  0.000000D+00
     10   0.000000D+00  0.000000D+00  0.000000D+00  0.000000D+00  0.000000D+00
     11   0.000000D+00  0.000000D+00  0.000000D+00  0.000000D+00  0.000000D+00
     12   0.000000D+00  0.000000D+00  0.000000D+00  0.000000D+00  0.000000D+00
     13   0.000000D+00  0.000000D+00  0.000000D+00  0.000000D+00  0.000000D+00
     14   0.000000D+00  0.000000D+00  0.000000D+00  0.000000D+00  0.000000D+00
     15   0.164576D-02  0.000000D+00  0.000000D+00  0.000000D+00  0.000000D+00
     16  -0.210244D+00  0.000000D+00  0.000000D+00  0.000000D+00  0.000000D+00
               221           222           223           224           225 
      1  -0.742226D+02 -0.741689D+02 -0.741104D+02 -0.740363D+02 -0.738869D+02
      2   0.578065D-01  0.000000D+00  0.000000D+00  0.000000D+00  0.000000D+00
      3  -0.170866D+00  0.000000D+00  0.000000D+00  0.000000D+00  0.000000D+00
      4   0.000000D+00  0.000000D+00  0.567670D-01  0.000000D+00  0.000000D+00
      5  -0.130015D+00  0.000000D+00  0.000000D+00  0.000000D+00  0.000000D+00
      6   0.384303D+00  0.000000D+00  0.000000D+00  0.000000D+00  0.000000D+00
      7   0.000000D+00  0.000000D+00 -0.120082D+00  0.000000D+00  0.000000D+00
      8   0.000000D+00  0.000000D+00  0.000000D+00  0.000000D+00  0.000000D+00
      9   0.000000D+00  0.000000D+00  0.000000D+00  0.000000D+00  0.000000D+00
     10   0.000000D+00  0.000000D+00  0.000000D+00  0.000000D+00  0.000000D+00
     11   0.000000D+00 -0.347317D-01  0.000000D+00 -0.530138D-01  0.000000D+00
     12   0.000000D+00 -0.347317D-01  0.000000D+00 -0.530138D-01  0.000000D+00
     13   0.000000D+00  0.660337D+00  0.000000D+00  0.829976D-01  0.000000D+00
     14   0.000000D+00  0.000000D+00  0.000000D+00  0.000000D+00  0.000000D+00
     15   0.000000D+00  0.000000D+00  0.000000D+00  0.000000D+00  0.000000D+00
     16   0.000000D+00  0.000000D+00  0.000000D+00  0.000000D+00  0.000000D+00
               226           227           228           229           230 
      1  -0.738869D+02 -0.738794D+02 -0.738716D+02 -0.738466D+02 -0.736427D+02
      2   0.000000D+00  0.000000D+00  0.000000D+00  0.000000D+00  0.000000D+00
      3   0.000000D+00  0.000000D+00  0.000000D+00  0.000000D+00  0.000000D+00
      4   0.000000D+00  0.000000D+00 -0.148449D+00 -0.150391D+00  0.000000D+00
      5   0.000000D+00  0.000000D+00  0.000000D+00  0.000000D+00  0.000000D+00
      6   0.000000D+00  0.000000D+00  0.000000D+00  0.000000D+00  0.000000D+00
      7   0.000000D+00  0.000000D+00  0.452531D+00  0.494299D+00  0.000000D+00
      8   0.000000D+00  0.000000D+00  0.000000D+00  0.000000D+00  0.139581D-01
      9   0.000000D+00  0.000000D+00  0.000000D+00  0.000000D+00  0.312020D+00
     10   0.000000D+00  0.000000D+00  0.000000D+00  0.000000D+00  0.000000D+00
     11   0.000000D+00  0.000000D+00  0.000000D+00  0.000000D+00  0.000000D+00
     12   0.000000D+00  0.000000D+00  0.000000D+00  0.000000D+00  0.000000D+00
     13   0.000000D+00  0.000000D+00  0.000000D+00  0.000000D+00  0.000000D+00
     14   0.000000D+00  0.000000D+00  0.000000D+00  0.000000D+00  0.000000D+00
     15   0.000000D+00  0.000000D+00  0.000000D+00  0.000000D+00  0.475149D+00
     16   0.000000D+00  0.000000D+00  0.000000D+00  0.000000D+00 -0.212556D-01
               231           232           233           234           235 
      1  -0.736427D+02 -0.735627D+02 -0.735627D+02 -0.734661D+02 -0.734661D+02
      2   0.000000D+00 -0.363331D-02 -0.837707D-01 -0.116278D+00  0.121501D-01
      3   0.000000D+00 -0.837707D-01  0.363331D-02 -0.121501D-01 -0.116278D+00
      4   0.000000D+00  0.000000D+00  0.000000D+00  0.000000D+00  0.000000D+00
      5   0.000000D+00  0.106070D-01  0.244559D+00  0.328593D+00 -0.343352D-01
      6   0.000000D+00  0.244559D+00 -0.106070D-01  0.343352D-01  0.328593D+00
      7   0.000000D+00  0.000000D+00  0.000000D+00  0.000000D+00  0.000000D+00
      8  -0.312020D+00  0.000000D+00  0.000000D+00  0.000000D+00  0.000000D+00
      9   0.139581D-01  0.000000D+00  0.000000D+00  0.000000D+00  0.000000D+00
     10   0.000000D+00  0.000000D+00  0.000000D+00  0.000000D+00  0.000000D+00
     11   0.000000D+00  0.000000D+00  0.000000D+00  0.000000D+00  0.000000D+00
     12   0.000000D+00  0.000000D+00  0.000000D+00  0.000000D+00  0.000000D+00
     13   0.000000D+00  0.000000D+00  0.000000D+00  0.000000D+00  0.000000D+00
     14   0.000000D+00  0.000000D+00  0.000000D+00  0.000000D+00  0.000000D+00
     15   0.212556D-01  0.000000D+00  0.000000D+00  0.000000D+00  0.000000D+00
     16   0.475149D+00  0.000000D+00  0.000000D+00  0.000000D+00  0.000000D+00
               236           237           238           239           240 
      1  -0.734011D+02 -0.734011D+02 -0.732216D+02 -0.731579D+02 -0.729781D+02
      2   0.000000D+00  0.000000D+00  0.000000D+00  0.000000D+00  0.000000D+00
      3   0.000000D+00  0.000000D+00  0.000000D+00  0.000000D+00  0.000000D+00
      4   0.000000D+00  0.000000D+00  0.000000D+00  0.101092D-01  0.000000D+00
      5   0.000000D+00  0.000000D+00  0.000000D+00  0.000000D+00  0.000000D+00
      6   0.000000D+00  0.000000D+00  0.000000D+00  0.000000D+00  0.000000D+00
      7   0.000000D+00  0.000000D+00  0.000000D+00 -0.548446D-01  0.000000D+00
      8   0.150490D-02  0.430688D-02  0.000000D+00  0.000000D+00  0.000000D+00
      9  -0.430688D-02  0.150490D-02  0.000000D+00  0.000000D+00  0.000000D+00
     10   0.000000D+00  0.000000D+00  0.000000D+00  0.000000D+00  0.000000D+00
     11   0.000000D+00  0.000000D+00 -0.376489D-01  0.000000D+00  0.162224D+00
     12   0.000000D+00  0.000000D+00 -0.376489D-01  0.000000D+00  0.162224D+00
     13   0.000000D+00  0.000000D+00 -0.110429D+01  0.000000D+00  0.977844D+00
     14   0.000000D+00  0.000000D+00  0.000000D+00  0.000000D+00  0.000000D+00
     15  -0.227722D+00  0.795702D-01  0.000000D+00  0.000000D+00  0.000000D+00
     16  -0.795702D-01 -0.227722D+00  0.000000D+00  0.000000D+00  0.000000D+00
               241           242           243           244           245 
      1  -0.727150D+02 -0.727150D+02 -0.724740D+02 -0.723976D+02 -0.722216D+02
      2   0.000000D+00  0.000000D+00  0.000000D+00  0.000000D+00  0.000000D+00
      3   0.000000D+00  0.000000D+00  0.000000D+00  0.000000D+00  0.000000D+00
      4   0.000000D+00  0.000000D+00 -0.500866D-01  0.000000D+00 -0.522074D-01
      5   0.000000D+00  0.000000D+00  0.000000D+00  0.000000D+00  0.000000D+00
      6   0.000000D+00  0.000000D+00  0.000000D+00  0.000000D+00  0.000000D+00
      7   0.000000D+00  0.000000D+00  0.183039D+00  0.000000D+00  0.223753D+00
      8   0.307219D+00  0.175118D+00  0.000000D+00  0.000000D+00  0.000000D+00
      9   0.175118D+00 -0.307219D+00  0.000000D+00  0.000000D+00  0.000000D+00
     10   0.000000D+00  0.000000D+00  0.000000D+00  0.000000D+00  0.000000D+00
     11   0.000000D+00  0.000000D+00  0.000000D+00 -0.160787D+00  0.000000D+00
     12   0.000000D+00  0.000000D+00  0.000000D+00 -0.160787D+00  0.000000D+00
     13   0.000000D+00  0.000000D+00  0.000000D+00  0.751090D+00  0.000000D+00
     14   0.000000D+00  0.000000D+00  0.000000D+00  0.000000D+00  0.000000D+00
     15   0.209723D+00 -0.367928D+00  0.000000D+00  0.000000D+00  0.000000D+00
     16  -0.367928D+00 -0.209723D+00  0.000000D+00  0.000000D+00  0.000000D+00
 Unable to Open any file for archive entry.
 1\1\GINC-HEL22\SP\RLC-BLYP TD-FC\Gen\C2H2\SABYASACHI\21-Mar-2022\0\\#P
  TD(Nstates=10000) lc-blyp/Gen SCF(maxcycles=100) Int(Grid=ultrafine)\
 \xGDB7_00001_tier4.com\\0,1\C,0,0.,0.,0.597322\C,0,0.,0.,-0.597322\H,0
 ,0.,0.,1.661338\H,0,0.,0.,-1.661338\\Version=EM64L-G16RevC.01\State=1-
 SGG\HF=-77.0220089\RMSD=6.285e-09\PG=D*H [C*(H1C1.C1H1)]\\@
 The archive entry for this job was punched.


 NO SCIENCE HAS EVER MADE MORE RAPID PROGRESS IN A
 SHORTER TIME THAN CHEMISTRY.
   -- MARTIN HEINRICH KLOPROTH, 1791
 (FIRST PROFESSOR OF CHEMISTRY AT THE UNIVERSITY OF BERLIN)
 Job cpu time:       0 days  0 hours  0 minutes 34.5 seconds.
 Elapsed time:       0 days  0 hours  0 minutes  4.6 seconds.
 File lengths (MBytes):  RWF=     81 Int=      0 D2E=      0 Chk=     20 Scr=      1
 Normal termination of Gaussian 16 at Mon Mar 21 20:15:15 2022.
