 Entering Gaussian System, Link 0=g16
 Input=000021.com
 Output=000021.log
 Initial command:
 /home/sabyasachi/g16/l1.exe "/scratch/sabyasachi/PBS_7976221.helios/Gau-107409.inp" -scrdir="/scratch/sabyasachi/PBS_7976221.helios/"
 Entering Link 1 = /home/sabyasachi/g16/l1.exe PID=    107410.
  
 Copyright (c) 1988-2019, Gaussian, Inc.  All Rights Reserved.
  
 This is part of the Gaussian(R) 16 program.  It is based on
 the Gaussian(R) 09 system (copyright 2009, Gaussian, Inc.),
 the Gaussian(R) 03 system (copyright 2003, Gaussian, Inc.),
 the Gaussian(R) 98 system (copyright 1998, Gaussian, Inc.),
 the Gaussian(R) 94 system (copyright 1995, Gaussian, Inc.),
 the Gaussian 92(TM) system (copyright 1992, Gaussian, Inc.),
 the Gaussian 90(TM) system (copyright 1990, Gaussian, Inc.),
 the Gaussian 88(TM) system (copyright 1988, Gaussian, Inc.),
 the Gaussian 86(TM) system (copyright 1986, Carnegie Mellon
 University), and the Gaussian 82(TM) system (copyright 1983,
 Carnegie Mellon University). Gaussian is a federally registered
 trademark of Gaussian, Inc.
  
 This software contains proprietary and confidential information,
 including trade secrets, belonging to Gaussian, Inc.
  
 This software is provided under written license and may be
 used, copied, transmitted, or stored only in accord with that
 written license.
  
 The following legend is applicable only to US Government
 contracts under FAR:
  
                    RESTRICTED RIGHTS LEGEND
  
 Use, reproduction and disclosure by the US Government is
 subject to restrictions as set forth in subparagraphs (a)
 and (c) of the Commercial Computer Software - Restricted
 Rights clause in FAR 52.227-19.
  
 Gaussian, Inc.
 340 Quinnipiac St., Bldg. 40, Wallingford CT 06492
  
  
 ---------------------------------------------------------------
 Warning -- This program may not be used in any manner that
 competes with the business of Gaussian, Inc. or will provide
 assistance to any competitor of Gaussian, Inc.  The licensee
 of this program is prohibited from giving any competitor of
 Gaussian, Inc. access to this program.  By using this program,
 the user acknowledges that Gaussian, Inc. is engaged in the
 business of creating and licensing software in the field of
 computational chemistry and represents and warrants to the
 licensee that it is not a competitor of Gaussian, Inc. and that
 it will not use this program in any manner prohibited above.
 ---------------------------------------------------------------
  

 Cite this work as:
 Gaussian 16, Revision C.01,
 M. J. Frisch, G. W. Trucks, H. B. Schlegel, G. E. Scuseria, 
 M. A. Robb, J. R. Cheeseman, G. Scalmani, V. Barone, 
 G. A. Petersson, H. Nakatsuji, X. Li, M. Caricato, A. V. Marenich, 
 J. Bloino, B. G. Janesko, R. Gomperts, B. Mennucci, H. P. Hratchian, 
 J. V. Ortiz, A. F. Izmaylov, J. L. Sonnenberg, D. Williams-Young, 
 F. Ding, F. Lipparini, F. Egidi, J. Goings, B. Peng, A. Petrone, 
 T. Henderson, D. Ranasinghe, V. G. Zakrzewski, J. Gao, N. Rega, 
 G. Zheng, W. Liang, M. Hada, M. Ehara, K. Toyota, R. Fukuda, 
 J. Hasegawa, M. Ishida, T. Nakajima, Y. Honda, O. Kitao, H. Nakai, 
 T. Vreven, K. Throssell, J. A. Montgomery, Jr., J. E. Peralta, 
 F. Ogliaro, M. J. Bearpark, J. J. Heyd, E. N. Brothers, K. N. Kudin, 
 V. N. Staroverov, T. A. Keith, R. Kobayashi, J. Normand, 
 K. Raghavachari, A. P. Rendell, J. C. Burant, S. S. Iyengar, 
 J. Tomasi, M. Cossi, J. M. Millam, M. Klene, C. Adamo, R. Cammi, 
 J. W. Ochterski, R. L. Martin, K. Morokuma, O. Farkas, 
 J. B. Foresman, and D. J. Fox, Gaussian, Inc., Wallingford CT, 2019.
 
 ******************************************
 Gaussian 16:  EM64L-G16RevC.01  3-Jul-2019
                21-Mar-2022 
 ******************************************
 %mem=64gb
 %nproc=8
 Will use up to    8 processors via shared memory.
 ----------------------------------------------------------------------
 #P TD(Nstates=10000) lc-blyp/Gen SCF(maxcycles=100) Int(Grid=ultrafine
 )
 ----------------------------------------------------------------------
 1/38=1,172=1/1;
 2/12=2,17=6,18=5,40=1/2;
 3/5=7,11=9,25=1,30=1,74=1000402,75=-5/1,2,3,8;
 4//1;
 5/5=2,7=100,38=5/2;
 8/6=1,10=1,108=10000/1;
 9/41=10000,42=1,70=2/14;
 6/7=2,8=2,9=2,10=2/1;
 99/5=1,9=1/99;
 Leave Link    1 at Mon Mar 21 04:09:33 2022, MaxMem=  8589934592 cpu:               0.3 elap:               0.0
 (Enter /home/sabyasachi/g16/l101.exe)
 ---------------------
 xGDB7_00001_tier4.com
 ---------------------
 Symbolic Z-matrix:
 Charge =  0 Multiplicity = 1
 6                    -1.13157  -0.50439   0. 
 6                     0.        0.47222   0. 
 6                     1.28414   0.15079   0. 
 1                    -1.76745  -0.36278   0.8777 
 1                    -0.77012  -1.53346   0. 
 1                    -1.76745  -0.36278  -0.8777 
 1                    -0.27655   1.52347   0. 
 1                     1.60844  -0.88456   0. 
 1                     2.05775   0.90833   0. 
 
 ITRead=  0  0  0  0  0  0  0  0  0
 MicOpt= -1 -1 -1 -1 -1 -1 -1 -1 -1
 NAtoms=      9 NQM=        9 NQMF=       0 NMMI=      0 NMMIF=      0
                NMic=       0 NMicF=      0.
                    Isotopes and Nuclear Properties:
 (Nuclear quadrupole moments (NQMom) in fm**2, nuclear magnetic moments (NMagM)
  in nuclear magnetons)

  Atom         1           2           3           4           5           6           7           8           9
 IAtWgt=          12          12          12           1           1           1           1           1           1
 AtmWgt=  12.0000000  12.0000000  12.0000000   1.0078250   1.0078250   1.0078250   1.0078250   1.0078250   1.0078250
 NucSpn=           0           0           0           1           1           1           1           1           1
 AtZEff=  -0.0000000  -0.0000000  -0.0000000  -0.0000000  -0.0000000  -0.0000000  -0.0000000  -0.0000000  -0.0000000
 NQMom=    0.0000000   0.0000000   0.0000000   0.0000000   0.0000000   0.0000000   0.0000000   0.0000000   0.0000000
 NMagM=    0.0000000   0.0000000   0.0000000   2.7928460   2.7928460   2.7928460   2.7928460   2.7928460   2.7928460
 AtZNuc=   6.0000000   6.0000000   6.0000000   1.0000000   1.0000000   1.0000000   1.0000000   1.0000000   1.0000000
 Leave Link  101 at Mon Mar 21 04:09:33 2022, MaxMem=  8589934592 cpu:               0.6 elap:               0.1
 (Enter /home/sabyasachi/g16/l202.exe)
                          Input orientation:                          
 ---------------------------------------------------------------------
 Center     Atomic      Atomic             Coordinates (Angstroms)
 Number     Number       Type             X           Y           Z
 ---------------------------------------------------------------------
      1          6           0       -1.131573   -0.504386    0.000000
      2          6           0        0.000000    0.472223    0.000000
      3          6           0        1.284136    0.150792    0.000000
      4          1           0       -1.767446   -0.362775    0.877699
      5          1           0       -0.770123   -1.533458    0.000000
      6          1           0       -1.767446   -0.362775   -0.877699
      7          1           0       -0.276551    1.523465    0.000000
      8          1           0        1.608435   -0.884556    0.000000
      9          1           0        2.057749    0.908326    0.000000
 ---------------------------------------------------------------------
                    Distance matrix (angstroms):
                    1          2          3          4          5
     1  C    0.000000
     2  C    1.494732   0.000000
     3  C    2.502980   1.323753   0.000000
     4  H    1.093043   2.142765   3.216560   0.000000
     5  H    1.090704   2.148452   2.656441   1.770736   0.000000
     6  H    1.093043   2.142765   3.216560   1.755398   1.770736
     7  H    2.200737   1.087010   2.078455   2.559497   3.096513
     8  H    2.766256   2.104261   1.084949   3.526923   2.465484
     9  H    3.488199   2.103454   1.082744   4.125308   3.736197
                    6          7          8          9
     6  H    0.000000
     7  H    2.559497   0.000000
     8  H    3.526923   3.058061   0.000000
     9  H    4.125308   2.413991   1.848326   0.000000
 Stoichiometry    C3H6
 Framework group  CS[SG(C3H4),X(H2)]
 Deg. of freedom    14
 Full point group                 CS      NOp   2
 Largest Abelian subgroup         CS      NOp   2
 Largest concise Abelian subgroup CS      NOp   2
                         Standard orientation:                         
 ---------------------------------------------------------------------
 Center     Atomic      Atomic             Coordinates (Angstroms)
 Number     Number       Type             X           Y           Z
 ---------------------------------------------------------------------
      1          6           0       -1.131573   -0.504386    0.000000
      2          6           0        0.000000    0.472223    0.000000
      3          6           0        1.284136    0.150792    0.000000
      4          1           0       -1.767446   -0.362776    0.877699
      5          1           0       -0.770122   -1.533458    0.000000
      6          1           0       -1.767446   -0.362776   -0.877699
      7          1           0       -0.276551    1.523465    0.000000
      8          1           0        1.608435   -0.884555    0.000000
      9          1           0        2.057749    0.908327    0.000000
 ---------------------------------------------------------------------
 Rotational constants (GHZ):          47.1476739           9.3674147           8.2089652
 Leave Link  202 at Mon Mar 21 04:09:33 2022, MaxMem=  8589934592 cpu:               0.1 elap:               0.0
 (Enter /home/sabyasachi/g16/l301.exe)
 General basis read from cards:  (5D, 7F)
 Centers:       4      5      6      7      8      9
 S 3 1.00
     Exponent=  1.3010701000D+01 Coefficients=  1.9682158000D-02
     Exponent=  1.9622572000D+00 Coefficients=  1.3796524000D-01
     Exponent=  4.4453796000D-01 Coefficients=  4.7831935000D-01
 S 1 1.00
     Exponent=  1.2194962000D-01 Coefficients=  1.0000000000D+00
 P 1 1.00
     Exponent=  8.0000000000D-01 Coefficients=  1.0000000000D+00
 P 1 1.00
     Exponent=  1.1704099050D-01 Coefficients=  1.0000000000D+00
 ****
 Centers:       1      2      3
 S 5 1.00
     Exponent=  1.2384016938D+03 Coefficients=  5.4568832082D-03
     Exponent=  1.8629004992D+02 Coefficients=  4.0638409211D-02
     Exponent=  4.2251176346D+01 Coefficients=  1.8025593888D-01
     Exponent=  1.1676557932D+01 Coefficients=  4.6315121755D-01
     Exponent=  3.5930506482D+00 Coefficients=  4.4087173314D-01
 S 1 1.00
     Exponent=  4.0245147363D-01 Coefficients=  1.0000000000D+00
 S 1 1.00
     Exponent=  1.3090182668D-01 Coefficients=  1.0000000000D+00
 S 1 1.00
     Exponent=  6.7053540256D-02 Coefficients=  1.0000000000D+00
 P 3 1.00
     Exponent=  9.4680970621D+00 Coefficients=  3.8387871728D-02
     Exponent=  2.0103545142D+00 Coefficients=  2.1117025112D-01
     Exponent=  5.4771004707D-01 Coefficients=  5.1328172114D-01
 P 1 1.00
     Exponent=  1.5268613795D-01 Coefficients=  1.0000000000D+00
 D 1 1.00
     Exponent=  8.0000000000D-01 Coefficients=  1.0000000000D+00
 D 1 1.00
     Exponent=  1.1713185140D-01 Coefficients=  1.0000000000D+00
 ****
 Ernie: Thresh=  0.10000D-02 Tol=  0.10000D-05 Strict=F.
 There are    80 symmetry adapted cartesian basis functions of A'  symmetry.
 There are    34 symmetry adapted cartesian basis functions of A"  symmetry.
 There are    74 symmetry adapted basis functions of A'  symmetry.
 There are    34 symmetry adapted basis functions of A"  symmetry.
   108 basis functions,   156 primitive gaussians,   114 cartesian basis functions
    12 alpha electrons       12 beta electrons
       nuclear repulsion energy        70.9801488057 Hartrees.
 IExCor=10402 DFT=T Ex=LC-B+HF Corr=LYP ExCW=0 ScaHFX=  1.000000
 ScaDFX=  1.000000  1.000000  1.000000  1.000000 ScalE2=  1.000000  1.000000
 IRadAn=      5 IRanWt=     -1 IRanGd=            0 ICorTp=0 IEmpDi=  4
 HFx  wShort=  0.000000 wLong=  0.470000 cFull=  0.000000 cShort=  0.000000 cLong=  1.000000
 DFx  wShort=  0.000000 wLong=  0.470000 cFull=  0.000000 cShort=  0.000000 cLong=  1.000000
 NAtoms=    9 NActive=    9 NUniq=    8 SFac= 1.27D+00 NAtFMM=   60 NAOKFM=F Big=F
 Integral buffers will be    131072 words long.
 Raffenetti 1 integral format.
 Two-electron integral symmetry is turned on.
 Leave Link  301 at Mon Mar 21 04:09:33 2022, MaxMem=  8589934592 cpu:               0.5 elap:               0.1
 (Enter /home/sabyasachi/g16/l302.exe)
 NPDir=0 NMtPBC=     1 NCelOv=     1 NCel=       1 NClECP=     1 NCelD=      1
         NCelK=      1 NCelE2=     1 NClLst=     1 CellRange=     0.0.
 One-electron integrals computed using PRISM.
 One-electron integral symmetry used in STVInt
 NBasis=   108 RedAO= T EigKep=  8.08D-05  NBF=    74    34
 NBsUse=   108 1.00D-06 EigRej= -1.00D+00 NBFU=    74    34
 Precomputing XC quadrature grid using
 IXCGrd= 4 IRadAn=           5 IRanWt=          -1 IRanGd=           0 AccXCQ= 0.00D+00.
 Generated NRdTot=       0 NPtTot=           0 NUsed=           0 NTot=          32
 NSgBfM=   114   114   114   114   114 MxSgAt=     9 MxSgA2=     9.
 Leave Link  302 at Mon Mar 21 04:09:33 2022, MaxMem=  8589934592 cpu:               1.1 elap:               0.2
 (Enter /home/sabyasachi/g16/l303.exe)
 DipDrv:  MaxL=1.
 Leave Link  303 at Mon Mar 21 04:09:33 2022, MaxMem=  8589934592 cpu:               0.2 elap:               0.0
 (Enter /home/sabyasachi/g16/l308.exe)
 Leave Link  308 at Mon Mar 21 04:09:33 2022, MaxMem=  8589934592 cpu:               0.2 elap:               0.1
 (Enter /home/sabyasachi/g16/l401.exe)
 ExpMin= 6.71D-02 ExpMax= 1.24D+03 ExpMxC= 1.86D+02 IAcc=3 IRadAn=         5 AccDes= 0.00D+00
 Harris functional with IExCor=10402 and IRadAn=       5 diagonalized for initial guess.
 HarFok:  IExCor=10402 AccDes= 0.00D+00 IRadAn=         5 IDoV= 1 UseB2=F ITyADJ=14
 ICtDFT=  3500011 ScaDFX=  1.000000  1.000000  1.000000  1.000000
 FoFCou: FMM=F IPFlag=           0 FMFlag=      100000 FMFlg1=           0
         NFxFlg=           0 DoJE=T BraDBF=F KetDBF=T FulRan=T
         wScrn=  0.000000 ICntrl=       500 IOpCl=  0 I1Cent=   200000004 NGrid=           0
         NMat0=    1 NMatS0=      1 NMatT0=    0 NMatD0=    1 NMtDS0=    0 NMtDT0=    0
 Petite list used in FoFCou.
 Harris En= -112.211556106834    
 JPrj=0 DoOrth=F DoCkMO=F.
 Initial guess orbital symmetries:
       Occupied  (A') (A') (A') (A') (A') (A') (A') (A') (A") (A')
                 (A') (A")
       Virtual   (A") (A') (A') (A') (A') (A") (A') (A') (A") (A')
                 (A') (A") (A') (A") (A') (A') (A") (A') (A") (A')
                 (A') (A') (A') (A") (A') (A') (A") (A") (A') (A')
                 (A') (A") (A') (A') (A') (A') (A') (A") (A") (A')
                 (A") (A') (A') (A") (A') (A") (A') (A') (A") (A')
                 (A') (A') (A") (A') (A') (A') (A") (A') (A') (A')
                 (A') (A') (A') (A") (A") (A") (A") (A') (A") (A')
                 (A') (A") (A') (A') (A") (A') (A') (A") (A') (A")
                 (A') (A') (A') (A") (A") (A') (A') (A') (A") (A')
                 (A') (A') (A") (A') (A') (A')
 The electronic state of the initial guess is 1-A'.
 Leave Link  401 at Mon Mar 21 04:09:34 2022, MaxMem=  8589934592 cpu:               2.3 elap:               0.3
 (Enter /home/sabyasachi/g16/l502.exe)
 Keep R1 ints in memory in symmetry-blocked form, NReq=52358333.
 FoFCou: FMM=F IPFlag=           0 FMFlag=           0 FMFlg1=           0
         NFxFlg=           0 DoJE=F BraDBF=F KetDBF=F FulRan=T
         wScrn=  0.000000 ICntrl=       600 IOpCl=  0 I1Cent=           0 NGrid=           0
         NMat0=    1 NMatS0=   5886 NMatT0=    0 NMatD0=    1 NMtDS0=    0 NMtDT0=    0
 Petite list used in FoFCou.
 Closed shell SCF:
 Using DIIS extrapolation, IDIIS=  1040.
 NGot=  8589934592 LenX=  8581046321 LenY=  8581032884
 Requested convergence on RMS density matrix=1.00D-08 within 100 cycles.
 Requested convergence on MAX density matrix=1.00D-06.
 Requested convergence on             energy=1.00D-06.
 No special actions if energy rises.
 Integral accuracy reduced to 1.0D-05 until final iterations.

 Cycle   1  Pass 0  IDiag  1:
 E= -117.381919970609    
 DIIS: error= 1.93D-02 at cycle   1 NSaved=   1.
 NSaved= 1 IEnMin= 1 EnMin= -117.381919970609     IErMin= 1 ErrMin= 1.93D-02
 ErrMax= 1.93D-02  0.00D+00 EMaxC= 1.00D-01 BMatC= 5.17D-02 BMatP= 5.17D-02
 IDIUse=3 WtCom= 8.07D-01 WtEn= 1.93D-01
 Coeff-Com:  0.100D+01
 Coeff-En:   0.100D+01
 Coeff:      0.100D+01
 Gap=     0.404 Goal=   None    Shift=    0.000
 GapD=    0.404 DampG=2.000 DampE=0.500 DampFc=1.0000 IDamp=-1.
 RMSDP=1.04D-02 MaxDP=2.73D-01              OVMax= 7.72D-02

 Cycle   2  Pass 0  IDiag  1:
 E= -117.418913189302     Delta-E=       -0.036993218692 Rises=F Damp=F
 DIIS: error= 1.39D-02 at cycle   2 NSaved=   2.
 NSaved= 2 IEnMin= 2 EnMin= -117.418913189302     IErMin= 2 ErrMin= 1.39D-02
 ErrMax= 1.39D-02  0.00D+00 EMaxC= 1.00D-01 BMatC= 1.79D-02 BMatP= 5.17D-02
 IDIUse=3 WtCom= 8.61D-01 WtEn= 1.39D-01
 Coeff-Com:  0.365D+00 0.635D+00
 Coeff-En:   0.994D-01 0.901D+00
 Coeff:      0.328D+00 0.672D+00
 Gap=     0.470 Goal=   None    Shift=    0.000
 RMSDP=2.22D-03 MaxDP=5.11D-02 DE=-3.70D-02 OVMax= 3.65D-02

 Cycle   3  Pass 0  IDiag  1:
 E= -117.437398516809     Delta-E=       -0.018485327507 Rises=F Damp=F
 DIIS: error= 1.47D-03 at cycle   3 NSaved=   3.
 NSaved= 3 IEnMin= 3 EnMin= -117.437398516809     IErMin= 3 ErrMin= 1.47D-03
 ErrMax= 1.47D-03  0.00D+00 EMaxC= 1.00D-01 BMatC= 2.08D-04 BMatP= 1.79D-02
 IDIUse=3 WtCom= 9.85D-01 WtEn= 1.47D-02
 Coeff-Com: -0.433D-01 0.225D-01 0.102D+01
 Coeff-En:   0.000D+00 0.000D+00 0.100D+01
 Coeff:     -0.427D-01 0.221D-01 0.102D+01
 Gap=     0.467 Goal=   None    Shift=    0.000
 RMSDP=7.04D-04 MaxDP=1.38D-02 DE=-1.85D-02 OVMax= 5.59D-03

 Cycle   4  Pass 0  IDiag  1:
 E= -117.437695558661     Delta-E=       -0.000297041852 Rises=F Damp=F
 DIIS: error= 2.98D-04 at cycle   4 NSaved=   4.
 NSaved= 4 IEnMin= 4 EnMin= -117.437695558661     IErMin= 4 ErrMin= 2.98D-04
 ErrMax= 2.98D-04  0.00D+00 EMaxC= 1.00D-01 BMatC= 4.95D-06 BMatP= 2.08D-04
 IDIUse=3 WtCom= 9.97D-01 WtEn= 2.98D-03
 Coeff-Com: -0.161D-01-0.229D-01 0.510D-01 0.988D+00
 Coeff-En:   0.000D+00 0.000D+00 0.000D+00 0.100D+01
 Coeff:     -0.161D-01-0.229D-01 0.509D-01 0.988D+00
 Gap=     0.467 Goal=   None    Shift=    0.000
 RMSDP=1.28D-04 MaxDP=1.61D-03 DE=-2.97D-04 OVMax= 1.95D-03

 Cycle   5  Pass 0  IDiag  1:
 E= -117.437706767803     Delta-E=       -0.000011209142 Rises=F Damp=F
 DIIS: error= 7.76D-05 at cycle   5 NSaved=   5.
 NSaved= 5 IEnMin= 5 EnMin= -117.437706767803     IErMin= 5 ErrMin= 7.76D-05
 ErrMax= 7.76D-05  0.00D+00 EMaxC= 1.00D-01 BMatC= 8.30D-07 BMatP= 4.95D-06
 IDIUse=1 WtCom= 1.00D+00 WtEn= 0.00D+00
 Coeff-Com: -0.197D-02-0.765D-02-0.436D-01 0.250D+00 0.803D+00
 Coeff:     -0.197D-02-0.765D-02-0.436D-01 0.250D+00 0.803D+00
 Gap=     0.467 Goal=   None    Shift=    0.000
 RMSDP=2.28D-05 MaxDP=3.53D-04 DE=-1.12D-05 OVMax= 3.95D-04

 Cycle   6  Pass 0  IDiag  1:
 E= -117.437707842935     Delta-E=       -0.000001075132 Rises=F Damp=F
 DIIS: error= 4.27D-05 at cycle   6 NSaved=   6.
 NSaved= 6 IEnMin= 6 EnMin= -117.437707842935     IErMin= 6 ErrMin= 4.27D-05
 ErrMax= 4.27D-05  0.00D+00 EMaxC= 1.00D-01 BMatC= 9.68D-08 BMatP= 8.30D-07
 IDIUse=1 WtCom= 1.00D+00 WtEn= 0.00D+00
 Coeff-Com:  0.138D-02 0.378D-03-0.188D-01-0.413D-01 0.236D+00 0.822D+00
 Coeff:      0.138D-02 0.378D-03-0.188D-01-0.413D-01 0.236D+00 0.822D+00
 Gap=     0.467 Goal=   None    Shift=    0.000
 RMSDP=7.84D-06 MaxDP=1.90D-04 DE=-1.08D-06 OVMax= 3.20D-04

 Initial convergence to 1.0D-05 achieved.  Increase integral accuracy.
 Cycle   7  Pass 1  IDiag  1:
 E= -117.437705766737     Delta-E=        0.000002076198 Rises=F Damp=F
 DIIS: error= 8.37D-06 at cycle   1 NSaved=   1.
 NSaved= 1 IEnMin= 1 EnMin= -117.437705766737     IErMin= 1 ErrMin= 8.37D-06
 ErrMax= 8.37D-06  0.00D+00 EMaxC= 1.00D-01 BMatC= 9.84D-09 BMatP= 9.84D-09
 IDIUse=1 WtCom= 1.00D+00 WtEn= 0.00D+00
 Coeff-Com:  0.100D+01
 Coeff:      0.100D+01
 Gap=     0.467 Goal=   None    Shift=    0.000
 RMSDP=7.84D-06 MaxDP=1.90D-04 DE= 2.08D-06 OVMax= 3.52D-05

 Cycle   8  Pass 1  IDiag  1:
 E= -117.437705778936     Delta-E=       -0.000000012198 Rises=F Damp=F
 DIIS: error= 7.91D-06 at cycle   2 NSaved=   2.
 NSaved= 2 IEnMin= 2 EnMin= -117.437705778936     IErMin= 2 ErrMin= 7.91D-06
 ErrMax= 7.91D-06  0.00D+00 EMaxC= 1.00D-01 BMatC= 3.36D-09 BMatP= 9.84D-09
 IDIUse=1 WtCom= 1.00D+00 WtEn= 0.00D+00
 Coeff-Com:  0.336D+00 0.664D+00
 Coeff:      0.336D+00 0.664D+00
 Gap=     0.467 Goal=   None    Shift=    0.000
 RMSDP=1.22D-06 MaxDP=2.60D-05 DE=-1.22D-08 OVMax= 4.79D-05

 Cycle   9  Pass 1  IDiag  1:
 E= -117.437705783635     Delta-E=       -0.000000004699 Rises=F Damp=F
 DIIS: error= 2.32D-06 at cycle   3 NSaved=   3.
 NSaved= 3 IEnMin= 3 EnMin= -117.437705783635     IErMin= 3 ErrMin= 2.32D-06
 ErrMax= 2.32D-06  0.00D+00 EMaxC= 1.00D-01 BMatC= 6.47D-10 BMatP= 3.36D-09
 IDIUse=1 WtCom= 1.00D+00 WtEn= 0.00D+00
 Coeff-Com: -0.282D+00 0.472D-01 0.123D+01
 Coeff:     -0.282D+00 0.472D-01 0.123D+01
 Gap=     0.467 Goal=   None    Shift=    0.000
 RMSDP=1.10D-06 MaxDP=2.70D-05 DE=-4.70D-09 OVMax= 2.29D-05

 Cycle  10  Pass 1  IDiag  1:
 E= -117.437705784865     Delta-E=       -0.000000001231 Rises=F Damp=F
 DIIS: error= 3.33D-07 at cycle   4 NSaved=   4.
 NSaved= 4 IEnMin= 4 EnMin= -117.437705784865     IErMin= 4 ErrMin= 3.33D-07
 ErrMax= 3.33D-07  0.00D+00 EMaxC= 1.00D-01 BMatC= 1.98D-11 BMatP= 6.47D-10
 IDIUse=1 WtCom= 1.00D+00 WtEn= 0.00D+00
 Coeff-Com: -0.104D+00-0.702D-02 0.337D+00 0.774D+00
 Coeff:     -0.104D+00-0.702D-02 0.337D+00 0.774D+00
 Gap=     0.467 Goal=   None    Shift=    0.000
 RMSDP=1.50D-07 MaxDP=4.12D-06 DE=-1.23D-09 OVMax= 3.66D-06

 Cycle  11  Pass 1  IDiag  1:
 E= -117.437705784896     Delta-E=       -0.000000000031 Rises=F Damp=F
 DIIS: error= 8.90D-08 at cycle   5 NSaved=   5.
 NSaved= 5 IEnMin= 5 EnMin= -117.437705784896     IErMin= 5 ErrMin= 8.90D-08
 ErrMax= 8.90D-08  0.00D+00 EMaxC= 1.00D-01 BMatC= 1.44D-12 BMatP= 1.98D-11
 IDIUse=1 WtCom= 1.00D+00 WtEn= 0.00D+00
 Coeff-Com:  0.161D-01 0.188D-02-0.891D-01 0.771D-01 0.994D+00
 Coeff:      0.161D-01 0.188D-02-0.891D-01 0.771D-01 0.994D+00
 Gap=     0.467 Goal=   None    Shift=    0.000
 RMSDP=8.41D-08 MaxDP=1.62D-06 DE=-3.10D-11 OVMax= 6.35D-07

 Cycle  12  Pass 1  IDiag  1:
 E= -117.437705784899     Delta-E=       -0.000000000003 Rises=F Damp=F
 DIIS: error= 2.55D-08 at cycle   6 NSaved=   6.
 NSaved= 6 IEnMin= 6 EnMin= -117.437705784899     IErMin= 6 ErrMin= 2.55D-08
 ErrMax= 2.55D-08  0.00D+00 EMaxC= 1.00D-01 BMatC= 7.14D-14 BMatP= 1.44D-12
 IDIUse=1 WtCom= 1.00D+00 WtEn= 0.00D+00
 Coeff-Com:  0.117D-01 0.177D-02-0.443D-01-0.602D-01 0.108D+00 0.983D+00
 Coeff:      0.117D-01 0.177D-02-0.443D-01-0.602D-01 0.108D+00 0.983D+00
 Gap=     0.467 Goal=   None    Shift=    0.000
 RMSDP=2.19D-08 MaxDP=2.88D-07 DE=-2.84D-12 OVMax= 2.32D-07

 Cycle  13  Pass 1  IDiag  1:
 E= -117.437705784900     Delta-E=       -0.000000000001 Rises=F Damp=F
 DIIS: error= 3.74D-09 at cycle   7 NSaved=   7.
 NSaved= 7 IEnMin= 7 EnMin= -117.437705784900     IErMin= 7 ErrMin= 3.74D-09
 ErrMax= 3.74D-09  0.00D+00 EMaxC= 1.00D-01 BMatC= 1.57D-15 BMatP= 7.14D-14
 IDIUse=1 WtCom= 1.00D+00 WtEn= 0.00D+00
 Coeff-Com: -0.226D-02-0.217D-03 0.908D-02 0.701D-02-0.470D-01-0.126D+00
 Coeff-Com:  0.116D+01
 Coeff:     -0.226D-02-0.217D-03 0.908D-02 0.701D-02-0.470D-01-0.126D+00
 Coeff:      0.116D+01
 Gap=     0.467 Goal=   None    Shift=    0.000
 RMSDP=2.55D-09 MaxDP=4.31D-08 DE=-1.25D-12 OVMax= 3.45D-08

 SCF Done:  E(RLC-B+HF-LYP) =  -117.437705785     A.U. after   13 cycles
            NFock= 13  Conv=0.25D-08     -V/T= 2.0115
 KE= 1.161012329428D+02 PE=-4.132232704403D+02 EE= 1.087041829068D+02
 Leave Link  502 at Mon Mar 21 04:09:36 2022, MaxMem=  8589934592 cpu:              18.7 elap:               2.4
 (Enter /home/sabyasachi/g16/l801.exe)
 DoSCS=F DFT=T ScalE2(SS,OS)=  1.000000  1.000000
 ExpMin= 6.71D-02 ExpMax= 1.24D+03 ExpMxC= 1.86D+02 IAcc=3 IRadAn=         5 AccDes= 0.00D+00
 HarFok:  IExCor=  205 AccDes= 0.00D+00 IRadAn=         5 IDoV=-2 UseB2=F ITyADJ=14
 ICtDFT= 12500011 ScaDFX=  1.000000  1.000000  1.000000  1.000000
 Largest valence mixing into a core orbital is  6.18D-05
 Largest core mixing into a valence orbital is  8.39D-06
 Range of M.O.s used for correlation:     4   108
 NBasis=   108 NAE=    12 NBE=    12 NFC=     3 NFV=     0
 NROrb=    105 NOA=     9 NOB=     9 NVA=    96 NVB=    96

 **** Warning!!: The largest alpha MO coefficient is  0.40970118D+02

 Leave Link  801 at Mon Mar 21 04:09:36 2022, MaxMem=  8589934592 cpu:               0.5 elap:               0.1
 (Enter /home/sabyasachi/g16/l914.exe)
 RHF ground state
 Keep R1, R2, and R3 ints in memory in symmetry-blocked form, NReq=935716124.
 FoFCou: FMM=F IPFlag=           0 FMFlag=           0 FMFlg1=           0
         NFxFlg=           0 DoJE=F BraDBF=F KetDBF=F FulRan=T
         wScrn=  0.000000 ICntrl=       600 IOpCl=  0 I1Cent=           0 NGrid=           0
         NMat0=    1 NMatS0=   5886 NMatT0=    0 NMatD0=    1 NMtDS0=    0 NMtDT0=    0
 Petite list used in FoFCou.
 MDV=  8589934592 DFT=T DoStab=F Mixed=T DoRPA=T DoScal=F NonHer=T
 Making orbital integer symmetry assigments:
 Orbital symmetries:
       Occupied  (A') (A') (A') (A') (A') (A') (A') (A') (A") (A')
                 (A') (A")
       Virtual   (A') (A") (A') (A') (A') (A") (A') (A') (A") (A')
                 (A') (A") (A') (A") (A') (A') (A") (A') (A") (A')
                 (A') (A') (A") (A') (A') (A") (A") (A') (A') (A')
                 (A') (A") (A') (A') (A') (A') (A") (A") (A') (A")
                 (A') (A') (A") (A') (A') (A") (A') (A') (A") (A')
                 (A') (A') (A") (A') (A') (A") (A') (A') (A') (A')
                 (A') (A') (A') (A") (A") (A") (A") (A") (A') (A')
                 (A') (A") (A') (A') (A") (A') (A') (A") (A') (A")
                 (A') (A') (A') (A") (A') (A") (A') (A') (A") (A')
                 (A') (A') (A") (A') (A') (A')
   864 initial guesses have been made.
 Convergence on wavefunction:    0.001000000000000
 Davidson Disk Diagonalization:  ConvIn= 1.00D-03 SkipCon=T Conv= 1.00D-03.
 Max sub-space:  5184 roots to seek:  1728 dimension of matrix:         1728
 *** WARNING: Number of orthogonal guesses is          864
 Iteration     1 Dimension   864 NMult     0 NNew    864
 CISAX will form   864 AO SS matrices at one time.
 NMat=   864 NSing=   864 JSym2X=-1.
 New state      1 was old state      2
 New state      2 was old state      1
 New state      3 was old state      9
 New state      5 was old state      3
 New state      6 was old state     15
 New state      7 was old state      5
 New state      9 was old state      6
 New state     10 was old state      7
 New state     11 was old state     13
 New state     12 was old state     10
 New state     13 was old state     28
 New state     14 was old state     12
 New state     15 was old state     14
 New state     16 was old state     11
 New state     17 was old state     16
 New state     20 was old state     21
 New state     21 was old state     20
 New state     22 was old state     26
 New state     23 was old state     17
 New state     24 was old state     44
 New state     25 was old state     22
 New state     26 was old state     25
 New state     27 was old state     24
 New state     28 was old state     29
 New state     29 was old state     32
 New state     30 was old state     33
 New state     31 was old state     36
 New state     32 was old state     23
 New state     33 was old state     38
 New state     35 was old state     30
 New state     36 was old state     39
 New state     38 was old state     42
 New state     39 was old state     47
 New state     40 was old state     46
 New state     42 was old state     31
 New state     43 was old state     45
 New state     44 was old state     49
 New state     45 was old state     35
 New state     46 was old state     43
 New state     47 was old state     53
 New state     48 was old state     27
 New state     49 was old state     40
 New state     50 was old state     51
 New state     51 was old state     54
 New state     52 was old state     55
 New state     53 was old state     58
 New state     54 was old state     56
 New state     55 was old state     57
 New state     56 was old state     60
 New state     57 was old state     69
 New state     58 was old state     63
 New state     60 was old state     66
 New state     61 was old state     48
 New state     62 was old state     61
 New state     63 was old state     52
 New state     64 was old state     82
 New state     65 was old state     50
 New state     66 was old state     62
 New state     68 was old state     65
 New state     69 was old state     72
 New state     70 was old state     68
 New state     71 was old state     73
 New state     72 was old state     80
 New state     73 was old state     76
 New state     74 was old state     85
 New state     75 was old state     71
 New state     76 was old state     90
 New state     77 was old state     92
 New state     80 was old state     70
 New state     81 was old state     74
 New state     82 was old state     83
 New state     83 was old state     89
 New state     84 was old state     97
 New state     85 was old state     77
 New state     86 was old state     81
 New state     87 was old state     75
 New state     88 was old state     84
 New state     89 was old state     88
 New state     90 was old state     93
 New state     91 was old state    100
 New state     92 was old state     95
 New state     93 was old state    103
 New state     94 was old state     99
 New state     95 was old state     98
 New state     96 was old state    107
 New state     97 was old state     96
 New state     98 was old state     91
 New state     99 was old state     94
 New state    100 was old state     86
 New state    101 was old state    102
 New state    102 was old state    106
 New state    103 was old state    101
 New state    104 was old state    116
 New state    106 was old state    113
 New state    107 was old state    104
 New state    108 was old state    112
 New state    110 was old state    124
 New state    111 was old state    115
 New state    112 was old state    120
 New state    113 was old state    123
 New state    114 was old state    125
 New state    115 was old state    108
 New state    116 was old state    111
 New state    117 was old state    118
 New state    118 was old state    114
 New state    120 was old state    117
 New state    122 was old state    128
 New state    123 was old state    129
 New state    124 was old state    133
 New state    125 was old state    122
 New state    126 was old state    149
 New state    127 was old state    130
 New state    128 was old state    154
 New state    129 was old state    137
 New state    130 was old state    132
 New state    132 was old state    134
 New state    133 was old state    127
 New state    134 was old state    143
 New state    136 was old state    157
 New state    137 was old state    141
 New state    138 was old state    136
 New state    139 was old state    142
 New state    140 was old state    139
 New state    141 was old state    145
 New state    142 was old state    126
 New state    143 was old state    140
 New state    144 was old state    138
 New state    145 was old state    146
 New state    146 was old state    166
 New state    147 was old state    158
 New state    148 was old state    151
 New state    149 was old state    147
 New state    150 was old state    155
 New state    151 was old state    165
 New state    152 was old state    159
 New state    153 was old state    152
 New state    154 was old state    144
 New state    155 was old state    148
 New state    156 was old state    162
 New state    157 was old state    150
 New state    158 was old state    169
 New state    159 was old state    156
 New state    160 was old state    161
 New state    161 was old state    168
 New state    162 was old state    175
 New state    163 was old state    153
 New state    164 was old state    174
 New state    165 was old state    176
 New state    166 was old state    178
 New state    167 was old state    173
 New state    168 was old state    170
 New state    169 was old state    164
 New state    170 was old state    167
 New state    171 was old state    182
 New state    172 was old state    180
 New state    173 was old state    160
 New state    174 was old state    163
 New state    175 was old state    171
 New state    176 was old state    172
 New state    177 was old state    186
 New state    178 was old state    177
 New state    179 was old state    181
 New state    180 was old state    205
 New state    181 was old state    191
 New state    182 was old state    200
 New state    183 was old state    187
 New state    184 was old state    196
 New state    185 was old state    190
 New state    186 was old state    198
 New state    187 was old state    184
 New state    188 was old state    183
 New state    189 was old state    195
 New state    190 was old state    202
 New state    191 was old state    222
 New state    193 was old state    188
 New state    194 was old state    185
 New state    195 was old state    193
 New state    196 was old state    189
 New state    197 was old state    199
 New state    198 was old state    209
 New state    199 was old state    194
 New state    200 was old state    197
 New state    202 was old state    204
 New state    203 was old state    206
 New state    204 was old state    179
 New state    205 was old state    221
 New state    206 was old state    225
 New state    207 was old state    210
 New state    208 was old state    217
 New state    209 was old state    211
 New state    210 was old state    207
 New state    211 was old state    213
 New state    212 was old state    218
 New state    213 was old state    219
 New state    214 was old state    237
 New state    215 was old state    208
 New state    216 was old state    220
 New state    217 was old state    214
 New state    218 was old state    244
 New state    219 was old state    224
 New state    220 was old state    215
 New state    221 was old state    216
 New state    222 was old state    245
 New state    223 was old state    241
 New state    224 was old state    227
 New state    225 was old state    212
 New state    227 was old state    230
 New state    228 was old state    231
 New state    229 was old state    247
 New state    230 was old state    232
 New state    231 was old state    253
 New state    232 was old state    246
 New state    233 was old state    238
 New state    234 was old state    233
 New state    235 was old state    239
 New state    236 was old state    243
 New state    237 was old state    228
 New state    238 was old state    242
 New state    239 was old state    248
 New state    240 was old state    235
 New state    241 was old state    240
 New state    242 was old state    223
 New state    243 was old state    234
 New state    244 was old state    252
 New state    245 was old state    249
 New state    246 was old state    259
 New state    247 was old state    229
 New state    248 was old state    256
 New state    249 was old state    236
 New state    250 was old state    257
 New state    251 was old state    260
 New state    252 was old state    250
 New state    253 was old state    268
 New state    254 was old state    258
 New state    255 was old state    264
 New state    256 was old state    255
 New state    257 was old state    254
 New state    258 was old state    272
 New state    259 was old state    251
 New state    260 was old state    262
 New state    261 was old state    282
 New state    262 was old state    279
 New state    263 was old state    274
 New state    264 was old state    266
 New state    265 was old state    273
 New state    266 was old state    267
 New state    267 was old state    265
 New state    268 was old state    263
 New state    269 was old state    261
 New state    270 was old state    275
 New state    271 was old state    269
 New state    272 was old state    270
 New state    273 was old state    280
 New state    274 was old state    288
 New state    275 was old state    278
 New state    276 was old state    277
 New state    277 was old state    281
 New state    278 was old state    298
 New state    279 was old state    283
 New state    280 was old state    287
 New state    281 was old state    271
 New state    282 was old state    284
 New state    283 was old state    291
 New state    284 was old state    285
 New state    285 was old state    290
 New state    286 was old state    292
 New state    287 was old state    276
 New state    288 was old state    297
 New state    289 was old state    305
 New state    290 was old state    294
 New state    291 was old state    293
 New state    292 was old state    296
 New state    293 was old state    286
 New state    294 was old state    289
 New state    295 was old state    309
 New state    296 was old state    301
 New state    297 was old state    313
 New state    298 was old state    306
 New state    299 was old state    300
 New state    300 was old state    310
 New state    301 was old state    307
 New state    302 was old state    304
 New state    303 was old state    295
 New state    304 was old state    303
 New state    305 was old state    299
 New state    306 was old state    312
 New state    307 was old state    315
 New state    309 was old state    302
 New state    310 was old state    314
 New state    311 was old state    316
 New state    312 was old state    317
 New state    313 was old state    318
 New state    314 was old state    323
 New state    315 was old state    320
 New state    316 was old state    319
 New state    317 was old state    311
 New state    318 was old state    321
 New state    319 was old state    331
 New state    320 was old state    322
 New state    321 was old state    330
 New state    322 was old state    329
 New state    323 was old state    325
 New state    325 was old state    335
 No map to state    326
 New state    327 was old state    338
 New state    329 was old state    327
 New state    330 was old state    326
 New state    331 was old state    336
 New state    332 was old state    333
 New state    333 was old state    334
 New state    334 was old state    354
 New state    335 was old state    343
 New state    336 was old state    349
 New state    337 was old state    332
 New state    338 was old state    337
 New state    340 was old state    357
 New state    341 was old state    344
 New state    342 was old state    352
 New state    343 was old state    340
 New state    344 was old state    347
 New state    345 was old state    341
 New state    347 was old state    353
 New state    348 was old state    342
 New state    349 was old state    350
 New state    350 was old state    348
 New state    351 was old state    345
 New state    352 was old state    355
 No map to state    353
 New state    354 was old state    351
 New state    355 was old state    365
 New state    356 was old state    362
 New state    357 was old state    363
 New state    358 was old state    360
 New state    360 was old state    356
 New state    361 was old state    358
 New state    362 was old state    374
 New state    363 was old state    372
 New state    364 was old state    361
 New state    365 was old state    364
 New state    366 was old state    367
 New state    367 was old state    366
 New state    368 was old state    384
 New state    369 was old state    383
 New state    370 was old state    368
 New state    371 was old state    385
 New state    372 was old state    369
 New state    373 was old state    386
 New state    374 was old state    376
 New state    375 was old state    373
 New state    376 was old state    370
 New state    377 was old state    375
 New state    378 was old state    371
 New state    379 was old state    377
 New state    380 was old state    378
 New state    381 was old state    389
 New state    382 was old state    380
 New state    383 was old state    394
 New state    384 was old state    381
 New state    385 was old state    379
 New state    386 was old state    391
 New state    387 was old state    404
 New state    388 was old state    397
 New state    389 was old state    382
 New state    390 was old state    387
 New state    391 was old state    402
 New state    393 was old state    390
 New state    394 was old state    396
 New state    395 was old state    393
 New state    396 was old state    403
 New state    397 was old state    388
 New state    398 was old state    405
 New state    399 was old state    413
 New state    400 was old state    398
 New state    401 was old state    418
 New state    402 was old state    395
 New state    403 was old state    406
 New state    404 was old state    411
 New state    405 was old state    400
 New state    406 was old state    401
 New state    407 was old state    399
 New state    408 was old state    409
 New state    409 was old state    410
 New state    410 was old state    415
 New state    411 was old state    407
 New state    412 was old state    417
 New state    413 was old state    419
 New state    414 was old state    408
 New state    415 was old state    423
 New state    416 was old state    432
 New state    417 was old state    416
 New state    418 was old state    426
 New state    419 was old state    443
 New state    420 was old state    428
 New state    421 was old state    431
 New state    422 was old state    430
 New state    423 was old state    412
 New state    424 was old state    414
 New state    426 was old state    440
 New state    427 was old state    421
 New state    428 was old state    438
 New state    430 was old state    427
 New state    431 was old state    435
 New state    432 was old state    422
 New state    433 was old state    442
 New state    434 was old state    446
 New state    435 was old state    445
 New state    436 was old state    424
 New state    437 was old state    444
 New state    438 was old state    433
 New state    439 was old state    448
 New state    440 was old state    447
 New state    441 was old state    453
 New state    442 was old state    437
 New state    443 was old state    451
 New state    444 was old state    457
 New state    445 was old state    441
 New state    446 was old state    452
 New state    447 was old state    454
 New state    448 was old state    436
 New state    450 was old state    439
 New state    451 was old state    434
 New state    452 was old state    462
 New state    453 was old state    456
 New state    454 was old state    461
 New state    455 was old state    473
 New state    456 was old state    460
 New state    457 was old state    468
 New state    458 was old state    464
 New state    459 was old state    466
 New state    460 was old state    459
 New state    461 was old state    450
 New state    462 was old state    458
 New state    463 was old state    470
 No map to state    464
 New state    465 was old state    455
 New state    466 was old state    469
 New state    467 was old state    465
 New state    468 was old state    463
 New state    469 was old state    467
 New state    470 was old state    474
 New state    471 was old state    475
 New state    472 was old state    484
 New state    473 was old state    476
 New state    474 was old state    479
 New state    475 was old state    472
 New state    476 was old state    480
 New state    477 was old state    478
 New state    478 was old state    477
 New state    479 was old state    485
 New state    480 was old state    481
 New state    481 was old state    482
 New state    482 was old state    486
 New state    484 was old state    494
 New state    485 was old state    501
 New state    486 was old state    471
 New state    487 was old state    491
 New state    488 was old state    489
 New state    489 was old state    488
 New state    491 was old state    495
 New state    492 was old state    496
 New state    493 was old state    487
 New state    494 was old state    499
 New state    495 was old state    500
 New state    496 was old state    493
 New state    497 was old state    498
 New state    498 was old state    502
 New state    499 was old state    497
 New state    500 was old state    507
 New state    501 was old state    504
 New state    502 was old state    505
 New state    503 was old state    492
 New state    504 was old state    503
 New state    505 was old state    509
 New state    506 was old state    517
 New state    507 was old state    511
 New state    508 was old state    506
 New state    509 was old state    513
 New state    510 was old state    515
 New state    511 was old state    510
 New state    512 was old state    519
 New state    513 was old state    516
 New state    514 was old state    508
 New state    515 was old state    521
 New state    516 was old state    518
 New state    517 was old state    512
 New state    518 was old state    520
 New state    519 was old state    514
 New state    520 was old state    523
 New state    521 was old state    522
 New state    522 was old state    541
 New state    523 was old state    525
 New state    524 was old state    528
 New state    525 was old state    524
 New state    528 was old state    531
 New state    530 was old state    533
 New state    531 was old state    534
 New state    533 was old state    530
 New state    534 was old state    538
 New state    537 was old state    540
 New state    538 was old state    537
 New state    539 was old state    542
 New state    540 was old state    539
 New state    541 was old state    551
 New state    542 was old state    544
 New state    543 was old state    546
 New state    544 was old state    543
 New state    545 was old state    548
 New state    546 was old state    545
 New state    547 was old state    549
 New state    548 was old state    550
 New state    549 was old state    554
 New state    550 was old state    547
 New state    551 was old state    552
 New state    552 was old state    559
 New state    553 was old state    561
 New state    554 was old state    553
 New state    556 was old state    557
 New state    557 was old state    564
 New state    558 was old state    556
 New state    559 was old state    558
 New state    560 was old state    565
 New state    561 was old state    562
 New state    562 was old state    563
 New state    563 was old state    560
 New state    564 was old state    567
 New state    565 was old state    566
 New state    566 was old state    580
 New state    567 was old state    572
 New state    568 was old state    573
 New state    569 was old state    570
 New state    570 was old state    569
 New state    572 was old state    584
 New state    573 was old state    577
 New state    574 was old state    568
 New state    575 was old state    583
 New state    577 was old state    578
 New state    578 was old state    574
 New state    579 was old state    581
 New state    580 was old state    585
 New state    581 was old state    582
 New state    582 was old state    579
 New state    583 was old state    590
 New state    584 was old state    587
 New state    585 was old state    593
 New state    586 was old state    589
 New state    587 was old state    586
 New state    588 was old state    598
 New state    589 was old state    612
 New state    590 was old state    588
 New state    591 was old state    592
 New state    592 was old state    595
 New state    593 was old state    596
 New state    594 was old state    601
 New state    595 was old state    591
 New state    596 was old state    597
 New state    597 was old state    599
 New state    598 was old state    600
 New state    599 was old state    594
 No map to state    600
 New state    601 was old state    604
 New state    602 was old state    605
 New state    603 was old state    602
 New state    604 was old state    606
 New state    605 was old state    607
 New state    606 was old state    609
 New state    607 was old state    610
 New state    608 was old state    603
 New state    609 was old state    611
 New state    610 was old state    608
 New state    611 was old state    614
 New state    612 was old state    616
 New state    614 was old state    617
 New state    616 was old state    625
 New state    617 was old state    620
 New state    618 was old state    624
 New state    619 was old state    622
 New state    620 was old state    618
 New state    621 was old state    623
 New state    622 was old state    627
 New state    623 was old state    619
 New state    624 was old state    666
 New state    625 was old state    629
 New state    626 was old state    621
 New state    627 was old state    628
 New state    628 was old state    630
 New state    629 was old state    635
 New state    630 was old state    637
 New state    631 was old state    638
 New state    632 was old state    633
 New state    633 was old state    636
 New state    634 was old state    626
 New state    635 was old state    644
 New state    636 was old state    640
 New state    637 was old state    634
 New state    638 was old state    631
 New state    640 was old state    648
 New state    641 was old state    642
 New state    642 was old state    645
 New state    643 was old state    632
 New state    644 was old state    647
 New state    645 was old state    655
 New state    646 was old state    652
 New state    647 was old state    650
 New state    648 was old state    654
 New state    649 was old state    643
 New state    650 was old state    646
 New state    651 was old state    653
 New state    652 was old state    663
 New state    653 was old state    658
 New state    654 was old state    657
 New state    655 was old state    651
 New state    657 was old state    649
 New state    658 was old state    660
 New state    659 was old state    665
 New state    660 was old state    667
 New state    662 was old state    669
 New state    663 was old state    659
 New state    664 was old state    668
 New state    665 was old state    662
 New state    666 was old state    664
 No map to state    667
 New state    668 was old state    672
 New state    669 was old state    678
 New state    670 was old state    671
 New state    671 was old state    675
 New state    672 was old state    677
 New state    673 was old state    690
 New state    674 was old state    679
 New state    675 was old state    674
 New state    676 was old state    670
 New state    677 was old state    681
 New state    678 was old state    673
 New state    679 was old state    676
 New state    681 was old state    682
 New state    682 was old state    685
 New state    683 was old state    699
 New state    684 was old state    683
 New state    685 was old state    684
 New state    686 was old state    688
 New state    688 was old state    694
 New state    689 was old state    700
 New state    690 was old state    686
 New state    692 was old state    689
 New state    693 was old state    692
 New state    694 was old state    695
 New state    695 was old state    693
 New state    697 was old state    701
 New state    699 was old state    697
 New state    700 was old state    709
 New state    701 was old state    703
 New state    702 was old state    705
 New state    703 was old state    702
 New state    704 was old state    708
 New state    705 was old state    707
 New state    706 was old state    710
 New state    707 was old state    713
 New state    708 was old state    704
 New state    709 was old state    719
 New state    710 was old state    714
 New state    711 was old state    706
 New state    713 was old state    718
 New state    714 was old state    711
 New state    716 was old state    724
 New state    717 was old state    722
 New state    718 was old state    721
 New state    719 was old state    716
 New state    720 was old state    725
 New state    721 was old state    717
 New state    722 was old state    731
 New state    724 was old state    720
 New state    725 was old state    727
 New state    726 was old state    728
 New state    727 was old state    734
 New state    728 was old state    730
 New state    729 was old state    726
 New state    730 was old state    752
 New state    731 was old state    729
 New state    734 was old state    736
 New state    736 was old state    737
 New state    737 was old state    746
 New state    738 was old state    740
 New state    740 was old state    742
 New state    741 was old state    738
 New state    742 was old state    741
 New state    743 was old state    744
 New state    744 was old state    745
 New state    745 was old state    743
 New state    746 was old state    747
 New state    747 was old state    751
 New state    749 was old state    754
 New state    750 was old state    749
 New state    751 was old state    750
 New state    752 was old state    756
 New state    753 was old state    755
 New state    754 was old state    766
 New state    755 was old state    760
 New state    756 was old state    758
 New state    757 was old state    759
 New state    758 was old state    761
 New state    759 was old state    753
 New state    760 was old state    757
 New state    761 was old state    764
 New state    762 was old state    763
 New state    763 was old state    762
 New state    764 was old state    768
 No map to state    766
 New state    768 was old state    771
 New state    769 was old state    772
 New state    770 was old state    769
 New state    771 was old state    777
 New state    772 was old state    773
 New state    773 was old state    770
 New state    775 was old state    778
 New state    776 was old state    775
 New state    777 was old state    779
 New state    778 was old state    780
 New state    779 was old state    781
 New state    780 was old state    776
 New state    781 was old state    789
 New state    782 was old state    783
 New state    783 was old state    782
 New state    784 was old state    787
 New state    786 was old state    784
 New state    787 was old state    788
 New state    788 was old state    786
 New state    789 was old state    813
 New state    790 was old state    792
 New state    791 was old state    794
 New state    792 was old state    793
 New state    793 was old state    791
 New state    794 was old state    790
 New state    795 was old state    797
 New state    797 was old state    795
 New state    799 was old state    803
 New state    800 was old state    799
 New state    802 was old state    805
 New state    803 was old state    806
 New state    804 was old state    800
 New state    805 was old state    802
 New state    806 was old state    804
 New state    807 was old state    810
 New state    808 was old state    811
 New state    809 was old state    808
 New state    810 was old state    807
 New state    811 was old state    809
 New state    813 was old state    816
 New state    814 was old state    815
 New state    815 was old state    821
 New state    816 was old state    817
 New state    817 was old state    818
 New state    818 was old state    827
 New state    819 was old state    814
 New state    820 was old state    819
 New state    821 was old state    820
 New state    822 was old state    823
 New state    823 was old state    828
 New state    825 was old state    833
 New state    827 was old state    822
 New state    828 was old state    825
 New state    829 was old state    830
 New state    830 was old state    834
 New state    832 was old state    829
 New state    833 was old state    832
 New state    834 was old state    837
 New state    835 was old state    836
 New state    836 was old state    847
 New state    837 was old state    835
 New state    838 was old state    839
 New state    839 was old state    843
 New state    840 was old state    841
 New state    841 was old state    838
 New state    842 was old state    840
 New state    843 was old state    845
 New state    844 was old state    842
 New state    845 was old state    844
 New state    846 was old state    853
 New state    847 was old state    846
 New state    851 was old state    852
 New state    852 was old state    851
 No map to state    853
 New state    855 was old state    856
 New state    856 was old state    855
 New state    857 was old state    859
 New state    858 was old state    857
 New state    859 was old state    858
 New state    860 was old state    861
 New state    861 was old state    860
 Excitation Energies [eV] at current iteration:
 Root      1 :     7.663863803286968
 Root      2 :     7.713378304237405
 Root      3 :     8.448764936465963
 Root      4 :     8.541443306624087
 Root      5 :     8.771416141729320
 Root      6 :     9.443759539242793
 Root      7 :     9.823009831968680
 Root      8 :    10.181476949159560
 Root      9 :    10.213576813090950
 Root     10 :    10.352783258738040
 Root     11 :    10.694816036335260
 Root     12 :    10.773432934876490
 Root     13 :    10.939195327855110
 Root     14 :    11.015564896590360
 Root     15 :    11.052232926853540
 Root     16 :    11.242922496054370
 Root     17 :    11.306245076511920
 Root     18 :    11.669083406246070
 Root     19 :    11.783852168969620
 Root     20 :    11.961393167234360
 Root     21 :    11.975315581667050
 Root     22 :    12.126785471982160
 Root     23 :    12.159357136996630
 Root     24 :    12.361647710047390
 Root     25 :    12.391094599576180
 Root     26 :    12.475245579258450
 Root     27 :    12.634231743593370
 Root     28 :    12.679489717344650
 Root     29 :    12.737908882005630
 Root     30 :    12.876239799427600
 Root     31 :    12.920341935179060
 Root     32 :    13.024347721149220
 Root     33 :    13.267843643072620
 Root     34 :    13.289184884702210
 Root     35 :    13.299287567888450
 Root     36 :    13.380057101236100
 Root     37 :    13.388961237319060
 Root     38 :    13.543497520467620
 Root     39 :    13.636141058551210
 Root     40 :    13.740453281588940
 Root     41 :    13.766181305724600
 Root     42 :    13.887726152014710
 Root     43 :    13.897972641574600
 Root     44 :    14.007578365262260
 Root     45 :    14.066855963127670
 Root     46 :    14.200600324962410
 Root     47 :    14.243895328490590
 Root     48 :    14.372210069457070
 Root     49 :    14.377266041965340
 Root     50 :    14.570965240136300
 Root     51 :    14.642415544207780
 Root     52 :    14.706993031866130
 Root     53 :    14.799708917549360
 Root     54 :    14.816064828250290
 Root     55 :    14.930503866986750
 Root     56 :    14.992754366361050
 Root     57 :    15.067010887182920
 Root     58 :    15.074975156257520
 Root     59 :    15.238071693015160
 Root     60 :    15.279610300911770
 Root     61 :    15.344610372884940
 Root     62 :    15.367320557813730
 Root     63 :    15.412911126902290
 Root     64 :    15.525502849951800
 Root     65 :    15.542190721142680
 Root     66 :    15.601754511601540
 Root     67 :    15.711868677351460
 Root     68 :    15.846815170068680
 Root     69 :    15.890628003224400
 Root     70 :    16.006078544616140
 Root     71 :    16.012009886610280
 Root     72 :    16.114326118626970
 Root     73 :    16.183265537372720
 Root     74 :    16.239962987583310
 Root     75 :    16.289600301454180
 Root     76 :    16.315622198073860
 Root     77 :    16.392047514481580
 Root     78 :    16.443757333652110
 Root     79 :    16.509429010626040
 Root     80 :    16.732095103964780
 Root     81 :    16.770508528576360
 Root     82 :    16.788579310241410
 Root     83 :    16.822481162717420
 Root     84 :    16.866651226362590
 Root     85 :    16.908766986373370
 Root     86 :    16.923901224287850
 Root     87 :    17.023593707834910
 Root     88 :    17.099128495113810
 Root     89 :    17.145925924675650
 Root     90 :    17.207493796285840
 Root     91 :    17.242712300620080
 Root     92 :    17.287840308997570
 Root     93 :    17.309016835767780
 Root     94 :    17.398966345136230
 Root     95 :    17.409517692405310
 Root     96 :    17.498136478139870
 Root     97 :    17.522403802192270
 Root     98 :    17.571986244748960
 Root     99 :    17.576912280579220
 Root    100 :    17.700088401501160
 Root    101 :    17.729748482927400
 Root    102 :    17.765391822182370
 Root    103 :    17.864960683756220
 Root    104 :    17.968534935607810
 Root    105 :    18.040286344758420
 Root    106 :    18.114656040591680
 Root    107 :    18.181368714154140
 Root    108 :    18.233717896401770
 Root    109 :    18.253764268236640
 Root    110 :    18.286450452037490
 Root    111 :    18.394700114127030
 Root    112 :    18.402618408413960
 Root    113 :    18.480399327679780
 Root    114 :    18.573991981580460
 Root    115 :    18.574916089943910
 Root    116 :    18.664059174769440
 Root    117 :    18.670329759066460
 Root    118 :    18.717166918421640
 Root    119 :    18.769727730682900
 Root    120 :    18.869404465352590
 Root    121 :    18.905291457854630
 Root    122 :    18.977475619235730
 Root    123 :    19.020055838815520
 Root    124 :    19.100111158044020
 Root    125 :    19.117465114573860
 Root    126 :    19.179334412065140
 Root    127 :    19.248152863439770
 Root    128 :    19.253173857874800
 Root    129 :    19.336083712198190
 Root    130 :    19.351153196381390
 Root    131 :    19.413890408795470
 Root    132 :    19.448916863297580
 Root    133 :    19.488167496024790
 Root    134 :    19.530822780437350
 Root    135 :    19.597344306315780
 Root    136 :    19.621736400487700
 Root    137 :    19.661815779808040
 Root    138 :    19.686591041552000
 Root    139 :    19.707412608314820
 Root    140 :    19.722503080137710
 Root    141 :    19.848663449888250
 Root    142 :    19.850437639879270
 Root    143 :    19.896458333024960
 Root    144 :    19.911827535994980
 Root    145 :    19.978295077058450
 Root    146 :    20.010527351303530
 Root    147 :    20.044590702863030
 Root    148 :    20.097655014825730
 Root    149 :    20.130617681509720
 Root    150 :    20.249370938775900
 Root    151 :    20.294903105904320
 Root    152 :    20.320757623801590
 Root    153 :    20.396455240363040
 Root    154 :    20.459228560362590
 Root    155 :    20.496777081741740
 Root    156 :    20.535215272753860
 Root    157 :    20.607261590556310
 Root    158 :    20.671983019494020
 Root    159 :    20.678857025004360
 Root    160 :    20.723187792065640
 Root    161 :    20.772528202907300
 Root    162 :    20.795888610199440
 Root    163 :    20.822526237601520
 Root    164 :    20.849516528366740
 Root    165 :    20.876349713467380
 Root    166 :    20.895532066247360
 Root    167 :    21.107303124587440
 Root    168 :    21.112384114484210
 Root    169 :    21.138978504540750
 Root    170 :    21.182707305896950
 Root    171 :    21.255784720334400
 Root    172 :    21.279351727215170
 Root    173 :    21.314648095338870
 Root    174 :    21.370299263333520
 Root    175 :    21.464037770203590
 Root    176 :    21.492552707395410
 Root    177 :    21.497183274478240
 Root    178 :    21.545478525837030
 Root    179 :    21.575371573108910
 Root    180 :    21.585818965482770
 Root    181 :    21.650178404841300
 Root    182 :    21.710583132268040
 Root    183 :    21.731614160187750
 Root    184 :    21.891138696941180
 Root    185 :    21.898447409940010
 Root    186 :    21.911344463213740
 Root    187 :    21.950513739516920
 Root    188 :    21.966001054882630
 Root    189 :    22.046233221838300
 Root    190 :    22.049366485806960
 Root    191 :    22.110444609332860
 Root    192 :    22.179909969253590
 Root    193 :    22.220759659825380
 Root    194 :    22.248777765953750
 Root    195 :    22.272186430056920
 Root    196 :    22.321303268471320
 Root    197 :    22.355944137738740
 Root    198 :    22.392590241379870
 Root    199 :    22.452643734863090
 Root    200 :    22.530926831664030
 Root    201 :    22.587060564144180
 Root    202 :    22.618181917566410
 Root    203 :    22.692530578979870
 Root    204 :    22.698162275890390
 Root    205 :    22.735619006794570
 Root    206 :    22.788430139057430
 Root    207 :    22.818686045182940
 Root    208 :    22.895435938859170
 Root    209 :    22.950798209400760
 Root    210 :    23.002416394351030
 Root    211 :    23.016639695008570
 Root    212 :    23.041431738348880
 Root    213 :    23.083315073383380
 Root    214 :    23.174185194758770
 Root    215 :    23.190424684532510
 Root    216 :    23.250937591639450
 Root    217 :    23.290015783684460
 Root    218 :    23.320243575769960
 Root    219 :    23.357876295938600
 Root    220 :    23.371489917229510
 Root    221 :    23.425081254156590
 Root    222 :    23.480360606184830
 Root    223 :    23.499253043218460
 Root    224 :    23.533155336225360
 Root    225 :    23.543054476656200
 Root    226 :    23.598675133691480
 Root    227 :    23.655104680657010
 Root    228 :    23.670534479301250
 Root    229 :    23.675199896431250
 Root    230 :    23.735232584862350
 Root    231 :    23.771571848745680
 Root    232 :    23.825088714218520
 Root    233 :    23.915437935806350
 Root    234 :    23.923893999524920
 Root    235 :    23.948249079077060
 Root    236 :    24.019648858550160
 Root    237 :    24.140938399021780
 Root    238 :    24.224009491041790
 Root    239 :    24.229990022659780
 Root    240 :    24.268975120552240
 Root    241 :    24.295362990000180
 Root    242 :    24.366442106069320
 Root    243 :    24.374348666942640
 Root    244 :    24.418705401778410
 Root    245 :    24.436578224744930
 Root    246 :    24.476006619719140
 Root    247 :    24.521654257103120
 Root    248 :    24.543974282382960
 Root    249 :    24.611876114428650
 Root    250 :    24.613330437867170
 Root    251 :    24.685631015976250
 Root    252 :    24.707157217942860
 Root    253 :    24.730457235653340
 Root    254 :    24.796692864360110
 Root    255 :    24.892033835913890
 Root    256 :    24.922955386914230
 Root    257 :    25.005333344441900
 Root    258 :    25.042696533771490
 Root    259 :    25.078503562550900
 Root    260 :    25.096210249524330
 Root    261 :    25.170096504771350
 Root    262 :    25.250531349784810
 Root    263 :    25.298662214487600
 Root    264 :    25.351240562239620
 Root    265 :    25.360861493573020
 Root    266 :    25.429377347252970
 Root    267 :    25.462786888674090
 Root    268 :    25.523805372107820
 Root    269 :    25.530534387580400
 Root    270 :    25.558484456328030
 Root    271 :    25.603846297740900
 Root    272 :    25.668926110677630
 Root    273 :    25.703007766805420
 Root    274 :    25.733896376800940
 Root    275 :    25.739328852373270
 Root    276 :    25.884018219391750
 Root    277 :    25.917138000315710
 Root    278 :    25.970195423508380
 Root    279 :    25.999366314323870
 Root    280 :    26.040469332997820
 Root    281 :    26.093284036777640
 Root    282 :    26.126855688326670
 Root    283 :    26.159419934686420
 Root    284 :    26.186827461463500
 Root    285 :    26.303589433771890
 Root    286 :    26.328961677577870
 Root    287 :    26.366653192747150
 Root    288 :    26.389183111545700
 Root    289 :    26.433488695618950
 Root    290 :    26.490744090980090
 Root    291 :    26.494641341738700
 Root    292 :    26.519367241826150
 Root    293 :    26.608403748237770
 Root    294 :    26.662646631022560
 Root    295 :    26.749773011891790
 Root    296 :    26.771528234605200
 Root    297 :    26.881409745417090
 Root    298 :    26.919847525748230
 Root    299 :    26.967515347408600
 Root    300 :    27.036395781217890
 Root    301 :    27.043553551815840
 Root    302 :    27.137762310241830
 Root    303 :    27.139538505637700
 Root    304 :    27.210963216483620
 Root    305 :    27.248982659282140
 Root    306 :    27.366993249450670
 Root    307 :    27.385232083053870
 Root    308 :    27.417160732739890
 Root    309 :    27.539705453444370
 Root    310 :    27.613334821537570
 Root    311 :    27.625676164311640
 Root    312 :    27.699330658156800
 Root    313 :    27.767480767607600
 Root    314 :    27.770543297148860
 Root    315 :    27.833388426033900
 Root    316 :    27.893104221809790
 Root    317 :    27.936496794926050
 Root    318 :    28.017216302969380
 Root    319 :    28.115011548436620
 Root    320 :    28.199648156897910
 Root    321 :    28.247685074748440
 Root    322 :    28.375753938097900
 Root    323 :    28.424547069446070
 Root    324 :    28.511825561997180
 Root    325 :    28.573941637943840
 Root    326 :    28.747124093989000
 Root    327 :    28.767256803363420
 Root    328 :    28.862493485563430
 Root    329 :    28.863081484003920
 Root    330 :    28.907866831496000
 Root    331 :    28.930360984945470
 Root    332 :    29.002565853789560
 Root    333 :    29.056621260900890
 Root    334 :    29.137338140608190
 Root    335 :    29.159586257002950
 Root    336 :    29.173341709970480
 Root    337 :    29.220339001281990
 Root    338 :    29.287499981493820
 Root    339 :    29.418307419236160
 Root    340 :    29.453491596399130
 Root    341 :    29.556826357653870
 Root    342 :    29.620449980055780
 Root    343 :    29.645122666925520
 Root    344 :    29.705321719656480
 Root    345 :    29.763268602853240
 Root    346 :    29.940675960782450
 Root    347 :    29.979176862004800
 Root    348 :    30.048508897606660
 Root    349 :    30.108167819730110
 Root    350 :    30.158688868736390
 Root    351 :    30.200641746632740
 Root    352 :    30.239026416439100
 Root    353 :    30.335856332516580
 Root    354 :    30.424881255110030
 Root    355 :    30.461271303637820
 Root    356 :    30.516082674407450
 Root    357 :    30.664815545995610
 Root    358 :    30.730929606565880
 Root    359 :    30.807735820315770
 Root    360 :    30.912338526479780
 Root    361 :    31.073828481500950
 Root    362 :    31.223469136472890
 Root    363 :    31.383232430794180
 Root    364 :    31.483514703392780
 Root    365 :    31.551322561596980
 Root    366 :    31.705081637772580
 Root    367 :    31.775058850679670
 Root    368 :    31.854107023623950
 Root    369 :    31.929461615362610
 Root    370 :    32.022948062302750
 Root    371 :    32.040774243216570
 Root    372 :    32.153313286770500
 Root    373 :    32.178455178171990
 Root    374 :    32.265993781728500
 Root    375 :    32.350698254761110
 Root    376 :    32.387650175838590
 Root    377 :    32.450629694509340
 Root    378 :    32.573532535563140
 Root    379 :    32.648741603789680
 Root    380 :    32.724655513773360
 Root    381 :    32.752373314836790
 Root    382 :    32.767047203581180
 Root    383 :    32.787638907908140
 Root    384 :    32.890779064459790
 Root    385 :    32.988564510224900
 Root    386 :    33.121398777181040
 Root    387 :    33.151455300552170
 Root    388 :    33.236824916740450
 Root    389 :    33.248883770285300
 Root    390 :    33.300644043050770
 Root    391 :    33.327926277381960
 Root    392 :    33.533576663869900
 Root    393 :    33.559004268379400
 Root    394 :    33.789924153564610
 Root    395 :    33.901489506850110
 Root    396 :    33.942681496213990
 Root    397 :    33.963789651100700
 Root    398 :    34.021686566799530
 Root    399 :    34.079572266629900
 Root    400 :    34.167353087106850
 Root    401 :    34.171500893252500
 Root    402 :    34.314889219985330
 Root    403 :    34.328883633881070
 Root    404 :    34.420023247858130
 Root    405 :    34.422750678807060
 Root    406 :    34.543683259554670
 Root    407 :    34.838048964644790
 Root    408 :    34.940111403882210
 Root    409 :    34.960198275450210
 Root    410 :    35.021784567261730
 Root    411 :    35.041726552665480
 Root    412 :    35.123324592843880
 Root    413 :    35.278376028378200
 Root    414 :    35.413399667621240
 Root    415 :    35.467727515657820
 Root    416 :    35.474180185847690
 Root    417 :    35.583678795411260
 Root    418 :    35.696182870799920
 Root    419 :    35.715421012991550
 Root    420 :    35.788176215688980
 Root    421 :    35.875607644895930
 Root    422 :    35.888615933945640
 Root    423 :    35.999662327061070
 Root    424 :    36.061552254425050
 Root    425 :    36.097715590538680
 Root    426 :    36.126678935889690
 Root    427 :    36.194071337266140
 Root    428 :    36.251980308653810
 Root    429 :    36.303996694256050
 Root    430 :    36.482273080015720
 Root    431 :    36.535074858499570
 Root    432 :    36.578553771930580
 Root    433 :    36.659248718145070
 Root    434 :    36.746680279219070
 Root    435 :    36.821844779549880
 Root    436 :    36.927644133537750
 Root    437 :    37.059039220548160
 Root    438 :    37.071544600188130
 Root    439 :    37.085499656289500
 Root    440 :    37.154103533316810
 Root    441 :    37.305154037191830
 Root    442 :    37.450171788288210
 Root    443 :    37.545692337864600
 Root    444 :    37.570083351642520
 Root    445 :    37.616980666581060
 Root    446 :    37.706708452086810
 Root    447 :    37.818110772277190
 Root    448 :    37.863946373862740
 Root    449 :    38.059277844238360
 Root    450 :    38.112349161640240
 Root    451 :    38.170925402513450
 Root    452 :    38.300090312060110
 Root    453 :    38.328391175046050
 Root    454 :    38.550258687810300
 Root    455 :    38.612355692963210
 Root    456 :    38.642205229804220
 Root    457 :    38.713512263426260
 Root    458 :    38.767476783307040
 Root    459 :    38.799148612565370
 Root    460 :    38.855409531405540
 Root    461 :    38.913313513045300
 Root    462 :    39.058290380137290
 Root    463 :    39.144879074820490
 Root    464 :    39.185020223870630
 Root    465 :    39.288636152941050
 Root    466 :    39.448296786046180
 Root    467 :    39.452080572392430
 Root    468 :    39.557762261198090
 Root    469 :    39.650365867130930
 Root    470 :    40.024460590906430
 Root    471 :    40.083740837902130
 Root    472 :    40.162341308056580
 Root    473 :    40.289668920003240
 Root    474 :    40.313853764546310
 Root    475 :    40.602335876309290
 Root    476 :    40.662967606203670
 Root    477 :    40.719070860032400
 Root    478 :    40.764384301602840
 Root    479 :    40.839979299622360
 Root    480 :    40.879394350940650
 Root    481 :    40.987530060988140
 Root    482 :    40.998067270285630
 Root    483 :    41.114656073447510
 Root    484 :    41.234420133571170
 Root    485 :    41.364704385171140
 Root    486 :    41.389953397554360
 Root    487 :    41.616555436063180
 Root    488 :    41.792350961213280
 Root    489 :    41.846973899173360
 Root    490 :    41.972569095640500
 Root    491 :    42.195689651645010
 Root    492 :    42.280826260988210
 Root    493 :    42.343461268197810
 Root    494 :    42.432796314039220
 Root    495 :    42.561400287969530
 Root    496 :    42.616863712510790
 Root    497 :    42.629219969738930
 Root    498 :    42.865554175448500
 Root    499 :    42.907993938787720
 Root    500 :    43.054019605095700
 Root    501 :    43.162307012430070
 Root    502 :    43.272050525328470
 Root    503 :    43.465170323907870
 Root    504 :    43.639688580500410
 Root    505 :    43.647553884921680
 Root    506 :    43.676806133682210
 Root    507 :    43.754259976014330
 Root    508 :    44.186835058448220
 Root    509 :    44.262274605836570
 Root    510 :    44.290385886773960
 Root    511 :    44.419949315167850
 Root    512 :    44.581042118364640
 Root    513 :    44.786921072463280
 Root    514 :    44.842856519075650
 Root    515 :    44.932689366184160
 Root    516 :    45.028580654227430
 Root    517 :    45.047433251648500
 Root    518 :    45.153623066327640
 Root    519 :    45.268822313416120
 Root    520 :    45.437795983569270
 Root    521 :    45.537838468984580
 Root    522 :    45.551372022237130
 Root    523 :    45.666872185228070
 Root    524 :    45.727819023321050
 Root    525 :    46.091375496438950
 Root    526 :    46.192849998336840
 Root    527 :    46.338253676606980
 Root    528 :    46.390163613269820
 Root    529 :    46.465762794584540
 Root    530 :    46.977953437454960
 Root    531 :    47.088476911015680
 Root    532 :    47.122025346151070
 Root    533 :    47.133787165565480
 Root    534 :    47.521980444928150
 Root    535 :    47.757620668333090
 Root    536 :    47.851739554752000
 Root    537 :    47.900279078479630
 Root    538 :    48.152701444760570
 Root    539 :    48.234906221881200
 Root    540 :    48.371822564878170
 Root    541 :    48.435935037070640
 Root    542 :    48.630873789239440
 Root    543 :    48.688944531530520
 Root    544 :    48.890452625495980
 Root    545 :    48.989775589220120
 Root    546 :    49.149958023956640
 Root    547 :    49.445626246149150
 Root    548 :    49.615310470463460
 Root    549 :    49.901675255388530
 Root    550 :    50.005279013014400
 Root    551 :    50.025511831194410
 Root    552 :    50.155000083709370
 Root    553 :    50.201049079174570
 Root    554 :    50.380564568963760
 Root    555 :    50.670358070088170
 Root    556 :    50.955785720993190
 Root    557 :    51.011818778701000
 Root    558 :    51.061833122035240
 Root    559 :    51.144761726033420
 Root    560 :    51.272254229936670
 Root    561 :    51.376609554848630
 Root    562 :    51.553862178998860
 Root    563 :    51.623591281485800
 Root    564 :    51.747674031351170
 Root    565 :    52.174213509070870
 Root    566 :    52.403420128935000
 Root    567 :    52.428362659094380
 Root    568 :    52.632995713713870
 Root    569 :    52.707336449594720
 Root    570 :    52.828515046936330
 Root    571 :    53.332455187254860
 Root    572 :    53.556372317565430
 Root    573 :    53.590601498344310
 Root    574 :    53.830158316348590
 Root    575 :    53.864946932816380
 Root    576 :    53.924369149639570
 Root    577 :    54.215626738900750
 Root    578 :    54.291974894468290
 Root    579 :    54.305554443782060
 Root    580 :    54.547990817314090
 Root    581 :    54.553094221638940
 Root    582 :    54.944746283996170
 Root    583 :    55.009911210312860
 Root    584 :    55.271604286823930
 Root    585 :    55.546599880081040
 Root    586 :    55.590396414240500
 Root    587 :    55.677833728765750
 Root    588 :    55.940616938646100
 Root    589 :    55.948718868495770
 Root    590 :    56.080230961160400
 Root    591 :    56.216407489493340
 Root    592 :    56.272879700973250
 Root    593 :    56.685587456578410
 Root    594 :    56.721563473401230
 Root    595 :    56.855853007079060
 Root    596 :    56.889861650913240
 Root    597 :    57.111807315976140
 Root    598 :    57.184769495236780
 Root    599 :    57.226493366536200
 Root    600 :    57.324924944073530
 Root    601 :    57.485009738519350
 Root    602 :    57.966699956937540
 Root    603 :    57.978910960878190
 Root    604 :    58.277728732668910
 Root    605 :    58.432639382213050
 Root    606 :    58.490253946629170
 Root    607 :    58.780788185485410
 Root    608 :    58.866552196561350
 Root    609 :    59.111975852493710
 Root    610 :    59.155401633612090
 Root    611 :    59.380066896267890
 Root    612 :    59.766994472931370
[...]
     11   0.000000D+00  0.927245D+00  0.000000D+00  0.269999D+00  0.000000D+00
     12   0.000000D+00 -0.270647D+00  0.000000D+00 -0.218551D+00  0.000000D+00
     13   0.000000D+00  0.269474D-01  0.000000D+00  0.734048D-01  0.000000D+00
     14   0.000000D+00  0.180443D+00  0.000000D+00 -0.433820D+00  0.000000D+00
     15  -0.762932D+00  0.000000D+00 -0.211988D+00  0.000000D+00  0.478871D-02
     16   0.134590D+00  0.000000D+00  0.107165D+00  0.000000D+00 -0.318997D-01
               796           797           798           799           800 
      1  -0.114225D+03 -0.114211D+03 -0.114197D+03 -0.114188D+03 -0.114182D+03
      2   0.339927D-01 -0.101832D+00  0.418798D-01 -0.470959D-01  0.000000D+00
      3  -0.205085D-01 -0.300626D-01 -0.229368D-01 -0.951076D-02  0.000000D+00
      4   0.000000D+00  0.000000D+00  0.000000D+00  0.000000D+00  0.237142D-01
      5  -0.728736D-01  0.291870D+00 -0.129804D+00  0.135632D+00  0.000000D+00
      6   0.495416D-01  0.917621D-01  0.445998D-01  0.428475D-01  0.000000D+00
      7   0.000000D+00  0.000000D+00  0.000000D+00  0.000000D+00 -0.518051D-01
      8   0.000000D+00  0.000000D+00  0.000000D+00  0.000000D+00  0.146292D+00
      9   0.000000D+00  0.000000D+00  0.000000D+00  0.000000D+00 -0.222019D+00
     10  -0.366505D+00 -0.190358D+00  0.116886D+00 -0.100682D+00  0.000000D+00
     11   0.927716D-01  0.321780D+00  0.586625D+00 -0.177947D+00  0.000000D+00
     12  -0.319729D+00 -0.845196D-01  0.686116D-01 -0.171028D+00  0.000000D+00
     13  -0.901407D-01 -0.572627D-01  0.198212D-01  0.170494D+00  0.000000D+00
     14  -0.391585D+00 -0.151562D+00  0.223237D+00 -0.115170D+00  0.000000D+00
     15   0.000000D+00  0.000000D+00  0.000000D+00  0.000000D+00  0.366153D+00
     16   0.000000D+00  0.000000D+00  0.000000D+00  0.000000D+00  0.356313D+00
               801           802           803           804           805 
      1  -0.114176D+03 -0.114160D+03 -0.114157D+03 -0.114148D+03 -0.114139D+03
      2   0.196781D-01  0.000000D+00  0.314926D-01  0.000000D+00  0.128445D-01
      3   0.143229D+00  0.000000D+00  0.257782D-01  0.000000D+00 -0.308171D-01
      4   0.000000D+00 -0.835572D-02  0.000000D+00 -0.436275D-02  0.000000D+00
      5  -0.684261D-01  0.000000D+00 -0.856799D-01  0.000000D+00 -0.392300D-01
      6  -0.387525D+00  0.000000D+00 -0.599862D-01  0.000000D+00  0.917846D-01
      7   0.000000D+00  0.170574D-01  0.000000D+00  0.124832D-01  0.000000D+00
      8   0.000000D+00 -0.441626D-01  0.000000D+00  0.328994D-01  0.000000D+00
      9   0.000000D+00  0.237203D+00  0.000000D+00 -0.167578D+00  0.000000D+00
     10  -0.704933D-01  0.000000D+00 -0.289588D+00  0.000000D+00  0.307786D+00
     11  -0.547221D-01  0.000000D+00 -0.198662D+00  0.000000D+00  0.326082D+00
     12  -0.319621D-01  0.000000D+00 -0.760447D-01  0.000000D+00  0.321251D+00
     13  -0.761413D-02  0.000000D+00 -0.887829D-01  0.000000D+00  0.510700D-01
     14  -0.367609D-01  0.000000D+00 -0.321348D+00  0.000000D+00  0.229820D+00
     15   0.000000D+00 -0.212830D+00  0.000000D+00  0.240723D+00  0.000000D+00
     16   0.000000D+00  0.350606D-03  0.000000D+00 -0.341827D-01  0.000000D+00
               806           807           808           809           810 
      1  -0.114118D+03 -0.114114D+03 -0.114104D+03 -0.114102D+03 -0.114098D+03
      2   0.254756D-01  0.131488D-01 -0.318017D-01  0.000000D+00  0.824154D-01
      3  -0.199809D-01  0.810270D-02 -0.120079D+00  0.000000D+00 -0.434368D-02
      4   0.000000D+00  0.000000D+00  0.000000D+00 -0.656921D-01  0.000000D+00
      5  -0.717791D-01 -0.279328D-01  0.863808D-01  0.000000D+00 -0.243735D+00
      6   0.464622D-01 -0.100073D-01  0.339550D+00  0.000000D+00  0.863236D-02
      7   0.000000D+00  0.000000D+00  0.000000D+00  0.182853D+00  0.000000D+00
      8   0.000000D+00  0.000000D+00  0.000000D+00 -0.566957D-01  0.000000D+00
      9   0.000000D+00  0.000000D+00  0.000000D+00  0.494686D+00  0.000000D+00
     10   0.748716D-01  0.181015D+00  0.263040D-02  0.000000D+00 -0.243405D+00
     11  -0.634269D+00 -0.532283D+00 -0.269022D+00  0.000000D+00  0.699157D+00
     12   0.593264D-01  0.605539D-01 -0.602193D-01  0.000000D+00  0.686162D-01
     13  -0.360414D-01 -0.102889D+00  0.842161D-01  0.000000D+00  0.747560D-01
     14  -0.666044D-01 -0.887228D-01  0.544528D-01  0.000000D+00  0.122723D+00
     15   0.000000D+00  0.000000D+00  0.000000D+00 -0.474377D+00  0.000000D+00
     16   0.000000D+00  0.000000D+00  0.000000D+00 -0.128418D+00  0.000000D+00
               811           812           813           814           815 
      1  -0.114082D+03 -0.114078D+03 -0.114075D+03 -0.114061D+03 -0.114059D+03
      2  -0.617943D-01  0.000000D+00  0.581135D-02  0.258630D-01  0.000000D+00
      3   0.967510D-01  0.000000D+00 -0.121943D-01 -0.504201D-01  0.000000D+00
      4   0.000000D+00  0.112709D-01  0.000000D+00  0.000000D+00 -0.605672D-01
      5   0.161146D+00  0.000000D+00 -0.250052D-01 -0.639092D-01  0.000000D+00
      6  -0.260117D+00  0.000000D+00  0.253033D-01  0.131065D+00  0.000000D+00
      7   0.000000D+00 -0.176250D-01  0.000000D+00  0.000000D+00  0.176204D+00
      8   0.000000D+00  0.576276D-01  0.000000D+00  0.000000D+00 -0.147778D+00
      9   0.000000D+00  0.269902D+00  0.000000D+00  0.000000D+00  0.346538D+00
     10  -0.170154D+00  0.000000D+00 -0.688003D-01 -0.112956D+00  0.000000D+00
     11   0.722218D+00  0.000000D+00  0.331233D+00  0.204403D+00  0.000000D+00
     12  -0.133992D+00  0.000000D+00 -0.141827D+00  0.303866D-01  0.000000D+00
     13   0.568441D-02  0.000000D+00 -0.522391D-01 -0.796193D-01  0.000000D+00
     14   0.408880D-01  0.000000D+00 -0.545095D-01 -0.217901D+00  0.000000D+00
     15   0.000000D+00 -0.276803D+00  0.000000D+00  0.000000D+00 -0.303947D+00
     16   0.000000D+00  0.822482D-01  0.000000D+00  0.000000D+00  0.959325D-02
               816           817           818           819           820 
      1  -0.114047D+03 -0.114044D+03 -0.114041D+03 -0.114030D+03 -0.114026D+03
      2  -0.222681D-01  0.000000D+00 -0.442113D-01  0.000000D+00  0.000000D+00
      3  -0.347491D-02  0.000000D+00  0.440389D-01  0.000000D+00  0.000000D+00
      4   0.000000D+00  0.905411D-01  0.000000D+00 -0.528229D-01 -0.265450D-01
      5   0.628494D-01  0.000000D+00  0.123091D+00  0.000000D+00  0.000000D+00
      6   0.819996D-02  0.000000D+00 -0.118110D+00  0.000000D+00  0.000000D+00
      7   0.000000D+00 -0.258050D+00  0.000000D+00  0.163659D+00  0.666191D-01
      8   0.000000D+00  0.234377D+00  0.000000D+00 -0.148594D+00  0.927469D-01
      9   0.000000D+00 -0.554188D+00  0.000000D+00  0.224858D+00 -0.112881D+00
     10   0.493287D-02  0.000000D+00  0.121643D-01  0.000000D+00  0.000000D+00
     11   0.357234D+00  0.000000D+00 -0.202960D+00  0.000000D+00  0.000000D+00
     12   0.183502D+00  0.000000D+00 -0.480720D-01  0.000000D+00  0.000000D+00
     13  -0.276386D-01  0.000000D+00 -0.179808D+00  0.000000D+00  0.000000D+00
     14   0.175296D+00  0.000000D+00  0.227220D-01  0.000000D+00  0.000000D+00
     15   0.000000D+00  0.603406D+00  0.000000D+00 -0.295147D+00  0.119325D+00
     16   0.000000D+00  0.377462D+00  0.000000D+00 -0.218408D-01  0.277892D+00
               821           822           823           824           825 
      1  -0.114023D+03 -0.114007D+03 -0.114001D+03 -0.114001D+03 -0.113991D+03
      2   0.120008D-01  0.272678D-01 -0.707043D-01  0.000000D+00 -0.498331D-01
      3   0.389646D-01  0.287580D-01  0.221123D-01  0.000000D+00  0.587960D-01
      4   0.000000D+00  0.000000D+00  0.000000D+00 -0.109850D-01  0.000000D+00
      5  -0.427712D-01 -0.728200D-01  0.199313D+00  0.000000D+00  0.143718D+00
      6  -0.115337D+00 -0.785913D-01 -0.651432D-01  0.000000D+00 -0.181725D+00
      7   0.000000D+00  0.000000D+00  0.000000D+00  0.344975D-01  0.000000D+00
      8   0.000000D+00  0.000000D+00  0.000000D+00 -0.319651D-01  0.000000D+00
      9   0.000000D+00  0.000000D+00  0.000000D+00 -0.754533D-01  0.000000D+00
     10   0.289687D+00 -0.974423D-01  0.361596D+00  0.000000D+00  0.514643D+00
     11  -0.261510D+00 -0.641509D+00 -0.129347D+01  0.000000D+00  0.100487D+00
     12   0.291909D+00 -0.196551D+00  0.691108D-02  0.000000D+00  0.548350D+00
     13   0.583143D-01  0.762462D-01 -0.441398D-01  0.000000D+00  0.402012D-01
     14   0.204578D+00 -0.102685D+00 -0.156327D+00  0.000000D+00  0.474500D+00
     15   0.000000D+00  0.000000D+00  0.000000D+00  0.147531D+00  0.000000D+00
     16   0.000000D+00  0.000000D+00  0.000000D+00  0.505412D-01  0.000000D+00
               826           827           828           829           830 
      1  -0.113978D+03 -0.113969D+03 -0.113957D+03 -0.113936D+03 -0.113932D+03
      2   0.381641D-01  0.279165D-01  0.326472D-01  0.000000D+00 -0.321991D-01
      3  -0.232566D-01  0.610066D-01  0.116737D-01  0.000000D+00 -0.569434D-01
      4   0.000000D+00  0.000000D+00  0.000000D+00  0.418668D-01  0.000000D+00
      5  -0.113715D+00 -0.850766D-01 -0.952537D-01  0.000000D+00  0.104951D+00
      6   0.568615D-01 -0.181099D+00 -0.368184D-01  0.000000D+00  0.176221D+00
      7   0.000000D+00  0.000000D+00  0.000000D+00 -0.118773D+00  0.000000D+00
      8   0.000000D+00  0.000000D+00  0.000000D+00  0.191713D+00  0.000000D+00
      9   0.000000D+00  0.000000D+00  0.000000D+00 -0.352958D+00  0.000000D+00
     10   0.200231D+00 -0.239073D-01  0.212384D+00  0.000000D+00  0.439716D+00
     11   0.148899D+00  0.965933D-01  0.334080D+00  0.000000D+00 -0.424815D+00
     12   0.198684D+00 -0.136657D+00  0.223314D+00  0.000000D+00  0.317624D+00
     13  -0.143289D+00  0.707591D-01 -0.302876D-01  0.000000D+00  0.131678D+00
     14   0.246910D+00 -0.929418D-01  0.715013D+00  0.000000D+00  0.382306D+00
     15   0.000000D+00  0.000000D+00  0.000000D+00  0.294433D+00  0.000000D+00
     16   0.000000D+00  0.000000D+00  0.000000D+00  0.160425D+00  0.000000D+00
               831           832           833           834           835 
      1  -0.113928D+03 -0.113924D+03 -0.113913D+03 -0.113896D+03 -0.113875D+03
      2   0.000000D+00  0.000000D+00 -0.359211D-01  0.918796D-02  0.389962D-01
      3   0.000000D+00  0.000000D+00  0.937359D-02 -0.128944D-01  0.624872D-01
      4   0.271372D-01 -0.222918D-01  0.000000D+00  0.000000D+00  0.000000D+00
      5   0.000000D+00  0.000000D+00  0.107532D+00 -0.316048D-01 -0.985008D-01
      6   0.000000D+00  0.000000D+00 -0.433113D-01  0.512480D-01 -0.177822D+00
      7  -0.712917D-01  0.578088D-01  0.000000D+00  0.000000D+00  0.000000D+00
      8   0.110773D-01 -0.972027D-01  0.000000D+00  0.000000D+00  0.000000D+00
      9  -0.795721D-01  0.180078D+00  0.000000D+00  0.000000D+00  0.000000D+00
     10   0.000000D+00  0.000000D+00 -0.421022D+00 -0.188745D+00  0.904384D-01
     11   0.000000D+00  0.000000D+00  0.506722D-01 -0.611255D+00 -0.119648D+00
     12   0.000000D+00  0.000000D+00 -0.301424D+00 -0.174789D+00  0.115961D+00
     13   0.000000D+00  0.000000D+00  0.147823D+00  0.107814D+00 -0.176548D-01
     14   0.000000D+00  0.000000D+00 -0.205256D+00 -0.134854D+00  0.211776D+00
     15   0.538223D-01 -0.144202D+00  0.000000D+00  0.000000D+00  0.000000D+00
     16   0.180242D-01 -0.863978D-02  0.000000D+00  0.000000D+00  0.000000D+00
               836           837           838           839           840 
      1  -0.113862D+03 -0.113849D+03 -0.113842D+03 -0.113834D+03 -0.113832D+03
      2   0.495686D-01  0.000000D+00  0.345394D-02  0.000000D+00  0.190183D-01
      3   0.318791D-01  0.000000D+00  0.434340D-01  0.000000D+00  0.318190D-01
      4   0.000000D+00 -0.752181D-02  0.000000D+00  0.307993D-02  0.000000D+00
      5  -0.156635D+00  0.000000D+00 -0.239294D-01  0.000000D+00 -0.545364D-01
      6  -0.884424D-01  0.000000D+00 -0.130577D+00  0.000000D+00 -0.944307D-01
      7   0.000000D+00  0.159067D-01  0.000000D+00 -0.914892D-02  0.000000D+00
      8   0.000000D+00  0.549453D-02  0.000000D+00 -0.251862D-01  0.000000D+00
      9   0.000000D+00  0.429410D-01  0.000000D+00 -0.403749D-01  0.000000D+00
     10   0.189686D-01  0.000000D+00 -0.158679D+00  0.000000D+00  0.206331D-01
     11  -0.479508D-01  0.000000D+00 -0.874651D+00  0.000000D+00 -0.180055D+00
     12  -0.803641D-01  0.000000D+00 -0.338980D+00  0.000000D+00  0.332865D+00
     13  -0.717463D-01  0.000000D+00  0.168688D-01  0.000000D+00  0.587136D-02
     14   0.116713D+00  0.000000D+00 -0.511529D+00  0.000000D+00 -0.259299D+00
     15   0.000000D+00  0.148288D-01  0.000000D+00  0.217420D-01  0.000000D+00
     16   0.000000D+00 -0.371619D-02  0.000000D+00 -0.732474D-01  0.000000D+00
               841           842           843           844           845 
      1  -0.113808D+03 -0.113787D+03 -0.113779D+03 -0.113777D+03 -0.113760D+03
      2   0.265639D-01  0.000000D+00 -0.803205D-02  0.000000D+00 -0.253369D-01
      3   0.215272D-01  0.000000D+00  0.246929D-01  0.000000D+00 -0.788751D-02
      4   0.000000D+00  0.334821D-02  0.000000D+00  0.503210D-01  0.000000D+00
      5  -0.885766D-01  0.000000D+00  0.193460D-01  0.000000D+00  0.815945D-01
      6  -0.808389D-01  0.000000D+00 -0.742850D-01  0.000000D+00  0.224658D-01
      7   0.000000D+00 -0.114816D-01  0.000000D+00 -0.148281D+00  0.000000D+00
      8   0.000000D+00 -0.146956D-01  0.000000D+00  0.151737D+00  0.000000D+00
      9   0.000000D+00 -0.533142D-01  0.000000D+00 -0.339684D+00  0.000000D+00
     10  -0.263157D+00  0.000000D+00  0.348954D+00  0.000000D+00 -0.317162D+00
     11  -0.126058D+00  0.000000D+00 -0.421991D+00  0.000000D+00  0.147437D+00
     12  -0.856691D-01  0.000000D+00  0.235928D-01  0.000000D+00 -0.359331D-01
     13  -0.705563D-01  0.000000D+00  0.239828D+00  0.000000D+00  0.469126D-01
     14  -0.267502D+00  0.000000D+00  0.166939D+00  0.000000D+00 -0.404280D+00
     15   0.000000D+00 -0.299156D-01  0.000000D+00  0.253468D+00  0.000000D+00
     16   0.000000D+00 -0.622331D-01  0.000000D+00  0.159815D+00  0.000000D+00
               846           847           848           849           850 
      1  -0.113755D+03 -0.113732D+03 -0.113725D+03 -0.113706D+03 -0.113690D+03
      2   0.235810D-01 -0.113335D-02 -0.594479D-01  0.567653D-02 -0.174400D-01
      3  -0.987878D-02  0.508497D-02 -0.500796D-01  0.198465D-02  0.705844D-01
      4   0.000000D+00  0.000000D+00  0.000000D+00  0.000000D+00  0.000000D+00
      5  -0.597838D-01 -0.175041D-02  0.164681D+00 -0.109660D-01  0.539952D-01
      6   0.311816D-01 -0.140327D-01  0.139602D+00 -0.425266D-02 -0.202784D+00
      7   0.000000D+00  0.000000D+00  0.000000D+00  0.000000D+00  0.000000D+00
      8   0.000000D+00  0.000000D+00  0.000000D+00  0.000000D+00  0.000000D+00
      9   0.000000D+00  0.000000D+00  0.000000D+00  0.000000D+00  0.000000D+00
     10  -0.122046D+00  0.161105D+00  0.345236D+00 -0.569670D-01 -0.434301D-01
     11  -0.510584D-01 -0.121597D+00 -0.295635D+00  0.548623D+00 -0.671932D+00
     12   0.153397D-01 -0.103242D-01  0.255155D+00  0.162846D+00 -0.105435D-01
     13  -0.206889D-01 -0.393810D-02  0.760779D-01  0.923306D-01  0.120880D-01
     14  -0.158062D+00  0.502377D-01  0.287905D+00 -0.512101D-01 -0.615000D-01
     15   0.000000D+00  0.000000D+00  0.000000D+00  0.000000D+00  0.000000D+00
     16   0.000000D+00  0.000000D+00  0.000000D+00  0.000000D+00  0.000000D+00
               851           852           853           854           855 
      1  -0.113686D+03 -0.113670D+03 -0.113656D+03 -0.113619D+03 -0.113616D+03
      2   0.000000D+00  0.804699D-02 -0.361167D-01  0.529575D-01  0.568913D-01
      3   0.000000D+00 -0.313844D-02  0.495702D-01 -0.246834D-01 -0.315743D-03
      4  -0.785958D-01  0.000000D+00  0.000000D+00  0.000000D+00  0.000000D+00
      5   0.000000D+00 -0.388907D-01  0.111251D+00 -0.176005D+00 -0.207643D+00
      6   0.000000D+00  0.118577D-01 -0.146121D+00  0.778554D-01  0.273835D-02
      7   0.234821D+00  0.000000D+00  0.000000D+00  0.000000D+00  0.000000D+00
      8  -0.215020D+00  0.000000D+00  0.000000D+00  0.000000D+00  0.000000D+00
      9   0.470042D+00  0.000000D+00  0.000000D+00  0.000000D+00  0.000000D+00
     10   0.000000D+00 -0.647696D+00  0.121698D+00 -0.279862D+00  0.493611D+00
     11   0.000000D+00 -0.225662D+00  0.224188D+00  0.230493D+00 -0.376005D+00
     12   0.000000D+00  0.189578D+00  0.306369D-01 -0.182025D+00  0.735224D-01
     13   0.000000D+00 -0.295635D-02 -0.245595D-01 -0.738186D-01 -0.364556D-01
     14   0.000000D+00 -0.700846D+00  0.168657D+00 -0.759693D-01  0.219665D+00
     15  -0.317596D+00  0.000000D+00  0.000000D+00  0.000000D+00  0.000000D+00
     16  -0.265370D+00  0.000000D+00  0.000000D+00  0.000000D+00  0.000000D+00
               856           857           858           859           860 
      1  -0.113575D+03 -0.113564D+03 -0.113559D+03 -0.113532D+03 -0.113485D+03
      2   0.000000D+00  0.590666D-01  0.215397D-02  0.000000D+00 -0.518271D-02
      3   0.000000D+00 -0.568390D-01  0.360307D-01  0.000000D+00 -0.169353D-02
      4   0.585503D-02  0.000000D+00  0.000000D+00 -0.253280D-01  0.000000D+00
      5   0.000000D+00 -0.182384D+00 -0.763252D-02  0.000000D+00  0.141286D-01
      6   0.000000D+00  0.171119D+00 -0.109070D+00  0.000000D+00  0.159781D-01
      7  -0.146474D-01  0.000000D+00  0.000000D+00  0.744308D-01  0.000000D+00
      8  -0.416358D-02  0.000000D+00  0.000000D+00 -0.872603D-01  0.000000D+00
      9  -0.295887D-01  0.000000D+00  0.000000D+00  0.185973D+00  0.000000D+00
     10   0.000000D+00  0.979234D-01 -0.171866D-01  0.000000D+00  0.885306D-01
     11   0.000000D+00 -0.506513D+00 -0.405809D+00  0.000000D+00 -0.603556D+00
     12   0.000000D+00  0.162374D+00  0.213512D+00  0.000000D+00 -0.207477D-01
     13   0.000000D+00 -0.623490D-01  0.357608D-01  0.000000D+00  0.340191D-02
     14   0.000000D+00 -0.590766D-01 -0.197013D+00  0.000000D+00 -0.296549D-01
     15  -0.223805D-01  0.000000D+00  0.000000D+00 -0.130294D+00  0.000000D+00
     16   0.522448D-01  0.000000D+00  0.000000D+00 -0.882672D-01  0.000000D+00
               861           862           863           864 
      1  -0.113479D+03 -0.113431D+03 -0.113339D+03 -0.113229D+03
      2   0.132529D-02 -0.354695D-01  0.130803D-01 -0.592045D-02
      3  -0.236781D-01  0.129811D-01  0.240455D-01  0.165760D-01
      4   0.000000D+00  0.000000D+00  0.000000D+00  0.000000D+00
      5   0.246105D-02  0.102541D+00 -0.346113D-01  0.310406D-01
      6   0.949872D-01 -0.456460D-01 -0.716219D-01 -0.407903D-01
      7   0.000000D+00  0.000000D+00  0.000000D+00  0.000000D+00
      8   0.000000D+00  0.000000D+00  0.000000D+00  0.000000D+00
      9   0.000000D+00  0.000000D+00  0.000000D+00  0.000000D+00
     10  -0.405315D-01 -0.265637D+00 -0.216335D+00  0.177269D+00
     11   0.526472D-01  0.329137D+00 -0.917668D-01  0.255887D+00
     12   0.496125D-01 -0.222362D+00  0.178638D+00  0.616988D-01
     13   0.606493D-02 -0.224925D-01 -0.179634D-01 -0.305642D-01
     14  -0.276446D-01 -0.154540D+00 -0.183779D+00  0.339646D+00
     15   0.000000D+00  0.000000D+00  0.000000D+00  0.000000D+00
     16   0.000000D+00  0.000000D+00  0.000000D+00  0.000000D+00
 Unable to Open any file for archive entry.
 1\1\GINC-HEL13\SP\RLC-BLYP TD-FC\Gen\C3H6\SABYASACHI\21-Mar-2022\0\\#P
  TD(Nstates=10000) lc-blyp/Gen SCF(maxcycles=100) Int(Grid=ultrafine)\
 \xGDB7_00001_tier4.com\\0,1\C,0,-1.131573,-0.504386,0.\C,0,0.,0.472223
 ,0.\C,0,1.284136,0.150792,0.\H,0,-1.767446,-0.362775,0.877699\H,0,-0.7
 70123,-1.533458,0.\H,0,-1.767446,-0.362775,-0.877699\H,0,-0.276551,1.5
 23465,0.\H,0,1.608435,-0.884556,0.\H,0,2.057749,0.908326,0.\\Version=E
 M64L-G16RevC.01\State=1-A'\HF=-117.4377058\RMSD=2.547e-09\PG=CS [SG(C3
 H4),X(H2)]\\@
 The archive entry for this job was punched.


 THE WORLD IS NOT A HAMBURGER - YOU CAN'T HAVE IT YOUR WAY.
 Job cpu time:       0 days  0 hours 10 minutes 32.0 seconds.
 Elapsed time:       0 days  0 hours  1 minutes 19.3 seconds.
 File lengths (MBytes):  RWF=    968 Int=      0 D2E=      0 Chk=    240 Scr=      1
 Normal termination of Gaussian 16 at Mon Mar 21 04:10:52 2022.
