 Entering Gaussian System, Link 0=g16
 Input=000017.com
 Output=000017.log
 Initial command:
 /home/sabyasachi/g16/l1.exe "/scratch/sabyasachi/PBS_7976151.helios/Gau-27463.inp" -scrdir="/scratch/sabyasachi/PBS_7976151.helios/"
 Entering Link 1 = /home/sabyasachi/g16/l1.exe PID=     27464.
  
 Copyright (c) 1988-2019, Gaussian, Inc.  All Rights Reserved.
  
 This is part of the Gaussian(R) 16 program.  It is based on
 the Gaussian(R) 09 system (copyright 2009, Gaussian, Inc.),
 the Gaussian(R) 03 system (copyright 2003, Gaussian, Inc.),
 the Gaussian(R) 98 system (copyright 1998, Gaussian, Inc.),
 the Gaussian(R) 94 system (copyright 1995, Gaussian, Inc.),
 the Gaussian 92(TM) system (copyright 1992, Gaussian, Inc.),
 the Gaussian 90(TM) system (copyright 1990, Gaussian, Inc.),
 the Gaussian 88(TM) system (copyright 1988, Gaussian, Inc.),
 the Gaussian 86(TM) system (copyright 1986, Carnegie Mellon
 University), and the Gaussian 82(TM) system (copyright 1983,
 Carnegie Mellon University). Gaussian is a federally registered
 trademark of Gaussian, Inc.
  
 This software contains proprietary and confidential information,
 including trade secrets, belonging to Gaussian, Inc.
  
 This software is provided under written license and may be
 used, copied, transmitted, or stored only in accord with that
 written license.
  
 The following legend is applicable only to US Government
 contracts under FAR:
  
                    RESTRICTED RIGHTS LEGEND
  
 Use, reproduction and disclosure by the US Government is
 subject to restrictions as set forth in subparagraphs (a)
 and (c) of the Commercial Computer Software - Restricted
 Rights clause in FAR 52.227-19.
  
 Gaussian, Inc.
 340 Quinnipiac St., Bldg. 40, Wallingford CT 06492
  
  
 ---------------------------------------------------------------
 Warning -- This program may not be used in any manner that
 competes with the business of Gaussian, Inc. or will provide
 assistance to any competitor of Gaussian, Inc.  The licensee
 of this program is prohibited from giving any competitor of
 Gaussian, Inc. access to this program.  By using this program,
 the user acknowledges that Gaussian, Inc. is engaged in the
 business of creating and licensing software in the field of
 computational chemistry and represents and warrants to the
 licensee that it is not a competitor of Gaussian, Inc. and that
 it will not use this program in any manner prohibited above.
 ---------------------------------------------------------------
  

 Cite this work as:
 Gaussian 16, Revision C.01,
 M. J. Frisch, G. W. Trucks, H. B. Schlegel, G. E. Scuseria, 
 M. A. Robb, J. R. Cheeseman, G. Scalmani, V. Barone, 
 G. A. Petersson, H. Nakatsuji, X. Li, M. Caricato, A. V. Marenich, 
 J. Bloino, B. G. Janesko, R. Gomperts, B. Mennucci, H. P. Hratchian, 
 J. V. Ortiz, A. F. Izmaylov, J. L. Sonnenberg, D. Williams-Young, 
 F. Ding, F. Lipparini, F. Egidi, J. Goings, B. Peng, A. Petrone, 
 T. Henderson, D. Ranasinghe, V. G. Zakrzewski, J. Gao, N. Rega, 
 G. Zheng, W. Liang, M. Hada, M. Ehara, K. Toyota, R. Fukuda, 
 J. Hasegawa, M. Ishida, T. Nakajima, Y. Honda, O. Kitao, H. Nakai, 
 T. Vreven, K. Throssell, J. A. Montgomery, Jr., J. E. Peralta, 
 F. Ogliaro, M. J. Bearpark, J. J. Heyd, E. N. Brothers, K. N. Kudin, 
 V. N. Staroverov, T. A. Keith, R. Kobayashi, J. Normand, 
 K. Raghavachari, A. P. Rendell, J. C. Burant, S. S. Iyengar, 
 J. Tomasi, M. Cossi, J. M. Millam, M. Klene, C. Adamo, R. Cammi, 
 J. W. Ochterski, R. L. Martin, K. Morokuma, O. Farkas, 
 J. B. Foresman, and D. J. Fox, Gaussian, Inc., Wallingford CT, 2019.
 
 ******************************************
 Gaussian 16:  EM64L-G16RevC.01  3-Jul-2019
                21-Mar-2022 
 ******************************************
 %mem=64gb
 %nproc=8
 Will use up to    8 processors via shared memory.
 -------------------------------------------------------------------
 #P TD(Nstates=10000) m11/Gen SCF(maxcycles=100) Int(Grid=ultrafine)
 -------------------------------------------------------------------
 1/38=1,172=1/1;
 2/12=2,17=6,18=5,40=1/2;
 3/5=7,11=9,25=1,30=1,74=-64,75=-5/1,2,3,8;
 4//1;
 5/5=2,7=100,38=5/2;
 8/6=1,10=1,108=10000/1;
 9/41=10000,42=1,70=2/14;
 6/7=2,8=2,9=2,10=2/1;
 99/5=1,9=1/99;
 Leave Link    1 at Mon Mar 21 20:09:39 2022, MaxMem=  8589934592 cpu:               0.4 elap:               0.1
 (Enter /home/sabyasachi/g16/l101.exe)
 ---------------------
 xGDB7_00001_tier4.com
 ---------------------
 Symbolic Z-matrix:
 Charge =  0 Multiplicity = 1
 6                    -1.12284  -0.45232   0. 
 6                     0.        0.554     0. 
 9                     1.22528  -0.09824   0. 
 1                    -2.08331   0.06681   0. 
 1                    -1.0728   -1.08565   0.88615 
 1                    -1.0728   -1.08565  -0.88615 
 1                    -0.03079   1.18928   0.88872 
 1                    -0.03079   1.18928  -0.88872 
 
 ITRead=  0  0  0  0  0  0  0  0
 MicOpt= -1 -1 -1 -1 -1 -1 -1 -1
 NAtoms=      8 NQM=        8 NQMF=       0 NMMI=      0 NMMIF=      0
                NMic=       0 NMicF=      0.
                    Isotopes and Nuclear Properties:
 (Nuclear quadrupole moments (NQMom) in fm**2, nuclear magnetic moments (NMagM)
  in nuclear magnetons)

  Atom         1           2           3           4           5           6           7           8
 IAtWgt=          12          12          19           1           1           1           1           1
 AtmWgt=  12.0000000  12.0000000  18.9984033   1.0078250   1.0078250   1.0078250   1.0078250   1.0078250
 NucSpn=           0           0           1           1           1           1           1           1
 AtZEff=  -0.0000000  -0.0000000  -0.0000000  -0.0000000  -0.0000000  -0.0000000  -0.0000000  -0.0000000
 NQMom=    0.0000000   0.0000000   0.0000000   0.0000000   0.0000000   0.0000000   0.0000000   0.0000000
 NMagM=    0.0000000   0.0000000   2.6288670   2.7928460   2.7928460   2.7928460   2.7928460   2.7928460
 AtZNuc=   6.0000000   6.0000000   9.0000000   1.0000000   1.0000000   1.0000000   1.0000000   1.0000000
 Leave Link  101 at Mon Mar 21 20:09:39 2022, MaxMem=  8589934592 cpu:               0.6 elap:               0.1
 (Enter /home/sabyasachi/g16/l202.exe)
                          Input orientation:                          
 ---------------------------------------------------------------------
 Center     Atomic      Atomic             Coordinates (Angstroms)
 Number     Number       Type             X           Y           Z
 ---------------------------------------------------------------------
      1          6           0       -1.122844   -0.452320    0.000000
      2          6           0        0.000000    0.553997    0.000000
      3          9           0        1.225284   -0.098236    0.000000
      4          1           0       -2.083314    0.066805    0.000000
      5          1           0       -1.072796   -1.085651    0.886148
      6          1           0       -1.072796   -1.085651   -0.886148
      7          1           0       -0.030794    1.189278    0.888716
      8          1           0       -0.030794    1.189278   -0.888716
 ---------------------------------------------------------------------
                    Distance matrix (angstroms):
                    1          2          3          4          5
     1  C    0.000000
     2  C    1.507797   0.000000
     3  F    2.374675   1.388067   0.000000
     4  H    1.091784   2.139522   3.312712   0.000000
     5  H    1.090354   2.150487   2.653567   1.770469   0.000000
     6  H    1.090354   2.150487   2.653567   1.770469   1.772296
     7  H    2.162691   1.092862   2.006300   2.502519   2.502214
     8  H    2.162691   1.092862   2.006300   2.502519   3.067770
                    6          7          8
     6  H    0.000000
     7  H    3.067770   0.000000
     8  H    2.502214   1.777432   0.000000
 Stoichiometry    C2H5F
 Framework group  CS[SG(C2HF),X(H4)]
 Deg. of freedom    11
 Full point group                 CS      NOp   2
 Largest Abelian subgroup         CS      NOp   2
 Largest concise Abelian subgroup CS      NOp   2
                         Standard orientation:                         
 ---------------------------------------------------------------------
 Center     Atomic      Atomic             Coordinates (Angstroms)
 Number     Number       Type             X           Y           Z
 ---------------------------------------------------------------------
      1          6           0       -1.122844   -0.452320    0.000000
      2          6           0        0.000000    0.553997    0.000000
      3          9           0        1.225284   -0.098236    0.000000
      4          1           0       -2.083314    0.066805    0.000000
      5          1           0       -1.072796   -1.085651    0.886148
      6          1           0       -1.072796   -1.085651   -0.886148
      7          1           0       -0.030794    1.189278    0.888716
      8          1           0       -0.030794    1.189278   -0.888716
 ---------------------------------------------------------------------
 Rotational constants (GHZ):          36.5990005           9.3913155           8.2480707
 Leave Link  202 at Mon Mar 21 20:09:39 2022, MaxMem=  8589934592 cpu:               0.1 elap:               0.0
 (Enter /home/sabyasachi/g16/l301.exe)
 General basis read from cards:  (5D, 7F)
 Centers:       4      5      6      7      8
 S 3 1.00
     Exponent=  1.3010701000D+01 Coefficients=  1.9682158000D-02
     Exponent=  1.9622572000D+00 Coefficients=  1.3796524000D-01
     Exponent=  4.4453796000D-01 Coefficients=  4.7831935000D-01
 S 1 1.00
     Exponent=  1.2194962000D-01 Coefficients=  1.0000000000D+00
 P 1 1.00
     Exponent=  8.0000000000D-01 Coefficients=  1.0000000000D+00
 P 1 1.00
     Exponent=  1.1704099050D-01 Coefficients=  1.0000000000D+00
 ****
 Centers:       1      2
 S 5 1.00
     Exponent=  1.2384016938D+03 Coefficients=  5.4568832082D-03
     Exponent=  1.8629004992D+02 Coefficients=  4.0638409211D-02
     Exponent=  4.2251176346D+01 Coefficients=  1.8025593888D-01
     Exponent=  1.1676557932D+01 Coefficients=  4.6315121755D-01
     Exponent=  3.5930506482D+00 Coefficients=  4.4087173314D-01
 S 1 1.00
     Exponent=  4.0245147363D-01 Coefficients=  1.0000000000D+00
 S 1 1.00
     Exponent=  1.3090182668D-01 Coefficients=  1.0000000000D+00
 S 1 1.00
     Exponent=  6.7053540256D-02 Coefficients=  1.0000000000D+00
 P 3 1.00
     Exponent=  9.4680970621D+00 Coefficients=  3.8387871728D-02
     Exponent=  2.0103545142D+00 Coefficients=  2.1117025112D-01
     Exponent=  5.4771004707D-01 Coefficients=  5.1328172114D-01
 P 1 1.00
     Exponent=  1.5268613795D-01 Coefficients=  1.0000000000D+00
 D 1 1.00
     Exponent=  8.0000000000D-01 Coefficients=  1.0000000000D+00
 D 1 1.00
     Exponent=  1.1713185140D-01 Coefficients=  1.0000000000D+00
 ****
 Centers:       3
 S 5 1.00
     Exponent=  2.8948325990D+03 Coefficients= -5.3408255515D-03
     Exponent=  4.3541939120D+02 Coefficients= -3.9904258866D-02
     Exponent=  9.8843328866D+01 Coefficients= -1.7912768038D-01
     Exponent=  2.7485198001D+01 Coefficients= -4.6758090825D-01
     Exponent=  8.5405498171D+00 Coefficients= -4.4653131020D-01
 S 1 1.00
     Exponent=  1.0654578038D+00 Coefficients=  1.0000000000D+00
 S 1 1.00
     Exponent=  3.3247346748D-01 Coefficients=  1.0000000000D+00
 S 1 1.00
     Exponent=  9.8097752264D-02 Coefficients=  1.0000000000D+00
 P 3 1.00
     Exponent=  2.2696633924D+01 Coefficients= -4.5212874436D-02
     Exponent=  4.9872339257D+00 Coefficients= -2.3754317067D-01
     Exponent=  1.3491613954D+00 Coefficients= -5.1287353587D-01
 P 1 1.00
     Exponent=  3.4829881977D-01 Coefficients=  1.0000000000D+00
 P 1 1.00
     Exponent=  8.3372148304D-02 Coefficients=  1.0000000000D+00
 D 1 1.00
     Exponent=  1.4000000000D+00 Coefficients=  1.0000000000D+00
 D 1 1.00
     Exponent=  2.2301361948D-01 Coefficients=  1.0000000000D+00
 ****
 Ernie: Thresh=  0.10000D-02 Tol=  0.10000D-05 Strict=F.
 There are    72 symmetry adapted cartesian basis functions of A'  symmetry.
 There are    37 symmetry adapted cartesian basis functions of A"  symmetry.
 There are    66 symmetry adapted basis functions of A'  symmetry.
 There are    37 symmetry adapted basis functions of A"  symmetry.
   103 basis functions,   149 primitive gaussians,   109 cartesian basis functions
    13 alpha electrons       13 beta electrons
       nuclear repulsion energy        79.3301965124 Hartrees.
 IExCor= 5042 DFT=T Ex+Corr=M11 ExCW=0 ScaHFX=  1.000000
 ScaDFX=  1.000000  1.000000  1.000000  1.000000 ScalE2=  1.000000  1.000000
 IRadAn=      5 IRanWt=     -1 IRanGd=            0 ICorTp=0 IEmpDi=  4
 HFx  wShort=  0.000000 wLong=  0.250000 cFull=  0.428000 cShort=  0.000000 cLong=  0.572000
 DFx  wShort=  0.000000 wLong=  0.250000 cFull=  0.000000 cShort=  0.000000 cLong=  1.000000
 NAtoms=    8 NActive=    8 NUniq=    6 SFac= 1.78D+00 NAtFMM=   60 NAOKFM=F Big=F
 Integral buffers will be    131072 words long.
 Raffenetti 1 integral format.
 Two-electron integral symmetry is turned on.
 Leave Link  301 at Mon Mar 21 20:09:39 2022, MaxMem=  8589934592 cpu:               0.5 elap:               0.1
 (Enter /home/sabyasachi/g16/l302.exe)
 NPDir=0 NMtPBC=     1 NCelOv=     1 NCel=       1 NClECP=     1 NCelD=      1
         NCelK=      1 NCelE2=     1 NClLst=     1 CellRange=     0.0.
 One-electron integrals computed using PRISM.
 One-electron integral symmetry used in STVInt
 NBasis=   103 RedAO= T EigKep=  3.43D-04  NBF=    66    37
 NBsUse=   103 1.00D-06 EigRej= -1.00D+00 NBFU=    66    37
 Precomputing XC quadrature grid using
 IXCGrd= 4 IRadAn=           5 IRanWt=          -1 IRanGd=           0 AccXCQ= 0.00D+00.
 Generated NRdTot=       0 NPtTot=           0 NUsed=           0 NTot=          32
 NSgBfM=   109   109   109   109   109 MxSgAt=     8 MxSgA2=     8.
 Leave Link  302 at Mon Mar 21 20:09:39 2022, MaxMem=  8589934592 cpu:               1.0 elap:               0.1
 (Enter /home/sabyasachi/g16/l303.exe)
 DipDrv:  MaxL=1.
 Leave Link  303 at Mon Mar 21 20:09:39 2022, MaxMem=  8589934592 cpu:               0.2 elap:               0.0
 (Enter /home/sabyasachi/g16/l308.exe)
 Leave Link  308 at Mon Mar 21 20:09:39 2022, MaxMem=  8589934592 cpu:               0.2 elap:               0.1
 (Enter /home/sabyasachi/g16/l401.exe)
 ExpMin= 6.71D-02 ExpMax= 2.89D+03 ExpMxC= 4.35D+02 IAcc=3 IRadAn=         5 AccDes= 0.00D+00
 Harris functional with IExCor= 1009 and IRadAn=       5 diagonalized for initial guess.
 HarFok:  IExCor= 1009 AccDes= 0.00D+00 IRadAn=         5 IDoV= 1 UseB2=F ITyADJ=14
 ICtDFT=  3500011 ScaDFX=  1.000000  1.000000  1.000000  1.000000
 FoFCou: FMM=F IPFlag=           0 FMFlag=      100000 FMFlg1=           0
         NFxFlg=           0 DoJE=T BraDBF=F KetDBF=T FulRan=T
         wScrn=  0.000000 ICntrl=       500 IOpCl=  0 I1Cent=   200000004 NGrid=           0
         NMat0=    1 NMatS0=      1 NMatT0=    0 NMatD0=    1 NMtDS0=    0 NMtDT0=    0
 Petite list used in FoFCou.
 Harris En= -175.035839972146    
 JPrj=0 DoOrth=F DoCkMO=F.
 Initial guess orbital symmetries:
       Occupied  (A') (A') (A') (A') (A') (A') (A") (A') (A') (A')
                 (A") (A') (A")
       Virtual   (A') (A') (A') (A") (A') (A') (A") (A') (A") (A')
                 (A") (A') (A') (A") (A') (A') (A') (A") (A') (A')
                 (A") (A") (A') (A') (A') (A") (A") (A') (A') (A")
                 (A") (A') (A") (A') (A') (A') (A") (A') (A') (A")
                 (A') (A') (A') (A") (A') (A') (A") (A') (A') (A")
                 (A') (A') (A") (A') (A") (A') (A') (A") (A") (A')
                 (A") (A") (A') (A') (A") (A') (A') (A") (A') (A")
                 (A') (A") (A') (A') (A") (A') (A') (A') (A") (A')
                 (A') (A') (A") (A') (A") (A') (A") (A") (A') (A')
 The electronic state of the initial guess is 1-A'.
 Leave Link  401 at Mon Mar 21 20:09:39 2022, MaxMem=  8589934592 cpu:               2.2 elap:               0.3
 (Enter /home/sabyasachi/g16/l502.exe)
 Keep R1 ints in memory in symmetry-blocked form, NReq=43165308.
 FoFCou: FMM=F IPFlag=           0 FMFlag=           0 FMFlg1=           0
         NFxFlg=           0 DoJE=F BraDBF=F KetDBF=F FulRan=T
         wScrn=  0.000000 ICntrl=       600 IOpCl=  0 I1Cent=           0 NGrid=           0
         NMat0=    1 NMatS0=   5356 NMatT0=    0 NMatD0=    1 NMtDS0=    0 NMtDT0=    0
 Petite list used in FoFCou.
 Closed shell SCF:
 Using DIIS extrapolation, IDIIS=  1040.
 NGot=  8589934592 LenX=  8582666380 LenY=  8582654058
 Requested convergence on RMS density matrix=1.00D-08 within 100 cycles.
 Requested convergence on MAX density matrix=1.00D-06.
 Requested convergence on             energy=1.00D-06.
 No special actions if energy rises.
 Integral accuracy reduced to 1.0D-05 until final iterations.

 Cycle   1  Pass 0  IDiag  1:
 E= -178.788975384432    
 DIIS: error= 2.47D-02 at cycle   1 NSaved=   1.
 NSaved= 1 IEnMin= 1 EnMin= -178.788975384432     IErMin= 1 ErrMin= 2.47D-02
 ErrMax= 2.47D-02  0.00D+00 EMaxC= 1.00D-01 BMatC= 5.74D-02 BMatP= 5.74D-02
 IDIUse=3 WtCom= 7.53D-01 WtEn= 2.47D-01
 Coeff-Com:  0.100D+01
 Coeff-En:   0.100D+01
 Coeff:      0.100D+01
 Gap=     0.519 Goal=   None    Shift=    0.000
 GapD=    0.519 DampG=2.000 DampE=0.500 DampFc=1.0000 IDamp=-1.
 RMSDP=5.55D-03 MaxDP=1.66D-01              OVMax= 1.08D-01

 Cycle   2  Pass 0  IDiag  1:
 E= -178.825332707881     Delta-E=       -0.036357323449 Rises=F Damp=F
 DIIS: error= 1.57D-02 at cycle   2 NSaved=   2.
 NSaved= 2 IEnMin= 2 EnMin= -178.825332707881     IErMin= 2 ErrMin= 1.57D-02
 ErrMax= 1.57D-02  0.00D+00 EMaxC= 1.00D-01 BMatC= 2.46D-02 BMatP= 5.74D-02
 IDIUse=3 WtCom= 8.43D-01 WtEn= 1.57D-01
 Coeff-Com:  0.388D+00 0.612D+00
 Coeff-En:   0.184D+00 0.816D+00
 Coeff:      0.356D+00 0.644D+00
 Gap=     0.511 Goal=   None    Shift=    0.000
 RMSDP=2.90D-03 MaxDP=6.70D-02 DE=-3.64D-02 OVMax= 4.29D-02

 Cycle   3  Pass 0  IDiag  1:
 E= -178.848851103959     Delta-E=       -0.023518396078 Rises=F Damp=F
 DIIS: error= 1.75D-03 at cycle   3 NSaved=   3.
 NSaved= 3 IEnMin= 3 EnMin= -178.848851103959     IErMin= 3 ErrMin= 1.75D-03
 ErrMax= 1.75D-03  0.00D+00 EMaxC= 1.00D-01 BMatC= 4.92D-04 BMatP= 2.46D-02
 IDIUse=3 WtCom= 9.82D-01 WtEn= 1.75D-02
 Coeff-Com:  0.484D-01 0.145D+00 0.807D+00
 Coeff-En:   0.000D+00 0.000D+00 0.100D+01
 Coeff:      0.475D-01 0.142D+00 0.810D+00
 Gap=     0.499 Goal=   None    Shift=    0.000
 RMSDP=3.59D-04 MaxDP=5.78D-03 DE=-2.35D-02 OVMax= 6.52D-03

 Cycle   4  Pass 0  IDiag  1:
 E= -178.849198345828     Delta-E=       -0.000347241869 Rises=F Damp=F
 DIIS: error= 1.17D-03 at cycle   4 NSaved=   4.
 NSaved= 4 IEnMin= 4 EnMin= -178.849198345828     IErMin= 4 ErrMin= 1.17D-03
 ErrMax= 1.17D-03  0.00D+00 EMaxC= 1.00D-01 BMatC= 1.41D-04 BMatP= 4.92D-04
 IDIUse=3 WtCom= 9.88D-01 WtEn= 1.17D-02
 Coeff-Com: -0.101D-01 0.116D-01 0.381D+00 0.617D+00
 Coeff-En:   0.000D+00 0.000D+00 0.000D+00 0.100D+01
 Coeff:     -0.100D-01 0.115D-01 0.377D+00 0.622D+00
 Gap=     0.497 Goal=   None    Shift=    0.000
 RMSDP=1.33D-04 MaxDP=2.58D-03 DE=-3.47D-04 OVMax= 1.72D-03

 Cycle   5  Pass 0  IDiag  1:
 E= -178.849283731973     Delta-E=       -0.000085386145 Rises=F Damp=F
 DIIS: error= 1.27D-04 at cycle   5 NSaved=   5.
 NSaved= 5 IEnMin= 5 EnMin= -178.849283731973     IErMin= 5 ErrMin= 1.27D-04
 ErrMax= 1.27D-04  0.00D+00 EMaxC= 1.00D-01 BMatC= 2.75D-06 BMatP= 1.41D-04
 IDIUse=3 WtCom= 9.99D-01 WtEn= 1.27D-03
 Coeff-Com: -0.464D-02-0.128D-01-0.292D-01 0.742D-01 0.972D+00
 Coeff-En:   0.000D+00 0.000D+00 0.000D+00 0.000D+00 0.100D+01
 Coeff:     -0.463D-02-0.128D-01-0.291D-01 0.741D-01 0.972D+00
 Gap=     0.497 Goal=   None    Shift=    0.000
 RMSDP=5.95D-05 MaxDP=1.06D-03 DE=-8.54D-05 OVMax= 6.15D-04

 Cycle   6  Pass 0  IDiag  1:
 E= -178.849287469510     Delta-E=       -0.000003737537 Rises=F Damp=F
 DIIS: error= 2.50D-05 at cycle   6 NSaved=   6.
 NSaved= 6 IEnMin= 6 EnMin= -178.849287469510     IErMin= 6 ErrMin= 2.50D-05
 ErrMax= 2.50D-05  0.00D+00 EMaxC= 1.00D-01 BMatC= 9.35D-08 BMatP= 2.75D-06
 IDIUse=1 WtCom= 1.00D+00 WtEn= 0.00D+00
 Coeff-Com:  0.405D-03-0.110D-02-0.181D-01-0.320D-01 0.248D-01 0.103D+01
 Coeff:      0.405D-03-0.110D-02-0.181D-01-0.320D-01 0.248D-01 0.103D+01
 Gap=     0.497 Goal=   None    Shift=    0.000
 RMSDP=1.23D-05 MaxDP=1.89D-04 DE=-3.74D-06 OVMax= 1.82D-04

 Cycle   7  Pass 0  IDiag  1:
 E= -178.849287641357     Delta-E=       -0.000000171847 Rises=F Damp=F
 DIIS: error= 6.45D-06 at cycle   7 NSaved=   7.
 NSaved= 7 IEnMin= 7 EnMin= -178.849287641357     IErMin= 7 ErrMin= 6.45D-06
 ErrMax= 6.45D-06  0.00D+00 EMaxC= 1.00D-01 BMatC= 6.51D-09 BMatP= 9.35D-08
 IDIUse=1 WtCom= 1.00D+00 WtEn= 0.00D+00
 Coeff-Com:  0.268D-03 0.135D-03-0.313D-02-0.845D-02-0.236D-01 0.206D+00
 Coeff-Com:  0.829D+00
 Coeff:      0.268D-03 0.135D-03-0.313D-02-0.845D-02-0.236D-01 0.206D+00
 Coeff:      0.829D+00
 Gap=     0.497 Goal=   None    Shift=    0.000
 RMSDP=1.58D-06 MaxDP=3.91D-05 DE=-1.72D-07 OVMax= 2.81D-05

 Initial convergence to 1.0D-05 achieved.  Increase integral accuracy.
 Cycle   8  Pass 1  IDiag  1:
 E= -178.849283943234     Delta-E=        0.000003698123 Rises=F Damp=F
 DIIS: error= 1.32D-05 at cycle   1 NSaved=   1.
 NSaved= 1 IEnMin= 1 EnMin= -178.849283943234     IErMin= 1 ErrMin= 1.32D-05
 ErrMax= 1.32D-05  0.00D+00 EMaxC= 1.00D-01 BMatC= 4.57D-08 BMatP= 4.57D-08
 IDIUse=1 WtCom= 1.00D+00 WtEn= 0.00D+00
 Coeff-Com:  0.100D+01
 Coeff:      0.100D+01
 Gap=     0.497 Goal=   None    Shift=    0.000
 RMSDP=1.58D-06 MaxDP=3.91D-05 DE= 3.70D-06 OVMax= 4.84D-05

 Cycle   9  Pass 1  IDiag  1:
 E= -178.849283986865     Delta-E=       -0.000000043631 Rises=F Damp=F
 DIIS: error= 2.53D-06 at cycle   2 NSaved=   2.
 NSaved= 2 IEnMin= 2 EnMin= -178.849283986865     IErMin= 2 ErrMin= 2.53D-06
 ErrMax= 2.53D-06  0.00D+00 EMaxC= 1.00D-01 BMatC= 2.14D-09 BMatP= 4.57D-08
 IDIUse=1 WtCom= 1.00D+00 WtEn= 0.00D+00
 Coeff-Com: -0.216D-01 0.102D+01
 Coeff:     -0.216D-01 0.102D+01
 Gap=     0.497 Goal=   None    Shift=    0.000
 RMSDP=1.40D-06 MaxDP=2.20D-05 DE=-4.36D-08 OVMax= 1.72D-05

 Cycle  10  Pass 1  IDiag  1:
 E= -178.849283988563     Delta-E=       -0.000000001698 Rises=F Damp=F
 DIIS: error= 2.89D-06 at cycle   3 NSaved=   3.
 NSaved= 3 IEnMin= 3 EnMin= -178.849283988563     IErMin= 2 ErrMin= 2.53D-06
 ErrMax= 2.89D-06  0.00D+00 EMaxC= 1.00D-01 BMatC= 1.12D-09 BMatP= 2.14D-09
 IDIUse=1 WtCom= 1.00D+00 WtEn= 0.00D+00
 Coeff-Com: -0.536D-01 0.434D+00 0.619D+00
 Coeff:     -0.536D-01 0.434D+00 0.619D+00
 Gap=     0.497 Goal=   None    Shift=    0.000
 RMSDP=3.68D-07 MaxDP=7.07D-06 DE=-1.70D-09 OVMax= 5.91D-06

 Cycle  11  Pass 1  IDiag  1:
 E= -178.849283989343     Delta-E=       -0.000000000780 Rises=F Damp=F
 DIIS: error= 4.80D-07 at cycle   4 NSaved=   4.
 NSaved= 4 IEnMin= 4 EnMin= -178.849283989343     IErMin= 4 ErrMin= 4.80D-07
 ErrMax= 4.80D-07  0.00D+00 EMaxC= 1.00D-01 BMatC= 3.96D-11 BMatP= 1.12D-09
 IDIUse=1 WtCom= 1.00D+00 WtEn= 0.00D+00
 Coeff-Com: -0.124D-01 0.477D-01 0.147D+00 0.818D+00
 Coeff:     -0.124D-01 0.477D-01 0.147D+00 0.818D+00
 Gap=     0.497 Goal=   None    Shift=    0.000
 RMSDP=1.21D-07 MaxDP=2.07D-06 DE=-7.80D-10 OVMax= 2.19D-06

 Cycle  12  Pass 1  IDiag  1:
 E= -178.849283989380     Delta-E=       -0.000000000037 Rises=F Damp=F
 DIIS: error= 2.30D-07 at cycle   5 NSaved=   5.
 NSaved= 5 IEnMin= 5 EnMin= -178.849283989380     IErMin= 5 ErrMin= 2.30D-07
 ErrMax= 2.30D-07  0.00D+00 EMaxC= 1.00D-01 BMatC= 8.84D-12 BMatP= 3.96D-11
 IDIUse=1 WtCom= 1.00D+00 WtEn= 0.00D+00
 Coeff-Com:  0.495D-02-0.584D-01-0.613D-01 0.298D+00 0.817D+00
 Coeff:      0.495D-02-0.584D-01-0.613D-01 0.298D+00 0.817D+00
 Gap=     0.497 Goal=   None    Shift=    0.000
 RMSDP=5.95D-08 MaxDP=1.09D-06 DE=-3.68D-11 OVMax= 1.39D-06

 Cycle  13  Pass 1  IDiag  1:
 E= -178.849283989391     Delta-E=       -0.000000000011 Rises=F Damp=F
 DIIS: error= 2.32D-08 at cycle   6 NSaved=   6.
 NSaved= 6 IEnMin= 6 EnMin= -178.849283989391     IErMin= 6 ErrMin= 2.32D-08
 ErrMax= 2.32D-08  0.00D+00 EMaxC= 1.00D-01 BMatC= 1.49D-13 BMatP= 8.84D-12
 IDIUse=1 WtCom= 1.00D+00 WtEn= 0.00D+00
 Coeff-Com:  0.901D-03-0.446D-02-0.804D-02-0.472D-01 0.378D-02 0.106D+01
 Coeff:      0.901D-03-0.446D-02-0.804D-02-0.472D-01 0.378D-02 0.106D+01
 Gap=     0.497 Goal=   None    Shift=    0.000
 RMSDP=1.35D-08 MaxDP=2.13D-07 DE=-1.07D-11 OVMax= 4.25D-07

 Cycle  14  Pass 1  IDiag  1:
 E= -178.849283989387     Delta-E=        0.000000000003 Rises=F Damp=F
 DIIS: error= 6.32D-09 at cycle   7 NSaved=   7.
 NSaved= 7 IEnMin= 6 EnMin= -178.849283989391     IErMin= 7 ErrMin= 6.32D-09
 ErrMax= 6.32D-09  0.00D+00 EMaxC= 1.00D-01 BMatC= 4.92D-15 BMatP= 1.49D-13
 IDIUse=1 WtCom= 1.00D+00 WtEn= 0.00D+00
 Coeff-Com: -0.242D-03 0.261D-02 0.318D-02-0.626D-02-0.308D-01-0.137D+00
 Coeff-Com:  0.117D+01
 Coeff:     -0.242D-03 0.261D-02 0.318D-02-0.626D-02-0.308D-01-0.137D+00
 Coeff:      0.117D+01
 Gap=     0.497 Goal=   None    Shift=    0.000
 RMSDP=3.12D-09 MaxDP=4.87D-08 DE= 3.47D-12 OVMax= 1.14D-07

 SCF Done:  E(RM11) =  -178.849283989     A.U. after   14 cycles
            NFock= 14  Conv=0.31D-08     -V/T= 2.0103
 KE= 1.770174915235D+02 PE=-5.787704675855D+02 EE= 1.435734955602D+02
 Leave Link  502 at Mon Mar 21 20:09:43 2022, MaxMem=  8589934592 cpu:              25.5 elap:               3.3
 (Enter /home/sabyasachi/g16/l801.exe)
 DoSCS=F DFT=T ScalE2(SS,OS)=  1.000000  1.000000
 ExpMin= 6.71D-02 ExpMax= 2.89D+03 ExpMxC= 4.35D+02 IAcc=3 IRadAn=         5 AccDes= 0.00D+00
 HarFok:  IExCor=  205 AccDes= 0.00D+00 IRadAn=         5 IDoV=-2 UseB2=F ITyADJ=14
 ICtDFT= 12500011 ScaDFX=  1.000000  1.000000  1.000000  1.000000
 Largest valence mixing into a core orbital is  7.38D-05
 Largest core mixing into a valence orbital is  2.00D-05
 Range of M.O.s used for correlation:     4   103
 NBasis=   103 NAE=    13 NBE=    13 NFC=     3 NFV=     0
 NROrb=    100 NOA=    10 NOB=    10 NVA=    90 NVB=    90

 **** Warning!!: The largest alpha MO coefficient is  0.22663795D+02

 Leave Link  801 at Mon Mar 21 20:09:43 2022, MaxMem=  8589934592 cpu:               0.5 elap:               0.1
 (Enter /home/sabyasachi/g16/l914.exe)
 RHF ground state
 Keep R1, R2, and R3 ints in memory in symmetry-blocked form, NReq=894050508.
 FoFCou: FMM=F IPFlag=           0 FMFlag=           0 FMFlg1=           0
         NFxFlg=           0 DoJE=F BraDBF=F KetDBF=F FulRan=T
         wScrn=  0.000000 ICntrl=       600 IOpCl=  0 I1Cent=           0 NGrid=           0
         NMat0=    1 NMatS0=   5356 NMatT0=    0 NMatD0=    1 NMtDS0=    0 NMtDT0=    0
 Petite list used in FoFCou.
 MDV=  8589934592 DFT=T DoStab=F Mixed=T DoRPA=T DoScal=F NonHer=T
 Making orbital integer symmetry assigments:
 Orbital symmetries:
       Occupied  (A') (A') (A') (A') (A') (A') (A") (A') (A') (A")
                 (A') (A') (A")
       Virtual   (A') (A') (A") (A') (A') (A') (A") (A") (A') (A')
                 (A") (A') (A') (A") (A') (A') (A") (A') (A') (A')
                 (A") (A') (A") (A") (A') (A") (A') (A') (A') (A")
                 (A") (A') (A') (A") (A') (A') (A") (A') (A') (A")
                 (A') (A') (A") (A') (A') (A') (A") (A') (A") (A')
                 (A') (A") (A') (A') (A") (A') (A") (A') (A") (A')
                 (A") (A") (A') (A") (A') (A') (A') (A") (A") (A')
                 (A') (A") (A') (A') (A') (A") (A') (A') (A") (A')
                 (A') (A') (A") (A') (A") (A') (A") (A") (A') (A')
   900 initial guesses have been made.
 Convergence on wavefunction:    0.001000000000000
 Davidson Disk Diagonalization:  ConvIn= 1.00D-03 SkipCon=T Conv= 1.00D-03.
 Max sub-space:  5400 roots to seek:  1800 dimension of matrix:         1800
 *** WARNING: Number of orthogonal guesses is          900
 Iteration     1 Dimension   900 NMult     0 NNew    900
 CISAX will form   900 AO SS matrices at one time.
 NMat=   900 NSing=   900 JSym2X=-1.
 New state      5 was old state      8
 New state      6 was old state      5
 New state      7 was old state     10
 New state      8 was old state      6
 New state     10 was old state      7
 New state     11 was old state     13
 New state     12 was old state     11
 New state     13 was old state     15
 New state     14 was old state     17
 New state     15 was old state     14
 New state     16 was old state     12
 New state     17 was old state     18
 New state     18 was old state     16
 New state     20 was old state     24
 New state     21 was old state     25
 New state     22 was old state     30
 New state     23 was old state     21
 New state     24 was old state     20
 New state     25 was old state     26
 New state     26 was old state     23
 New state     28 was old state     31
 New state     29 was old state     28
 New state     30 was old state     34
 New state     31 was old state     32
 New state     32 was old state     22
 New state     33 was old state     42
 New state     34 was old state     36
 New state     35 was old state     33
 New state     36 was old state     40
 New state     37 was old state     29
 New state     38 was old state     51
 New state     39 was old state     43
 New state     40 was old state     35
 New state     41 was old state     37
 New state     42 was old state     45
 New state     43 was old state     39
 New state     44 was old state     41
 New state     45 was old state     47
 New state     46 was old state     44
 New state     47 was old state     50
 New state     48 was old state     67
 New state     49 was old state     48
 New state     50 was old state     53
 New state     51 was old state     57
 New state     52 was old state     46
 New state     53 was old state     49
 New state     54 was old state     52
 New state     56 was old state     58
 New state     57 was old state     62
 New state     58 was old state     54
 New state     59 was old state     56
 New state     60 was old state     74
 New state     62 was old state     63
 New state     63 was old state     60
 New state     64 was old state     66
 New state     66 was old state     70
 New state     67 was old state     71
 New state     69 was old state     38
 New state     70 was old state     64
 New state     71 was old state     80
 New state     72 was old state     86
 New state     73 was old state     79
 New state     74 was old state     76
 New state     75 was old state     88
 New state     76 was old state     69
 New state     77 was old state     78
 New state     78 was old state     77
 New state     79 was old state     87
 New state     80 was old state     72
 New state     81 was old state     75
 New state     82 was old state     84
 New state     83 was old state     73
 New state     84 was old state     83
 New state     85 was old state     81
 New state     86 was old state     95
 New state     87 was old state     82
 New state     88 was old state     85
 New state     89 was old state     91
 New state     90 was old state    116
 New state     91 was old state     97
 New state     92 was old state     98
 New state     93 was old state     96
 New state     94 was old state    102
 New state     95 was old state    100
 New state     96 was old state     99
 New state     97 was old state     93
 New state     98 was old state     94
 New state     99 was old state    110
 New state    100 was old state     90
 New state    101 was old state    111
 New state    102 was old state    101
 New state    103 was old state     89
 New state    105 was old state    120
 New state    106 was old state     92
 New state    107 was old state    103
 New state    108 was old state    123
 New state    109 was old state    106
 New state    110 was old state    109
 New state    111 was old state    114
 New state    112 was old state    108
 New state    113 was old state    112
 New state    114 was old state    113
 New state    115 was old state    117
 New state    116 was old state    121
 New state    117 was old state    115
 New state    118 was old state    136
 New state    119 was old state    118
 New state    120 was old state    125
 New state    121 was old state    105
 New state    122 was old state    126
 New state    123 was old state    122
 New state    124 was old state    145
 New state    125 was old state    134
 New state    126 was old state    119
 New state    127 was old state    130
 New state    128 was old state    124
 New state    129 was old state    135
 New state    130 was old state    148
 New state    131 was old state    143
 New state    132 was old state    127
 New state    133 was old state    128
 New state    134 was old state    137
 New state    135 was old state    129
 New state    136 was old state    140
 New state    137 was old state    141
 New state    138 was old state    131
 New state    140 was old state    153
 New state    141 was old state    149
 New state    142 was old state    133
 New state    143 was old state    142
 New state    145 was old state    147
 New state    146 was old state    132
 New state    147 was old state    138
 New state    148 was old state    155
 New state    149 was old state    146
 New state    150 was old state    159
 New state    151 was old state    154
 New state    153 was old state    169
 New state    154 was old state    156
 New state    155 was old state    150
 New state    156 was old state    162
 New state    157 was old state    158
 New state    158 was old state    151
 New state    159 was old state    175
 New state    161 was old state    167
 New state    162 was old state    161
 New state    163 was old state    168
 New state    164 was old state    171
 New state    165 was old state    157
 New state    166 was old state    164
 New state    167 was old state    166
 New state    168 was old state    176
 New state    169 was old state    180
 New state    171 was old state    184
 New state    172 was old state    177
 New state    173 was old state    178
 New state    174 was old state    163
 New state    175 was old state    173
 New state    176 was old state    185
 New state    177 was old state    182
 New state    178 was old state    172
 New state    180 was old state    165
 New state    181 was old state    187
 New state    182 was old state    174
 New state    183 was old state    206
 New state    184 was old state    181
 New state    185 was old state    183
 New state    186 was old state    190
 New state    187 was old state    193
 New state    188 was old state    195
 New state    190 was old state    203
 New state    191 was old state    192
 New state    192 was old state    197
 New state    193 was old state    191
 New state    194 was old state    188
 New state    195 was old state    205
 New state    196 was old state    198
 New state    197 was old state    200
 New state    198 was old state    202
 New state    199 was old state    186
 New state    200 was old state    199
 New state    201 was old state    210
 New state    202 was old state    216
 New state    203 was old state    222
 New state    204 was old state    194
 New state    205 was old state    201
 New state    206 was old state    196
 New state    208 was old state    230
 New state    209 was old state    224
 New state    210 was old state    217
 New state    211 was old state    208
 New state    212 was old state    204
 New state    213 was old state    211
 New state    214 was old state    219
 New state    215 was old state    244
 New state    216 was old state    213
 New state    217 was old state    214
 New state    218 was old state    209
 New state    219 was old state    229
 New state    220 was old state    238
 New state    221 was old state    215
 New state    222 was old state    212
 New state    223 was old state    236
 New state    224 was old state    221
 New state    225 was old state    242
 New state    226 was old state    223
 New state    227 was old state    220
 New state    228 was old state    225
 New state    229 was old state    231
 New state    230 was old state    232
 New state    231 was old state    233
 New state    232 was old state    234
 New state    233 was old state    228
 New state    234 was old state    249
 New state    235 was old state    226
 New state    236 was old state    227
 New state    237 was old state    247
 New state    238 was old state    243
 New state    239 was old state    237
 New state    240 was old state    239
 New state    241 was old state    248
 New state    242 was old state    235
 New state    243 was old state    250
 New state    244 was old state    241
 New state    245 was old state    246
 New state    246 was old state    240
 New state    247 was old state    256
 New state    248 was old state    251
 New state    249 was old state    245
 New state    250 was old state    265
 New state    251 was old state    261
 New state    252 was old state    257
 New state    254 was old state    260
 New state    256 was old state    264
 New state    257 was old state    258
 New state    258 was old state    254
 New state    259 was old state    275
 New state    260 was old state    252
 New state    261 was old state    278
 New state    262 was old state    271
 New state    263 was old state    259
 New state    264 was old state    262
 New state    265 was old state    268
 New state    266 was old state    267
 New state    267 was old state    263
 New state    268 was old state    273
 New state    269 was old state    279
 New state    270 was old state    272
 New state    271 was old state    266
 New state    272 was old state    269
 New state    273 was old state    270
 New state    274 was old state    293
 New state    275 was old state    277
 New state    276 was old state    280
 New state    277 was old state    282
 New state    278 was old state    281
 New state    279 was old state    292
 New state    280 was old state    276
 New state    281 was old state    274
 New state    282 was old state    284
 New state    283 was old state    291
 New state    284 was old state    285
 New state    285 was old state    288
 New state    286 was old state    298
 New state    288 was old state    296
 New state    289 was old state    283
 New state    291 was old state    295
 New state    292 was old state    294
 New state    293 was old state    297
 New state    294 was old state    289
 New state    295 was old state    286
 New state    296 was old state    301
 New state    297 was old state    307
 New state    298 was old state    303
 New state    299 was old state    302
 New state    300 was old state    299
 New state    301 was old state    313
 New state    302 was old state    309
 New state    303 was old state    329
 New state    304 was old state    347
 New state    305 was old state    300
 New state    306 was old state    304
 New state    307 was old state    306
 New state    308 was old state    311
 New state    309 was old state    308
 New state    310 was old state    305
 New state    311 was old state    316
 New state    312 was old state    318
 New state    313 was old state    312
 New state    315 was old state    310
 New state    316 was old state    336
 New state    317 was old state    328
 New state    318 was old state    315
 New state    319 was old state    331
 New state    320 was old state    317
 New state    321 was old state    320
 New state    322 was old state    319
 New state    323 was old state    333
 New state    324 was old state    337
 New state    325 was old state    330
 New state    326 was old state    321
 New state    327 was old state    322
 New state    328 was old state    323
 New state    329 was old state    325
 New state    330 was old state    327
 New state    331 was old state    324
 No map to state    332
 New state    333 was old state    343
 New state    335 was old state    326
 New state    336 was old state    338
 New state    337 was old state    340
 New state    338 was old state    346
 New state    339 was old state    352
 New state    340 was old state    332
 New state    341 was old state    342
 New state    342 was old state    351
 New state    343 was old state    335
 New state    344 was old state    341
 New state    345 was old state    365
 New state    346 was old state    339
 New state    347 was old state    359
 New state    348 was old state    349
 New state    349 was old state    357
 New state    351 was old state    364
 New state    352 was old state    348
 New state    353 was old state    345
 New state    354 was old state    355
 New state    355 was old state    385
 New state    356 was old state    344
 New state    357 was old state    353
 New state    358 was old state    368
 New state    359 was old state    361
 New state    360 was old state    369
 New state    361 was old state    375
 New state    363 was old state    356
 New state    364 was old state    378
 New state    365 was old state    371
 New state    366 was old state    358
 New state    367 was old state    360
 New state    368 was old state    372
 New state    369 was old state    377
 New state    370 was old state    363
 New state    371 was old state    376
 New state    372 was old state    354
 New state    373 was old state    386
 New state    374 was old state    370
 New state    375 was old state    367
 New state    376 was old state    366
 New state    377 was old state    374
 New state    378 was old state    373
 New state    379 was old state    388
 New state    380 was old state    384
 New state    381 was old state    380
 New state    382 was old state    387
 New state    383 was old state    404
 New state    384 was old state    391
 New state    385 was old state    393
 New state    386 was old state    394
 New state    387 was old state    381
 New state    388 was old state    405
 New state    389 was old state    398
 New state    390 was old state    397
 New state    391 was old state    389
 New state    392 was old state    408
 New state    393 was old state    382
 New state    394 was old state    392
 New state    395 was old state    379
 New state    396 was old state    399
 New state    397 was old state    418
 New state    398 was old state    395
 New state    399 was old state    403
 New state    400 was old state    383
 New state    401 was old state    396
 New state    402 was old state    409
 New state    403 was old state    412
 New state    404 was old state    406
 New state    405 was old state    414
 New state    406 was old state    400
 New state    407 was old state    401
 New state    408 was old state    407
 New state    409 was old state    419
 New state    410 was old state    402
 New state    411 was old state    413
 New state    412 was old state    417
 New state    413 was old state    390
 New state    414 was old state    422
 New state    417 was old state    410
 New state    418 was old state    420
 New state    419 was old state    430
 New state    420 was old state    425
 New state    421 was old state    428
 New state    422 was old state    411
 New state    423 was old state    431
 New state    424 was old state    439
 New state    425 was old state    429
 New state    426 was old state    432
 New state    427 was old state    455
 New state    428 was old state    435
 New state    429 was old state    438
 New state    430 was old state    427
 New state    431 was old state    423
 New state    432 was old state    440
 New state    433 was old state    421
 New state    434 was old state    433
 New state    435 was old state    447
 New state    436 was old state    437
 New state    437 was old state    424
 New state    438 was old state    443
 New state    439 was old state    434
 New state    440 was old state    442
 New state    441 was old state    436
 New state    442 was old state    445
 New state    443 was old state    449
 New state    444 was old state    441
 New state    445 was old state    451
 New state    446 was old state    454
 New state    447 was old state    444
 New state    448 was old state    453
 New state    449 was old state    450
 New state    450 was old state    458
 New state    451 was old state    459
 New state    453 was old state    446
 New state    454 was old state    448
 New state    455 was old state    464
 New state    456 was old state    457
 New state    457 was old state    470
 New state    458 was old state    465
 New state    459 was old state    466
 New state    460 was old state    456
 New state    461 was old state    473
 New state    462 was old state    472
 New state    463 was old state    462
 New state    464 was old state    479
 New state    465 was old state    468
 New state    466 was old state    477
 New state    467 was old state    463
 New state    468 was old state    460
 New state    469 was old state    467
 New state    470 was old state    469
 New state    471 was old state    482
 New state    472 was old state    461
 New state    473 was old state    478
 New state    474 was old state    481
 New state    475 was old state    474
 New state    477 was old state    471
 New state    478 was old state    487
 New state    479 was old state    485
 New state    480 was old state    486
 New state    481 was old state    484
 New state    482 was old state    489
 New state    483 was old state    475
 New state    484 was old state    495
 New state    485 was old state    483
 New state    486 was old state    490
 New state    487 was old state    492
 No map to state    488
 New state    489 was old state    488
 New state    490 was old state    493
 New state    491 was old state    494
 New state    492 was old state    499
 New state    493 was old state    491
 New state    494 was old state    504
 New state    495 was old state    480
 New state    496 was old state    501
 New state    498 was old state    496
 New state    499 was old state    500
 New state    500 was old state    505
 New state    501 was old state    508
 New state    502 was old state    509
 New state    503 was old state    506
 New state    504 was old state    498
 New state    505 was old state    503
 New state    506 was old state    507
 New state    507 was old state    513
 New state    508 was old state    512
 New state    509 was old state    515
 New state    510 was old state    511
 New state    511 was old state    514
 New state    512 was old state    517
 New state    513 was old state    516
 New state    514 was old state    502
 New state    515 was old state    518
 New state    516 was old state    524
 New state    517 was old state    519
 New state    518 was old state    510
 New state    519 was old state    521
 New state    520 was old state    526
 New state    521 was old state    525
 New state    522 was old state    520
 New state    523 was old state    527
 New state    524 was old state    522
 New state    525 was old state    528
 New state    526 was old state    523
 New state    527 was old state    529
 No map to state    528
 New state    529 was old state    533
 New state    530 was old state    531
 New state    531 was old state    530
 New state    533 was old state    534
 New state    534 was old state    535
 No map to state    535
 New state    538 was old state    540
 New state    539 was old state    538
 New state    540 was old state    542
 New state    542 was old state    543
 New state    543 was old state    539
 New state    546 was old state    547
 New state    547 was old state    550
 New state    548 was old state    549
 New state    549 was old state    548
 New state    550 was old state    559
 New state    551 was old state    553
 New state    552 was old state    551
 New state    553 was old state    546
 New state    554 was old state    558
 New state    555 was old state    562
 New state    556 was old state    554
 New state    557 was old state    552
 New state    558 was old state    555
 New state    559 was old state    556
 New state    562 was old state    565
 New state    563 was old state    576
 New state    564 was old state    568
 New state    565 was old state    564
 New state    566 was old state    563
 New state    568 was old state    570
 New state    570 was old state    566
 New state    571 was old state    573
 New state    572 was old state    571
 New state    573 was old state    577
 New state    574 was old state    572
 New state    576 was old state    574
 New state    577 was old state    583
 New state    578 was old state    579
 New state    579 was old state    581
 New state    580 was old state    584
 New state    581 was old state    582
 New state    582 was old state    580
 New state    583 was old state    578
 New state    584 was old state    590
 New state    585 was old state    619
 New state    587 was old state    589
 New state    588 was old state    587
 New state    589 was old state    585
 New state    590 was old state    588
 New state    591 was old state    594
 New state    592 was old state    595
 New state    593 was old state    600
 New state    594 was old state    591
 New state    595 was old state    601
 New state    596 was old state    599
 New state    597 was old state    605
 New state    598 was old state    597
 New state    599 was old state    596
 New state    600 was old state    604
 New state    601 was old state    592
 New state    602 was old state    593
 New state    603 was old state    598
 New state    604 was old state    606
 New state    605 was old state    610
 New state    606 was old state    608
 New state    608 was old state    613
 New state    609 was old state    603
 New state    610 was old state    602
 New state    611 was old state    609
 New state    612 was old state    618
 New state    613 was old state    612
 New state    614 was old state    617
 New state    615 was old state    616
 New state    616 was old state    611
 New state    617 was old state    615
 New state    618 was old state    620
 New state    619 was old state    614
 New state    620 was old state    623
 New state    622 was old state    628
 New state    623 was old state    622
 New state    624 was old state    632
 New state    625 was old state    631
 New state    626 was old state    634
 New state    627 was old state    625
 New state    628 was old state    626
 New state    629 was old state    627
 New state    630 was old state    624
 New state    631 was old state    635
 New state    632 was old state    630
 New state    633 was old state    629
 New state    634 was old state    633
 New state    635 was old state    640
 New state    636 was old state    639
 New state    637 was old state    636
 New state    638 was old state    643
 New state    639 was old state    641
 New state    640 was old state    642
 New state    641 was old state    638
 New state    642 was old state    651
 New state    643 was old state    644
 New state    644 was old state    637
 New state    645 was old state    648
 New state    647 was old state    645
 New state    648 was old state    649
 New state    649 was old state    652
 New state    650 was old state    659
 New state    651 was old state    655
 New state    652 was old state    650
 New state    653 was old state    647
 New state    655 was old state    653
 New state    656 was old state    660
 New state    657 was old state    669
 New state    659 was old state    661
 New state    660 was old state    662
 New state    661 was old state    665
 New state    662 was old state    663
 New state    663 was old state    657
 New state    665 was old state    680
 New state    667 was old state    668
 New state    668 was old state    667
 New state    669 was old state    656
 New state    670 was old state    681
 New state    671 was old state    678
 New state    672 was old state    677
 New state    673 was old state    676
 New state    674 was old state    675
 New state    675 was old state    670
 New state    676 was old state    674
 New state    677 was old state    671
 New state    678 was old state    683
 New state    680 was old state    673
 New state    681 was old state    672
 New state    683 was old state    684
 New state    684 was old state    686
 New state    685 was old state    687
 New state    686 was old state    688
 New state    687 was old state    685
 New state    688 was old state    689
 New state    689 was old state    690
 New state    690 was old state    691
 New state    691 was old state    699
 New state    693 was old state    697
 New state    696 was old state    693
 New state    697 was old state    701
 New state    698 was old state    700
 New state    699 was old state    696
 New state    700 was old state    698
 New state    701 was old state    702
 New state    702 was old state    706
 New state    703 was old state    708
 New state    704 was old state    709
 New state    705 was old state    704
 New state    706 was old state    711
 New state    707 was old state    703
 New state    708 was old state    707
 New state    709 was old state    714
 New state    710 was old state    705
 New state    711 was old state    712
 New state    712 was old state    710
 No map to state    713
 New state    714 was old state    715
 New state    715 was old state    718
 New state    717 was old state    713
 New state    718 was old state    721
 New state    719 was old state    717
 New state    720 was old state    719
 New state    721 was old state    725
 New state    722 was old state    723
 New state    723 was old state    722
 New state    724 was old state    736
 New state    725 was old state    724
 New state    726 was old state    728
 New state    727 was old state    720
 New state    728 was old state    732
 New state    729 was old state    730
 New state    730 was old state    729
 New state    731 was old state    734
 New state    732 was old state    731
 New state    733 was old state    727
 New state    734 was old state    737
 New state    735 was old state    733
 New state    736 was old state    726
 New state    737 was old state    735
 New state    740 was old state    741
 New state    741 was old state    742
 New state    742 was old state    744
 New state    743 was old state    745
 New state    744 was old state    743
 New state    745 was old state    748
 New state    748 was old state    740
 New state    750 was old state    751
 New state    751 was old state    755
 New state    752 was old state    750
 New state    754 was old state    756
 New state    755 was old state    757
 New state    756 was old state    752
 New state    757 was old state    754
 New state    760 was old state    762
 New state    762 was old state    760
 New state    767 was old state    768
 New state    768 was old state    767
 New state    769 was old state    771
 New state    770 was old state    769
 New state    771 was old state    770
 New state    773 was old state    774
 New state    774 was old state    773
 New state    776 was old state    778
 New state    778 was old state    776
 New state    781 was old state    786
 New state    782 was old state    784
 New state    783 was old state    785
 New state    784 was old state    783
 New state    785 was old state    787
 New state    786 was old state    788
 New state    787 was old state    781
 New state    788 was old state    782
 New state    790 was old state    791
 New state    791 was old state    793
 New state    792 was old state    790
 New state    793 was old state    792
 New state    795 was old state    796
 New state    796 was old state    795
 New state    802 was old state    805
 New state    803 was old state    804
 New state    804 was old state    803
 New state    805 was old state    806
 New state    806 was old state    802
 New state    807 was old state    808
 New state    808 was old state    810
 New state    809 was old state    807
 New state    810 was old state    809
 New state    813 was old state    817
 New state    814 was old state    816
 New state    815 was old state    813
 New state    816 was old state    815
 New state    817 was old state    814
 New state    818 was old state    819
 New state    819 was old state    820
 New state    820 was old state    818
 New state    823 was old state    824
 New state    824 was old state    823
 New state    825 was old state    828
 New state    826 was old state    825
 New state    827 was old state    826
 New state    828 was old state    831
 New state    829 was old state    827
 New state    831 was old state    829
 New state    833 was old state    842
 New state    834 was old state    840
 New state    835 was old state    833
 New state    836 was old state    834
 New state    837 was old state    835
 New state    838 was old state    837
 New state    839 was old state    836
 New state    840 was old state    839
 New state    841 was old state    853
 New state    842 was old state    838
 New state    843 was old state    852
 New state    845 was old state    848
 New state    846 was old state    854
 New state    847 was old state    841
 New state    848 was old state    864
 New state    849 was old state    865
 New state    850 was old state    845
 New state    851 was old state    850
 New state    852 was old state    846
 New state    853 was old state    866
 New state    854 was old state    851
 New state    855 was old state    856
 New state    856 was old state    858
 New state    858 was old state    855
 New state    859 was old state    862
 New state    860 was old state    847
 New state    861 was old state    849
 New state    862 was old state    863
 New state    863 was old state    860
 New state    864 was old state    868
 No map to state    865
 New state    866 was old state    867
 New state    867 was old state    861
 New state    868 was old state    859
 New state    871 was old state    872
 New state    872 was old state    874
 New state    873 was old state    871
 New state    874 was old state    873
 New state    877 was old state    878
 New state    878 was old state    877
 New state    880 was old state    882
 New state    881 was old state    884
 New state    882 was old state    883
 New state    883 was old state    880
 New state    884 was old state    881
 New state    885 was old state    887
 New state    886 was old state    891
 New state    887 was old state    885
 New state    890 was old state    886
 New state    891 was old state    890
 New state    892 was old state    893
 New state    893 was old state    892
 New state    894 was old state    895
 New state    895 was old state    896
 New state    896 was old state    894
 New state    897 was old state    898
 New state    898 was old state    899
 New state    899 was old state    897
 Excitation Energies [eV] at current iteration:
 Root      1 :     8.956818091817242
 Root      2 :     9.275851917498585
 Root      3 :     9.822148538380709
 Root      4 :    10.149846415317870
 Root      5 :    10.281425922004160
 Root      6 :    10.481710519454690
 Root      7 :    10.613132811661770
 Root      8 :    10.784430011416000
 Root      9 :    10.816629000560330
 Root     10 :    11.035938163320130
 Root     11 :    11.424493544320000
 Root     12 :    11.552660600420500
 Root     13 :    11.587726126336460
 Root     14 :    11.625550248153750
 Root     15 :    11.673885911313090
 Root     16 :    11.704593968069030
 Root     17 :    11.929457139372090
 Root     18 :    12.059168326677410
 Root     19 :    12.325506491431150
 Root     20 :    12.413769546440360
 Root     21 :    12.442608686981750
 Root     22 :    12.558451509916350
 Root     23 :    12.572173476669140
 Root     24 :    12.617113104336140
 Root     25 :    12.742089925302060
 Root     26 :    12.801782548435630
 Root     27 :    12.811887870091620
 Root     28 :    12.881873023958730
 Root     29 :    13.141643447898210
 Root     30 :    13.150671375199530
 Root     31 :    13.170341469113930
 Root     32 :    13.234861302764400
 Root     33 :    13.258922484153380
 Root     34 :    13.379379404082910
 Root     35 :    13.428509162111590
 Root     36 :    13.462570640244400
 Root     37 :    13.627591363444420
 Root     38 :    13.757072742182290
 Root     39 :    13.837540212019650
 Root     40 :    13.907942281713420
 Root     41 :    14.002229019585910
 Root     42 :    14.007771033131560
 Root     43 :    14.046228062527900
 Root     44 :    14.074294961326570
 Root     45 :    14.238326289115670
 Root     46 :    14.278276300039470
 Root     47 :    14.397604530549180
 Root     48 :    14.486971186703940
 Root     49 :    14.561128602293210
 Root     50 :    14.632802445979200
 Root     51 :    14.761456437524650
 Root     52 :    14.862909849934490
 Root     53 :    14.868073643335180
 Root     54 :    14.902839776094530
 Root     55 :    14.920772668915250
 Root     56 :    15.083971677380590
 Root     57 :    15.085877399618380
 Root     58 :    15.145775226399150
 Root     59 :    15.224448157666720
 Root     60 :    15.237744598687710
 Root     61 :    15.368307674743000
 Root     62 :    15.378217115177580
 Root     63 :    15.427318439055120
 Root     64 :    15.474658273836880
 Root     65 :    15.509527604177460
 Root     66 :    15.586906244250280
 Root     67 :    15.650041751783620
 Root     68 :    15.679270380093530
 Root     69 :    15.701936021953730
 Root     70 :    15.782495281885630
 Root     71 :    16.028372156737580
 Root     72 :    16.117848227690710
 Root     73 :    16.130175985309690
 Root     74 :    16.179764149012380
 Root     75 :    16.251709108944440
 Root     76 :    16.252094737425160
 Root     77 :    16.312876904030030
 Root     78 :    16.388263877581270
 Root     79 :    16.454594529211630
 Root     80 :    16.463924346291830
 Root     81 :    16.505830733854400
 Root     82 :    16.539607489215260
 Root     83 :    16.593006282780160
 Root     84 :    16.620417722871850
 Root     85 :    16.688296575253850
 Root     86 :    16.750392829324210
 Root     87 :    16.772566395308400
 Root     88 :    16.985199402349160
 Root     89 :    17.052997549482460
 Root     90 :    17.130144551982940
 Root     91 :    17.220197445436710
 Root     92 :    17.251156766033880
 Root     93 :    17.300204065255420
 Root     94 :    17.335990920872620
 Root     95 :    17.381706093071010
 Root     96 :    17.411928544771470
 Root     97 :    17.453246846533340
 Root     98 :    17.531148305239310
 Root     99 :    17.563465742949870
 Root    100 :    17.605676238691590
 Root    101 :    17.642570511767260
 Root    102 :    17.670272789151280
 Root    103 :    17.693941218257310
 Root    104 :    17.721451503050530
 Root    105 :    17.846098542300610
 Root    106 :    17.862348558464990
 Root    107 :    17.899667202108470
 Root    108 :    17.918894838949390
 Root    109 :    17.937040650418780
 Root    110 :    18.019442807994610
 Root    111 :    18.053011361598220
 Root    112 :    18.058655378655170
 Root    113 :    18.124863701014260
 Root    114 :    18.204525816027320
 Root    115 :    18.216373850649900
 Root    116 :    18.279199202829520
 Root    117 :    18.292905556449360
 Root    118 :    18.365694274253670
 Root    119 :    18.380292192215420
 Root    120 :    18.420038425208960
 Root    121 :    18.489857548016190
 Root    122 :    18.522808629227580
 Root    123 :    18.604265311797320
 Root    124 :    18.606078092034950
 Root    125 :    18.741351898742480
 Root    126 :    18.787623238120710
 Root    127 :    18.866864220575030
 Root    128 :    18.881989707893150
 Root    129 :    18.997126328451910
 Root    130 :    18.999759893327180
 Root    131 :    19.048927813219280
 Root    132 :    19.207777196619850
 Root    133 :    19.231246660979310
 Root    134 :    19.240397473073140
 Root    135 :    19.293354541116830
 Root    136 :    19.307108307026210
 Root    137 :    19.323500451895280
 Root    138 :    19.389861168192140
 Root    139 :    19.394492824384780
 Root    140 :    19.466415462568410
 Root    141 :    19.474055597798610
 Root    142 :    19.584967824995740
 Root    143 :    19.609899440136870
 Root    144 :    19.691512183729850
 Root    145 :    19.693530608182130
 Root    146 :    19.749906940914110
 Root    147 :    19.751573948360560
 Root    148 :    19.847179539890930
 Root    149 :    19.897828189317450
 Root    150 :    19.934560426719040
 Root    151 :    19.951712549800440
 Root    152 :    20.020925982576900
 Root    153 :    20.065677771025780
 Root    154 :    20.099081176556190
 Root    155 :    20.241942814003590
 Root    156 :    20.259694216999310
 Root    157 :    20.273643190842620
 Root    158 :    20.306519272961070
 Root    159 :    20.332555323764000
 Root    160 :    20.450868704579850
 Root    161 :    20.493892832719460
 Root    162 :    20.567307677605240
 Root    163 :    20.596813155874950
 Root    164 :    20.621000176001140
 Root    165 :    20.674118396385130
 Root    166 :    20.698666929981300
 Root    167 :    20.762897596083610
 Root    168 :    20.814397737808740
 Root    169 :    20.858093060714460
 Root    170 :    20.861816882593960
 Root    171 :    20.915424173363010
 Root    172 :    20.976415871484130
 Root    173 :    21.021887030126300
 Root    174 :    21.076397396998190
 Root    175 :    21.097271653431120
 Root    176 :    21.151782734856120
 Root    177 :    21.163021112397030
 Root    178 :    21.229802598488830
 Root    179 :    21.244159045708350
 Root    180 :    21.286759020738960
 Root    181 :    21.297309133557690
 Root    182 :    21.370721960019580
 Root    183 :    21.398076328097660
 Root    184 :    21.425905091460200
 Root    185 :    21.471485287938470
 Root    186 :    21.472137143869170
 Root    187 :    21.592401236342230
 Root    188 :    21.693683158572720
 Root    189 :    21.704821581577680
 Root    190 :    21.741049858742770
 Root    191 :    21.814064054221530
 Root    192 :    21.867249597398080
 Root    193 :    21.885713358222850
 Root    194 :    21.963155422316490
 Root    195 :    22.059677633462810
 Root    196 :    22.073823344954650
 Root    197 :    22.156937105741410
 Root    198 :    22.193318439139920
 Root    199 :    22.220612425544810
 Root    200 :    22.241416231661070
 Root    201 :    22.248391518601240
 Root    202 :    22.259942396355980
 Root    203 :    22.359108918912730
 Root    204 :    22.377880515279550
 Root    205 :    22.382632183512590
 Root    206 :    22.440642908888670
 Root    207 :    22.457786387988670
 Root    208 :    22.499853883119260
 Root    209 :    22.549357399490300
 Root    210 :    22.583370127103980
 Root    211 :    22.637478319055070
 Root    212 :    22.639239978406010
 Root    213 :    22.694372526209670
 Root    214 :    22.744632498689850
 Root    215 :    22.770708928883690
 Root    216 :    22.843954810959290
 Root    217 :    22.855559168594680
 Root    218 :    22.885389207633720
 Root    219 :    22.912937830995600
 Root    220 :    22.929045269501730
 Root    221 :    22.930344032936580
 Root    222 :    23.016590622628680
 Root    223 :    23.048034872739360
 Root    224 :    23.071435250101710
 Root    225 :    23.087521054782880
 Root    226 :    23.113222459662450
 Root    227 :    23.157628863900230
 Root    228 :    23.183811238330520
 Root    229 :    23.303323752251250
 Root    230 :    23.318295769020530
 Root    231 :    23.378869605739190
 Root    232 :    23.478034359440940
 Root    233 :    23.493187176513110
 Root    234 :    23.546973090706530
 Root    235 :    23.595043783005070
 Root    236 :    23.649698334168920
 Root    237 :    23.676437027742360
 Root    238 :    23.687898272558350
 Root    239 :    23.714755597079720
 Root    240 :    23.787018865520020
 Root    241 :    23.847895961608300
 Root    242 :    23.876822059984020
 Root    243 :    24.007986110911850
 Root    244 :    24.073496307958710
 Root    245 :    24.095192502593250
 Root    246 :    24.139247614126150
 Root    247 :    24.196493645788030
 Root    248 :    24.283319518242540
 Root    249 :    24.284054925905350
 Root    250 :    24.340461045371470
 Root    251 :    24.341522389683230
 Root    252 :    24.371919336264570
 Root    253 :    24.456342510633000
 Root    254 :    24.685278652374180
 Root    255 :    24.692464513122120
 Root    256 :    24.752279775432230
 Root    257 :    24.757971566985960
 Root    258 :    24.822181534436750
 Root    259 :    24.858114746789410
 Root    260 :    24.956317883145310
 Root    261 :    25.070471748973620
 Root    262 :    25.094743127397870
 Root    263 :    25.115770821835510
 Root    264 :    25.192530171862760
 Root    265 :    25.242867386632460
 Root    266 :    25.275665559045080
 Root    267 :    25.339410813908940
 Root    268 :    25.374868676640600
 Root    269 :    25.413990303672190
 Root    270 :    25.467861004985400
 Root    271 :    25.518874158542050
 Root    272 :    25.566283011859980
 Root    273 :    25.608727084726730
 Root    274 :    25.738922431658820
 Root    275 :    25.790186366068090
 Root    276 :    25.824913848706800
 Root    277 :    25.894092424998320
 Root    278 :    25.931738183852480
 Root    279 :    26.064536282980250
 Root    280 :    26.182360895624600
 Root    281 :    26.194699026472240
 Root    282 :    26.228452904817230
 Root    283 :    26.313811704750710
 Root    284 :    26.371177468292460
 Root    285 :    26.393306008008320
 Root    286 :    26.455141075323960
 Root    287 :    26.478411511576820
 Root    288 :    26.535967809526160
 Root    289 :    26.568278588057880
 Root    290 :    26.639085279987660
 Root    291 :    26.778209537130540
 Root    292 :    26.878334486245240
 Root    293 :    26.881437494399390
 Root    294 :    26.988727324414330
 Root    295 :    26.988896304973700
 Root    296 :    27.029702350723250
 Root    297 :    27.116642581504580
 Root    298 :    27.170204981298230
 Root    299 :    27.170771382490500
 Root    300 :    27.318981757657730
 Root    301 :    27.359550319595350
 Root    302 :    27.391711128014430
 Root    303 :    27.391804764927350
 Root    304 :    27.530460956766700
 Root    305 :    27.642091793214000
 Root    306 :    27.666760712634570
 Root    307 :    27.748545319152160
 Root    308 :    27.987722315832600
 Root    309 :    28.002099232307500
 Root    310 :    28.063582684953300
 Root    311 :    28.215176348075860
 Root    312 :    28.257364298137560
 Root    313 :    28.359942623886780
 Root    314 :    28.606175320584520
 Root    315 :    28.661698305024960
 Root    316 :    28.808622162395230
 Root    317 :    28.959231484213240
 Root    318 :    29.026172611362420
 Root    319 :    29.275702866118170
 Root    320 :    29.306696565586230
 Root    321 :    29.392778854342780
 Root    322 :    29.410801856693900
 Root    323 :    29.542556430419940
 Root    324 :    29.634106703410610
 Root    325 :    29.661706815180900
 Root    326 :    29.678511393447950
 Root    327 :    29.754001479745900
 Root    328 :    29.783053391857570
 Root    329 :    29.874725216193950
 Root    330 :    29.884674028880140
 Root    331 :    30.031169195221870
 Root    332 :    30.051066591983970
 Root    333 :    30.322634287922110
 Root    334 :    30.430874208694600
 Root    335 :    30.464699395871640
 Root    336 :    30.532862226469370
 Root    337 :    30.617608454538580
 Root    338 :    30.716624654794310
 Root    339 :    30.814136898479430
 Root    340 :    30.818155526608220
 Root    341 :    30.883438444341200
 Root    342 :    30.946962187923760
 Root    343 :    30.954496754252790
 Root    344 :    31.151878848075210
 Root    345 :    31.229385657651210
 Root    346 :    31.372126758500050
 Root    347 :    31.455518803758240
 Root    348 :    31.456845640156430
 Root    349 :    31.559859094238740
 Root    350 :    31.613129969582420
 Root    351 :    31.662903276991890
 Root    352 :    31.868297898119650
 Root    353 :    31.877693443196620
 Root    354 :    32.025844019138090
 Root    355 :    32.040530672715580
 Root    356 :    32.083217732935480
 Root    357 :    32.365157417869130
 Root    358 :    32.523713855760850
 Root    359 :    32.545813779170440
 Root    360 :    32.663646743109280
 Root    361 :    32.683233620691100
 Root    362 :    32.692318003806580
 Root    363 :    32.733990400622570
 Root    364 :    32.756922234220820
 Root    365 :    32.764958516988730
 Root    366 :    32.889804824809990
 Root    367 :    32.934105797573290
 Root    368 :    32.996577295244090
 Root    369 :    33.018091688654490
 Root    370 :    33.114850561690220
 Root    371 :    33.267378942579380
 Root    372 :    33.434227975120150
 Root    373 :    33.542800785875160
 Root    374 :    33.550942594331800
 Root    375 :    33.606395706980730
 Root    376 :    33.640063453315040
 Root    377 :    33.695502198895570
 Root    378 :    33.706324495407240
 Root    379 :    33.841546516739510
 Root    380 :    33.876611580671230
 Root    381 :    34.009714681817920
 Root    382 :    34.061832173805190
 Root    383 :    34.103288457504990
 Root    384 :    34.140588926639820
 Root    385 :    34.275331521295290
 Root    386 :    34.442556683882710
 Root    387 :    34.463694984917890
 Root    388 :    34.512884171394420
 Root    389 :    34.582037172711920
 Root    390 :    34.632105188502780
 Root    391 :    34.696946746518630
 Root    392 :    34.704763742343550
 Root    393 :    34.742105823543160
 Root    394 :    34.763457982761100
 Root    395 :    34.859244181145480
 Root    396 :    34.866117543193460
 Root    397 :    35.010213642201800
 Root    398 :    35.015922921925200
 Root    399 :    35.016734456702730
 Root    400 :    35.194528767581370
 Root    401 :    35.201598801624770
 Root    402 :    35.253284663142630
 Root    403 :    35.306539739294310
 Root    404 :    35.335202277951060
 Root    405 :    35.344268135077560
 Root    406 :    35.530446865065270
 Root    407 :    35.531938060678460
 Root    408 :    35.663197283878340
 Root    409 :    35.705367736525450
 Root    410 :    35.818760465594050
 Root    411 :    36.011956543416880
 Root    412 :    36.052010436332580
 Root    413 :    36.103812112144640
 Root    414 :    36.213764715633110
 Root    415 :    36.242983220460950
 Root    416 :    36.260248548559440
 Root    417 :    36.375416304341100
 Root    418 :    36.455887311714190
 Root    419 :    36.546556210124930
 Root    420 :    36.645814600925010
 Root    421 :    36.861383562984860
 Root    422 :    36.930846225525240
 Root    423 :    36.977143279409730
 Root    424 :    36.992037407564030
 Root    425 :    36.996963462936510
 Root    426 :    37.054533917693510
 Root    427 :    37.151883211016500
 Root    428 :    37.170839871408560
 Root    429 :    37.450827594395190
 Root    430 :    37.572214004953350
 Root    431 :    37.579614054478860
 Root    432 :    37.678707141537970
 Root    433 :    37.727024333712760
 Root    434 :    37.875160725836520
 Root    435 :    37.899751948376360
 Root    436 :    37.998386966684680
 Root    437 :    38.116798519294260
 Root    438 :    38.151789527957530
 Root    439 :    38.216838660490070
 Root    440 :    38.282289047851220
 Root    441 :    38.391030510890840
 Root    442 :    38.470250280953050
 Root    443 :    38.556212633460350
 Root    444 :    38.719071576519560
 Root    445 :    38.763418128026680
 Root    446 :    38.774558485322750
 Root    447 :    38.967111543766970
 Root    448 :    39.118445573001770
 Root    449 :    39.246025229569140
 Root    450 :    39.288507966129020
 Root    451 :    39.311296731085510
 Root    452 :    39.417086751505020
 Root    453 :    39.485077967386000
 Root    454 :    39.505969723487210
 Root    455 :    39.620233247863130
 Root    456 :    39.821047789235200
 Root    457 :    39.934174129825770
 Root    458 :    39.982209165116100
 Root    459 :    40.085101206743500
 Root    460 :    40.101906612116630
 Root    461 :    40.167785954297340
 Root    462 :    40.201682919878890
 Root    463 :    40.248954931661570
 Root    464 :    40.444171148191150
 Root    465 :    40.463730638686090
 Root    466 :    40.554707013257470
 Root    467 :    40.577459684622010
 Root    468 :    40.648739019550190
 Root    469 :    40.693878883049140
 Root    470 :    40.743879451877650
 Root    471 :    40.785347525292640
 Root    472 :    40.990801826006610
 Root    473 :    41.079904087250530
 Root    474 :    41.155259842884900
 Root    475 :    41.270574127841310
 Root    476 :    41.398178618665960
 Root    477 :    41.502427033739520
 Root    478 :    41.594319108322220
 Root    479 :    41.690054129693150
 Root    480 :    41.847404013029780
 Root    481 :    42.000748857574710
 Root    482 :    42.069051647238840
 Root    483 :    42.098315100509260
 Root    484 :    42.121614379213360
 Root    485 :    42.193627532165660
 Root    486 :    42.211608338443950
 Root    487 :    42.235611974520000
 Root    488 :    42.252109149463810
 Root    489 :    42.295573397477830
 Root    490 :    42.321083639861530
 Root    491 :    42.362807331790900
 Root    492 :    42.459258588440870
 Root    493 :    42.630323112295590
 Root    494 :    42.785282400946510
 Root    495 :    42.888503428991900
 Root    496 :    43.043016940494830
 Root    497 :    43.148932934933120
 Root    498 :    43.216475162309250
 Root    499 :    43.263511178073480
 Root    500 :    43.412385080697350
 Root    501 :    43.463233375214110
 Root    502 :    43.497659931994440
 Root    503 :    43.653769062305420
 Root    504 :    43.932465754035260
 Root    505 :    43.935261338338830
 Root    506 :    43.995173637878270
 Root    507 :    44.110741342023070
 Root    508 :    44.111889379624760
 Root    509 :    44.371984811567420
 Root    510 :    44.617646738140780
 Root    511 :    44.669283162668680
 Root    512 :    44.762996304266160
 Root    513 :    44.881283752023680
 Root    514 :    45.054035695796860
 Root    515 :    45.184439165873510
 Root    516 :    45.231574572480070
 Root    517 :    45.386854900587430
 Root    518 :    45.460466012588920
 Root    519 :    45.635673105557360
 Root    520 :    45.684138263002670
 Root    521 :    45.761029720040910
 Root    522 :    45.988272425605110
 Root    523 :    46.151547518835390
 Root    524 :    46.231308856373700
 Root    525 :    46.338083716785790
 Root    526 :    46.345032585452000
 Root    527 :    46.456925687262810
 Root    528 :    46.605984076652230
 Root    529 :    46.792975334941180
 Root    530 :    46.897220640901510
 Root    531 :    46.981875294048930
 Root    532 :    47.039956071938770
 Root    533 :    47.211548828737390
 Root    534 :    47.994886883628480
 Root    535 :    48.930167470948890
 Root    536 :    49.648164309855440
 Root    537 :    49.651903443060040
 Root    538 :    49.794663590175140
 Root    539 :    50.122542837965010
 Root    540 :    50.292800079798550
 Root    541 :    50.576214533978220
 Root    542 :    50.622871793674060
 Root    543 :    50.705636725542860
 Root    544 :    50.731449201386820
 Root    545 :    51.300899484956820
 Root    546 :    51.355825336440590
 Root    547 :    51.436855432906480
 Root    548 :    51.756694755933690
 Root    549 :    51.779446234251700
 Root    550 :    52.064110927541020
 Root    551 :    52.075585303225110
 Root    552 :    52.192517423004150
 Root    553 :    52.229460829043330
 Root    554 :    52.426087503547840
 Root    555 :    52.732914546084360
 Root    556 :    52.754032302106980
 Root    557 :    53.062708162803640
 Root    558 :    53.245305956166920
 Root    559 :    53.300040352268910
 Root    560 :    53.331593257543730
 Root    561 :    53.386186434560580
 Root    562 :    53.497334298388510
 Root    563 :    53.745832230061300
[...]
     14  -0.464710D+00  0.462899D+00  0.000000D+00  0.000000D+00  0.000000D+00
     15   0.000000D+00  0.000000D+00  0.264982D-01  0.572445D+00  0.339917D+00
     16   0.000000D+00  0.000000D+00 -0.312567D-03 -0.159338D+00  0.941420D-01
               831           832           833           834           835 
      1  -0.175280D+03 -0.175277D+03 -0.175263D+03 -0.175262D+03 -0.175252D+03
      2   0.387207D-01  0.115299D-01  0.470814D-01  0.000000D+00  0.299625D-01
      3  -0.229271D-03  0.279476D-01 -0.808827D-02  0.000000D+00  0.380492D-02
      4   0.000000D+00  0.000000D+00  0.000000D+00  0.233783D-02  0.000000D+00
      5  -0.113662D+00 -0.325510D-01 -0.150239D+00  0.000000D+00 -0.119433D+00
      6  -0.805373D-02 -0.747736D-01  0.235436D-01  0.000000D+00  0.246790D-01
      7   0.000000D+00  0.000000D+00  0.000000D+00 -0.734156D-02  0.000000D+00
      8   0.000000D+00  0.000000D+00  0.000000D+00  0.565277D-01  0.000000D+00
      9   0.000000D+00  0.000000D+00  0.000000D+00 -0.566489D-01  0.000000D+00
     10  -0.250740D+00  0.534835D-01 -0.213424D-01  0.000000D+00  0.214384D+00
     11   0.240287D+00 -0.411615D+00 -0.471515D+00  0.000000D+00 -0.308597D+00
     12   0.189939D+00 -0.728192D-01 -0.111988D+00  0.000000D+00 -0.520450D-01
     13  -0.246317D-01 -0.680766D-01 -0.966635D-01  0.000000D+00  0.283215D+00
     14   0.928708D-01 -0.299618D+00  0.113946D+00  0.000000D+00  0.389360D+00
     15   0.000000D+00  0.000000D+00  0.000000D+00  0.588031D-01  0.000000D+00
     16   0.000000D+00  0.000000D+00  0.000000D+00  0.904750D-01  0.000000D+00
               836           837           838           839           840 
      1  -0.175239D+03 -0.175238D+03 -0.175214D+03 -0.175194D+03 -0.175186D+03
      2   0.000000D+00 -0.314644D-01  0.000000D+00  0.264998D-01  0.620084D-01
      3   0.000000D+00 -0.291785D-01  0.000000D+00 -0.963657D-02  0.170696D-03
      4  -0.248227D-01  0.000000D+00  0.698585D-01  0.000000D+00  0.000000D+00
      5   0.000000D+00  0.874581D-01  0.000000D+00 -0.851410D-01 -0.167671D+00
      6   0.000000D+00  0.958768D-01  0.000000D+00  0.415380D-01  0.152786D-01
      7   0.736365D-01  0.000000D+00 -0.204195D+00  0.000000D+00  0.000000D+00
      8   0.118230D+00  0.000000D+00  0.164043D-01  0.000000D+00  0.000000D+00
      9  -0.121687D+00  0.000000D+00 -0.231895D+00  0.000000D+00  0.000000D+00
     10   0.000000D+00  0.231417D+00  0.000000D+00  0.366038D-01 -0.268792D+00
     11   0.000000D+00  0.394315D+00  0.000000D+00 -0.740011D-01  0.387996D+00
     12   0.000000D+00  0.375688D+00  0.000000D+00 -0.607279D-01 -0.336859D+00
     13   0.000000D+00  0.637817D-01  0.000000D+00  0.105385D+00  0.617473D-01
     14   0.000000D+00  0.231138D+00  0.000000D+00  0.648820D-01 -0.907505D-02
     15   0.104006D+00  0.000000D+00  0.277157D+00  0.000000D+00  0.000000D+00
     16   0.170196D+00  0.000000D+00 -0.446705D-01  0.000000D+00  0.000000D+00
               841           842           843           844           845 
      1  -0.175164D+03 -0.175161D+03 -0.175153D+03 -0.175152D+03 -0.175137D+03
      2   0.000000D+00 -0.299250D-01 -0.769907D-01  0.000000D+00  0.000000D+00
      3   0.000000D+00 -0.191061D-01 -0.123798D+00  0.000000D+00  0.000000D+00
      4   0.155182D-01  0.000000D+00  0.000000D+00  0.168760D+00 -0.150240D+00
      5   0.000000D+00  0.110001D+00  0.250874D+00  0.000000D+00  0.000000D+00
      6   0.000000D+00  0.980504D-01  0.406196D+00  0.000000D+00  0.000000D+00
      7  -0.549546D-01  0.000000D+00  0.000000D+00 -0.578682D+00  0.511458D+00
      8  -0.679216D-01  0.000000D+00  0.000000D+00  0.168356D+00  0.145455D+00
      9   0.253135D+00  0.000000D+00  0.000000D+00  0.103658D+01 -0.148198D+01
     10   0.000000D+00  0.696694D+00  0.794047D+00  0.000000D+00  0.000000D+00
     11   0.000000D+00  0.526331D+00  0.955515D+00  0.000000D+00  0.000000D+00
     12   0.000000D+00  0.119446D+00  0.489886D-01  0.000000D+00  0.000000D+00
     13   0.000000D+00  0.168094D-01 -0.883917D-01  0.000000D+00  0.000000D+00
     14   0.000000D+00  0.727700D+00  0.728506D+00  0.000000D+00  0.000000D+00
     15  -0.264799D+00  0.000000D+00  0.000000D+00 -0.963270D+00  0.146241D+01
     16  -0.669856D-01  0.000000D+00  0.000000D+00  0.775957D-01  0.684956D-01
               846           847           848           849           850 
      1  -0.175134D+03 -0.175128D+03 -0.175115D+03 -0.175110D+03 -0.175080D+03
      2   0.000000D+00 -0.628504D-01  0.343422D-01  0.000000D+00  0.000000D+00
      3   0.000000D+00 -0.195195D+00  0.126651D+00  0.000000D+00  0.000000D+00
      4  -0.115368D+00  0.000000D+00  0.000000D+00 -0.161981D-01  0.126677D-01
      5   0.000000D+00  0.213822D+00 -0.115438D+00  0.000000D+00  0.000000D+00
      6   0.000000D+00  0.660550D+00 -0.430041D+00  0.000000D+00  0.000000D+00
      7   0.398397D+00  0.000000D+00  0.000000D+00  0.517509D-01 -0.288172D-01
      8  -0.143370D+00  0.000000D+00  0.000000D+00  0.133161D+00 -0.416546D-01
      9  -0.744953D+00  0.000000D+00  0.000000D+00 -0.219126D+00 -0.105383D+00
     10   0.000000D+00  0.133171D+01 -0.679272D+00  0.000000D+00  0.000000D+00
     11   0.000000D+00  0.765821D+00 -0.743230D+00  0.000000D+00  0.000000D+00
     12   0.000000D+00  0.356771D-01  0.250540D+00  0.000000D+00  0.000000D+00
     13   0.000000D+00 -0.161590D-01 -0.130853D+00  0.000000D+00  0.000000D+00
     14   0.000000D+00  0.124568D+01 -0.673035D+00  0.000000D+00  0.000000D+00
     15   0.665742D+00  0.000000D+00  0.000000D+00  0.897762D-01  0.180971D+00
     16   0.261994D-01  0.000000D+00  0.000000D+00  0.144629D-01 -0.849997D-01
               851           852           853           854           855 
      1  -0.175071D+03 -0.175068D+03 -0.175059D+03 -0.175056D+03 -0.175045D+03
      2   0.000000D+00  0.716738D-02  0.000000D+00  0.101168D-01  0.224366D-01
      3   0.000000D+00  0.127608D-01  0.000000D+00  0.530256D-01 -0.342452D-01
      4  -0.523497D-01  0.000000D+00  0.488883D-01  0.000000D+00  0.000000D+00
      5   0.000000D+00 -0.419509D-01  0.000000D+00 -0.307281D-01 -0.792369D-01
      6   0.000000D+00 -0.501240D-01  0.000000D+00 -0.167397D+00  0.867873D-01
      7   0.176657D+00  0.000000D+00 -0.157132D+00  0.000000D+00  0.000000D+00
      8  -0.124497D+00  0.000000D+00  0.260307D-01  0.000000D+00  0.000000D+00
      9  -0.884006D-01  0.000000D+00  0.370487D+00  0.000000D+00  0.000000D+00
     10   0.000000D+00 -0.133488D+00  0.000000D+00 -0.271665D+00 -0.511239D+00
     11   0.000000D+00 -0.291543D+00  0.000000D+00 -0.935921D-01  0.322168D+00
     12   0.000000D+00  0.145137D+00  0.000000D+00  0.610209D-01 -0.137389D+00
     13   0.000000D+00  0.105067D+00  0.000000D+00 -0.175682D-01  0.131397D+00
     14   0.000000D+00 -0.157094D+00  0.000000D+00 -0.316789D+00 -0.393225D+00
     15   0.243321D-01  0.000000D+00 -0.290525D+00  0.000000D+00  0.000000D+00
     16  -0.846205D-01  0.000000D+00  0.508771D-02  0.000000D+00  0.000000D+00
               856           857           858           859           860 
      1  -0.175036D+03 -0.175033D+03 -0.175018D+03 -0.174992D+03 -0.174981D+03
      2   0.000000D+00 -0.274737D-01 -0.194005D+00  0.000000D+00 -0.695662D-02
      3   0.000000D+00 -0.483260D-01  0.865476D-01  0.000000D+00 -0.946196D-02
      4   0.186832D-01  0.000000D+00  0.000000D+00 -0.839477D-01  0.000000D+00
      5   0.000000D+00  0.907398D-01  0.681330D+00  0.000000D+00  0.233543D-01
      6   0.000000D+00  0.161484D+00 -0.305691D+00  0.000000D+00  0.347120D-01
      7  -0.491741D-01  0.000000D+00  0.000000D+00  0.254821D+00  0.000000D+00
      8   0.399006D-01  0.000000D+00  0.000000D+00  0.111480D-01  0.000000D+00
      9   0.189905D+00  0.000000D+00  0.000000D+00  0.274550D+00  0.000000D+00
     10   0.000000D+00  0.655070D+00 -0.510452D+00  0.000000D+00  0.143020D+00
     11   0.000000D+00  0.204286D+00  0.357900D+01  0.000000D+00 -0.648874D-01
     12   0.000000D+00  0.194713D-01  0.214674D+00  0.000000D+00 -0.199995D+00
     13   0.000000D+00 -0.416573D-01 -0.595169D-01  0.000000D+00  0.102103D+00
     14   0.000000D+00  0.515816D+00 -0.101992D+01  0.000000D+00  0.918815D-01
     15  -0.108333D+00  0.000000D+00  0.000000D+00 -0.243864D+00  0.000000D+00
     16   0.291300D-01  0.000000D+00  0.000000D+00  0.542533D-01  0.000000D+00
               861           862           863           864           865 
      1  -0.174979D+03 -0.174972D+03 -0.174969D+03 -0.174967D+03 -0.174962D+03
      2   0.000000D+00  0.000000D+00 -0.123491D+00  0.000000D+00  0.000000D+00
      3   0.000000D+00  0.000000D+00  0.591657D-01  0.000000D+00  0.000000D+00
      4   0.606395D-01 -0.122030D-02  0.000000D+00 -0.450742D-01 -0.249057D-01
      5   0.000000D+00  0.000000D+00  0.457807D+00  0.000000D+00  0.000000D+00
      6   0.000000D+00  0.000000D+00 -0.214601D+00  0.000000D+00  0.000000D+00
      7  -0.202304D+00  0.110985D-02  0.000000D+00  0.158001D+00  0.104417D+00
      8  -0.164270D-01  0.389741D-01  0.000000D+00 -0.341075D-02 -0.308294D-01
      9   0.221370D+00 -0.797528D-01  0.000000D+00 -0.427523D+00 -0.292198D+00
     10   0.000000D+00  0.000000D+00 -0.221214D+00  0.000000D+00  0.000000D+00
     11   0.000000D+00  0.000000D+00  0.219862D+01  0.000000D+00  0.000000D+00
     12   0.000000D+00  0.000000D+00  0.201982D+00  0.000000D+00  0.000000D+00
     13   0.000000D+00  0.000000D+00  0.545752D-01  0.000000D+00  0.000000D+00
     14   0.000000D+00  0.000000D+00 -0.559388D+00  0.000000D+00  0.000000D+00
     15  -0.216092D+00  0.782489D-01  0.000000D+00  0.388345D+00  0.365803D+00
     16   0.856295D-01 -0.213552D-01  0.000000D+00  0.825981D-01 -0.699739D-01
               866           867           868           869           870 
      1  -0.174961D+03 -0.174928D+03 -0.174917D+03 -0.174903D+03 -0.174889D+03
      2  -0.907535D-02  0.205333D+00  0.000000D+00  0.185257D-01 -0.317654D-01
      3  -0.490968D-01 -0.306828D-01  0.000000D+00  0.203143D+00  0.207425D-01
      4   0.000000D+00  0.000000D+00 -0.174387D+00  0.000000D+00  0.000000D+00
      5   0.401362D-01 -0.743107D+00  0.000000D+00 -0.623870D-01  0.127422D+00
      6   0.176149D+00  0.123453D+00  0.000000D+00 -0.731860D+00 -0.738807D-01
      7   0.000000D+00  0.000000D+00  0.605428D+00  0.000000D+00  0.000000D+00
      8   0.000000D+00  0.000000D+00 -0.111995D+00  0.000000D+00  0.000000D+00
      9   0.000000D+00  0.000000D+00 -0.141635D+01  0.000000D+00  0.000000D+00
     10   0.316704D+00  0.178807D+00  0.000000D+00 -0.174286D+01 -0.173515D-01
     11   0.135014D+00 -0.333045D+01  0.000000D+00  0.661779D-01  0.738618D+00
     12  -0.536271D-01 -0.880311D-01  0.000000D+00  0.323899D+00 -0.228603D+00
     13   0.379488D-02 -0.224500D-01  0.000000D+00  0.254656D-01 -0.157426D-01
     14   0.353459D+00  0.454433D+00  0.000000D+00 -0.163766D+01 -0.457179D-01
     15   0.000000D+00  0.000000D+00  0.142581D+01  0.000000D+00  0.000000D+00
     16   0.000000D+00  0.000000D+00 -0.123255D+00  0.000000D+00  0.000000D+00
               871           872           873           874           875 
      1  -0.174877D+03 -0.174873D+03 -0.174866D+03 -0.174853D+03 -0.174819D+03
      2  -0.113524D+00  0.000000D+00  0.000000D+00  0.164368D+00  0.281928D-01
      3   0.111813D+00  0.000000D+00  0.000000D+00  0.225075D+00  0.444062D-01
      4   0.000000D+00  0.978563D-01 -0.291934D+00  0.000000D+00  0.000000D+00
      5   0.422563D+00  0.000000D+00  0.000000D+00 -0.594946D+00 -0.982612D-01
      6  -0.411184D+00  0.000000D+00  0.000000D+00 -0.807022D+00 -0.154877D+00
      7   0.000000D+00 -0.353458D+00  0.105043D+01  0.000000D+00  0.000000D+00
      8   0.000000D+00  0.766220D-01 -0.240684D+00  0.000000D+00  0.000000D+00
      9   0.000000D+00  0.901946D+00 -0.241985D+01  0.000000D+00  0.000000D+00
     10  -0.970815D+00  0.000000D+00  0.000000D+00 -0.202288D+01 -0.422430D+00
     11   0.182813D+01  0.000000D+00  0.000000D+00 -0.321371D+01 -0.483857D+00
     12   0.148466D+00  0.000000D+00  0.000000D+00  0.483289D+00  0.306591D+00
     13   0.921350D-01  0.000000D+00  0.000000D+00  0.334528D-02 -0.204602D+00
     14  -0.109535D+01  0.000000D+00  0.000000D+00 -0.199544D+01 -0.293005D+00
     15   0.000000D+00 -0.892892D+00  0.261518D+01  0.000000D+00  0.000000D+00
     16   0.000000D+00  0.417708D-01 -0.314512D+00  0.000000D+00  0.000000D+00
               876           877           878           879           880 
      1  -0.174818D+03 -0.174745D+03 -0.174734D+03 -0.174727D+03 -0.174691D+03
      2   0.000000D+00  0.000000D+00  0.434697D-01 -0.293011D-01  0.000000D+00
      3   0.000000D+00  0.000000D+00  0.574166D-01 -0.460820D-01  0.000000D+00
      4  -0.348871D-01  0.407906D-01  0.000000D+00  0.000000D+00 -0.365248D+00
      5   0.000000D+00  0.000000D+00 -0.154522D+00  0.109785D+00  0.000000D+00
      6   0.000000D+00  0.000000D+00 -0.207411D+00  0.182220D+00  0.000000D+00
      7   0.116997D+00 -0.163392D+00  0.000000D+00  0.000000D+00  0.136232D+01
      8   0.149197D-01  0.306381D-01  0.000000D+00  0.000000D+00 -0.146776D+00
      9  -0.233577D+00  0.350236D+00  0.000000D+00  0.000000D+00 -0.291141D+01
     10   0.000000D+00  0.000000D+00 -0.410693D+00  0.540406D+00  0.000000D+00
     11   0.000000D+00  0.000000D+00 -0.499768D+00  0.615680D+00  0.000000D+00
     12   0.000000D+00  0.000000D+00 -0.166678D+00 -0.165849D+00  0.000000D+00
     13   0.000000D+00  0.000000D+00  0.829592D-01  0.871232D-01  0.000000D+00
     14   0.000000D+00  0.000000D+00 -0.372210D+00  0.496481D+00  0.000000D+00
     15   0.139779D+00 -0.192865D+00  0.000000D+00  0.000000D+00  0.312307D+01
     16  -0.197310D+00 -0.263710D-01  0.000000D+00  0.000000D+00 -0.347707D+00
               881           882           883           884           885 
      1  -0.174686D+03 -0.174668D+03 -0.174657D+03 -0.174652D+03 -0.174606D+03
      2  -0.159148D+00  0.000000D+00 -0.125993D-01  0.000000D+00  0.000000D+00
      3  -0.332238D+00  0.000000D+00 -0.315992D-01  0.000000D+00  0.000000D+00
      4   0.000000D+00 -0.299137D-01  0.000000D+00  0.161738D-01 -0.144797D+00
      5   0.594045D+00  0.000000D+00  0.423570D-01  0.000000D+00  0.000000D+00
      6   0.124101D+01  0.000000D+00  0.117962D+00  0.000000D+00  0.000000D+00
      7   0.000000D+00  0.112658D+00  0.000000D+00 -0.675158D-01  0.554589D+00
      8   0.000000D+00 -0.936467D-01  0.000000D+00  0.174469D-02 -0.169241D+00
      9   0.000000D+00 -0.378082D+00  0.000000D+00  0.167246D+00 -0.141353D+01
     10   0.274460D+01  0.000000D+00  0.198326D+00  0.000000D+00  0.000000D+00
     11   0.291720D+01  0.000000D+00  0.255210D+00  0.000000D+00  0.000000D+00
     12  -0.497358D+00  0.000000D+00  0.112613D+00  0.000000D+00  0.000000D+00
     13  -0.136918D-01  0.000000D+00 -0.190748D+00  0.000000D+00  0.000000D+00
     14   0.274085D+01  0.000000D+00  0.276976D+00  0.000000D+00  0.000000D+00
     15   0.000000D+00  0.473603D+00  0.000000D+00 -0.242881D+00  0.158614D+01
     16   0.000000D+00  0.165097D+00  0.000000D+00 -0.745696D-01 -0.183169D+00
               886           887           888           889           890 
      1  -0.174591D+03 -0.174589D+03 -0.174581D+03 -0.174566D+03 -0.174555D+03
      2  -0.171954D-01  0.814379D-02  0.000000D+00 -0.356066D-01  0.219185D+00
      3  -0.110678D+00  0.267350D-01  0.000000D+00  0.635560D-01 -0.441658D-01
      4   0.000000D+00  0.000000D+00 -0.384639D-01  0.000000D+00  0.000000D+00
      5   0.509894D-01 -0.260238D-01  0.000000D+00  0.163320D+00 -0.894329D+00
      6   0.444170D+00 -0.103854D+00  0.000000D+00 -0.246712D+00  0.193985D+00
      7   0.000000D+00  0.000000D+00  0.141814D+00  0.000000D+00  0.000000D+00
      8   0.000000D+00  0.000000D+00 -0.536772D-02  0.000000D+00  0.000000D+00
      9   0.000000D+00  0.000000D+00 -0.378116D+00  0.000000D+00  0.000000D+00
     10   0.117161D+01 -0.344618D+00  0.000000D+00 -0.456674D+00  0.197813D+00
     11   0.601158D+00  0.662035D-01  0.000000D+00  0.602083D+00 -0.400627D+01
     12  -0.486244D+00  0.677629D-01  0.000000D+00  0.206757D+00  0.922073D-01
     13   0.108287D-01 -0.199662D+00  0.000000D+00 -0.563551D-01 -0.221237D-01
     14   0.124239D+01 -0.201722D+00  0.000000D+00 -0.647385D+00  0.402371D+00
     15   0.000000D+00  0.000000D+00  0.557481D+00  0.000000D+00  0.000000D+00
     16   0.000000D+00  0.000000D+00 -0.703804D-01  0.000000D+00  0.000000D+00
               891           892           893           894           895 
      1  -0.174554D+03 -0.174514D+03 -0.174501D+03 -0.174417D+03 -0.174413D+03
      2   0.000000D+00  0.000000D+00  0.243666D+00  0.955962D-02  0.000000D+00
      3   0.000000D+00  0.000000D+00 -0.148684D+00  0.573928D-02  0.000000D+00
      4  -0.572562D-01 -0.435358D-01  0.000000D+00  0.000000D+00 -0.605717D-02
      5   0.000000D+00  0.000000D+00 -0.102178D+01 -0.387605D-01  0.000000D+00
      6   0.000000D+00  0.000000D+00  0.623147D+00 -0.229125D-01  0.000000D+00
      7   0.210431D+00  0.183733D+00  0.000000D+00  0.000000D+00  0.180658D-01
      8   0.321080D-01 -0.106844D+00  0.000000D+00  0.000000D+00  0.313272D-01
      9  -0.311944D+00 -0.539638D+00  0.000000D+00  0.000000D+00  0.190605D-01
     10   0.000000D+00  0.000000D+00  0.131434D+01 -0.967944D-01  0.000000D+00
     11   0.000000D+00  0.000000D+00 -0.465918D+01 -0.236564D+00  0.000000D+00
     12   0.000000D+00  0.000000D+00 -0.224470D+00 -0.576173D+00  0.000000D+00
     13   0.000000D+00  0.000000D+00  0.512137D-01  0.640058D+00  0.000000D+00
     14   0.000000D+00  0.000000D+00  0.163583D+01 -0.316701D+00  0.000000D+00
     15   0.199262D+00  0.651212D+00  0.000000D+00  0.000000D+00  0.297244D+00
     16  -0.335235D-01 -0.157556D+00  0.000000D+00  0.000000D+00  0.596428D+00
               896           897           898           899           900 
      1  -0.174366D+03 -0.174310D+03 -0.174293D+03 -0.174210D+03 -0.173937D+03
      2   0.590278D-01  0.000000D+00  0.313600D-01 -0.144171D-01  0.321939D-01
      3  -0.223346D-01  0.000000D+00  0.647428D-01  0.743642D-02 -0.114367D-01
      4   0.000000D+00 -0.772067D-01  0.000000D+00  0.000000D+00  0.000000D+00
      5  -0.312674D+00  0.000000D+00 -0.127585D+00  0.267496D-01 -0.218319D+00
      6   0.130648D+00  0.000000D+00 -0.263485D+00 -0.105251D-01  0.903656D-01
      7   0.000000D+00  0.311611D+00  0.000000D+00  0.000000D+00  0.000000D+00
      8   0.000000D+00 -0.465671D-01  0.000000D+00  0.000000D+00  0.000000D+00
      9   0.000000D+00 -0.701243D+00  0.000000D+00  0.000000D+00  0.000000D+00
     10   0.220010D+00  0.000000D+00 -0.607804D+00  0.580621D-01  0.186800D+00
     11  -0.225314D+01  0.000000D+00 -0.199277D+00 -0.518868D+00 -0.752851D+00
     12  -0.168093D+00  0.000000D+00 -0.228416D+00 -0.159745D+00 -0.884909D-01
     13   0.109277D+00  0.000000D+00 -0.647142D-01  0.832604D-01 -0.160748D+00
     14   0.861607D+00  0.000000D+00 -0.260339D+00  0.334683D+00  0.410991D-01
     15   0.000000D+00  0.271218D+00  0.000000D+00  0.000000D+00  0.000000D+00
     16   0.000000D+00  0.205932D+00  0.000000D+00  0.000000D+00  0.000000D+00
 Unable to Open any file for archive entry.
 1\1\GINC-HEL11\SP\RM11 TD-FC\Gen\C2H5F1\SABYASACHI\21-Mar-2022\0\\#P T
 D(Nstates=10000) m11/Gen SCF(maxcycles=100) Int(Grid=ultrafine)\\xGDB7
 _00001_tier4.com\\0,1\C,0,-1.122844,-0.45232,0.\C,0,0.,0.553997,0.\F,0
 ,1.225284,-0.098236,0.\H,0,-2.083314,0.066805,0.\H,0,-1.072796,-1.0856
 51,0.886148\H,0,-1.072796,-1.085651,-0.886148\H,0,-0.030794,1.189278,0
 .888716\H,0,-0.030794,1.189278,-0.888716\\Version=EM64L-G16RevC.01\Sta
 te=1-A'\HF=-178.849284\RMSD=3.117e-09\PG=CS [SG(C2H1F1),X(H4)]\\@
 The archive entry for this job was punched.


 One man practicing sportsmanship is far better than 50 preaching it.
 -- Knute K. Rockne
 Job cpu time:       0 days  0 hours 18 minutes 46.3 seconds.
 Elapsed time:       0 days  0 hours  2 minutes 21.1 seconds.
 File lengths (MBytes):  RWF=   1039 Int=      0 D2E=      0 Chk=    234 Scr=      1
 Normal termination of Gaussian 16 at Mon Mar 21 20:12:00 2022.
