 Entering Gaussian System, Link 0=g16
 Input=000002.com
 Output=000002.log
 Initial command:
 /home/sabyasachi/g16/l1.exe "/scratch/sabyasachi/PBS_7976136.helios/Gau-26699.inp" -scrdir="/scratch/sabyasachi/PBS_7976136.helios/"
 Entering Link 1 = /home/sabyasachi/g16/l1.exe PID=     26700.
  
 Copyright (c) 1988-2019, Gaussian, Inc.  All Rights Reserved.
  
 This is part of the Gaussian(R) 16 program.  It is based on
 the Gaussian(R) 09 system (copyright 2009, Gaussian, Inc.),
 the Gaussian(R) 03 system (copyright 2003, Gaussian, Inc.),
 the Gaussian(R) 98 system (copyright 1998, Gaussian, Inc.),
 the Gaussian(R) 94 system (copyright 1995, Gaussian, Inc.),
 the Gaussian 92(TM) system (copyright 1992, Gaussian, Inc.),
 the Gaussian 90(TM) system (copyright 1990, Gaussian, Inc.),
 the Gaussian 88(TM) system (copyright 1988, Gaussian, Inc.),
 the Gaussian 86(TM) system (copyright 1986, Carnegie Mellon
 University), and the Gaussian 82(TM) system (copyright 1983,
 Carnegie Mellon University). Gaussian is a federally registered
 trademark of Gaussian, Inc.
  
 This software contains proprietary and confidential information,
 including trade secrets, belonging to Gaussian, Inc.
  
 This software is provided under written license and may be
 used, copied, transmitted, or stored only in accord with that
 written license.
  
 The following legend is applicable only to US Government
 contracts under FAR:
  
                    RESTRICTED RIGHTS LEGEND
  
 Use, reproduction and disclosure by the US Government is
 subject to restrictions as set forth in subparagraphs (a)
 and (c) of the Commercial Computer Software - Restricted
 Rights clause in FAR 52.227-19.
  
 Gaussian, Inc.
 340 Quinnipiac St., Bldg. 40, Wallingford CT 06492
  
  
 ---------------------------------------------------------------
 Warning -- This program may not be used in any manner that
 competes with the business of Gaussian, Inc. or will provide
 assistance to any competitor of Gaussian, Inc.  The licensee
 of this program is prohibited from giving any competitor of
 Gaussian, Inc. access to this program.  By using this program,
 the user acknowledges that Gaussian, Inc. is engaged in the
 business of creating and licensing software in the field of
 computational chemistry and represents and warrants to the
 licensee that it is not a competitor of Gaussian, Inc. and that
 it will not use this program in any manner prohibited above.
 ---------------------------------------------------------------
  

 Cite this work as:
 Gaussian 16, Revision C.01,
 M. J. Frisch, G. W. Trucks, H. B. Schlegel, G. E. Scuseria, 
 M. A. Robb, J. R. Cheeseman, G. Scalmani, V. Barone, 
 G. A. Petersson, H. Nakatsuji, X. Li, M. Caricato, A. V. Marenich, 
 J. Bloino, B. G. Janesko, R. Gomperts, B. Mennucci, H. P. Hratchian, 
 J. V. Ortiz, A. F. Izmaylov, J. L. Sonnenberg, D. Williams-Young, 
 F. Ding, F. Lipparini, F. Egidi, J. Goings, B. Peng, A. Petrone, 
 T. Henderson, D. Ranasinghe, V. G. Zakrzewski, J. Gao, N. Rega, 
 G. Zheng, W. Liang, M. Hada, M. Ehara, K. Toyota, R. Fukuda, 
 J. Hasegawa, M. Ishida, T. Nakajima, Y. Honda, O. Kitao, H. Nakai, 
 T. Vreven, K. Throssell, J. A. Montgomery, Jr., J. E. Peralta, 
 F. Ogliaro, M. J. Bearpark, J. J. Heyd, E. N. Brothers, K. N. Kudin, 
 V. N. Staroverov, T. A. Keith, R. Kobayashi, J. Normand, 
 K. Raghavachari, A. P. Rendell, J. C. Burant, S. S. Iyengar, 
 J. Tomasi, M. Cossi, J. M. Millam, M. Klene, C. Adamo, R. Cammi, 
 J. W. Ochterski, R. L. Martin, K. Morokuma, O. Farkas, 
 J. B. Foresman, and D. J. Fox, Gaussian, Inc., Wallingford CT, 2019.
 
 ******************************************
 Gaussian 16:  EM64L-G16RevC.01  3-Jul-2019
                21-Mar-2022 
 ******************************************
 %mem=64gb
 %nproc=8
 Will use up to    8 processors via shared memory.
 -------------------------------------------------------------------
 #P TD(Nstates=10000) m11/Gen SCF(maxcycles=100) Int(Grid=ultrafine)
 -------------------------------------------------------------------
 1/38=1,172=1/1;
 2/12=2,17=6,18=5,40=1/2;
 3/5=7,11=9,25=1,30=1,74=-64,75=-5/1,2,3,8;
 4//1;
 5/5=2,7=100,38=5/2;
 8/6=1,10=1,108=10000/1;
 9/41=10000,42=1,70=2/14;
 6/7=2,8=2,9=2,10=2/1;
 99/5=1,9=1/99;
 Leave Link    1 at Mon Mar 21 20:08:48 2022, MaxMem=  8589934592 cpu:               0.4 elap:               0.1
 (Enter /home/sabyasachi/g16/l101.exe)
 ---------------------
 xGDB7_00001_tier4.com
 ---------------------
 Symbolic Z-matrix:
 Charge =  0 Multiplicity = 1
 7                     0.        0.        0.11046 
 1                     0.15411   0.92909  -0.25776 
 1                     0.72756  -0.59801  -0.25776 
 1                    -0.88169  -0.33108  -0.25773 
 
 ITRead=  0  0  0  0
 MicOpt= -1 -1 -1 -1
 NAtoms=      4 NQM=        4 NQMF=       0 NMMI=      0 NMMIF=      0
                NMic=       0 NMicF=      0.
                    Isotopes and Nuclear Properties:
 (Nuclear quadrupole moments (NQMom) in fm**2, nuclear magnetic moments (NMagM)
  in nuclear magnetons)

  Atom         1           2           3           4
 IAtWgt=          14           1           1           1
 AtmWgt=  14.0030740   1.0078250   1.0078250   1.0078250
 NucSpn=           2           1           1           1
 AtZEff=  -0.0000000  -0.0000000  -0.0000000  -0.0000000
 NQMom=    2.0440000   0.0000000   0.0000000   0.0000000
 NMagM=    0.4037610   2.7928460   2.7928460   2.7928460
 AtZNuc=   7.0000000   1.0000000   1.0000000   1.0000000
 Leave Link  101 at Mon Mar 21 20:08:48 2022, MaxMem=  8589934592 cpu:               0.6 elap:               0.1
 (Enter /home/sabyasachi/g16/l202.exe)
                          Input orientation:                          
 ---------------------------------------------------------------------
 Center     Atomic      Atomic             Coordinates (Angstroms)
 Number     Number       Type             X           Y           Z
 ---------------------------------------------------------------------
      1          7           0        0.000002    0.000000    0.110463
      2          1           0        0.154111    0.929092   -0.257758
      3          1           0        0.727563   -0.598011   -0.257757
      4          1           0       -0.881687   -0.331078   -0.257728
 ---------------------------------------------------------------------
                    Distance matrix (angstroms):
                    1          2          3          4
     1  N    0.000000
     2  H    1.011211   0.000000
     3  H    1.011211   1.631224   0.000000
     4  H    1.011214   1.631228   1.631238   0.000000
 Stoichiometry    H3N
 Framework group  C1[X(H3N)]
 Deg. of freedom     6
 Full point group                 C1      NOp   1
 Largest Abelian subgroup         C1      NOp   1
 Largest concise Abelian subgroup C1      NOp   1
                         Standard orientation:                         
 ---------------------------------------------------------------------
 Center     Atomic      Atomic             Coordinates (Angstroms)
 Number     Number       Type             X           Y           Z
 ---------------------------------------------------------------------
      1          7           0       -0.000002   -0.000000   -0.110463
      2          1           0       -0.147185    0.930214    0.257758
      3          1           0       -0.731998   -0.592574    0.257757
      4          1           0        0.879196   -0.337638    0.257728
 ---------------------------------------------------------------------
 Rotational constants (GHZ):         301.1827395         301.1776119         188.4523565
 Leave Link  202 at Mon Mar 21 20:08:48 2022, MaxMem=  8589934592 cpu:               0.1 elap:               0.0
 (Enter /home/sabyasachi/g16/l301.exe)
 General basis read from cards:  (5D, 7F)
 Centers:       2      3      4
 S 3 1.00
     Exponent=  1.3010701000D+01 Coefficients=  1.9682158000D-02
     Exponent=  1.9622572000D+00 Coefficients=  1.3796524000D-01
     Exponent=  4.4453796000D-01 Coefficients=  4.7831935000D-01
 S 1 1.00
     Exponent=  1.2194962000D-01 Coefficients=  1.0000000000D+00
 P 1 1.00
     Exponent=  8.0000000000D-01 Coefficients=  1.0000000000D+00
 P 1 1.00
     Exponent=  1.1704099050D-01 Coefficients=  1.0000000000D+00
 ****
 Centers:       1
 S 5 1.00
     Exponent=  1.7128415853D+03 Coefficients= -5.3934125305D-03
     Exponent=  2.5764812677D+02 Coefficients= -4.0221581118D-02
     Exponent=  5.8458245853D+01 Coefficients= -1.7931144990D-01
     Exponent=  1.6198367905D+01 Coefficients= -4.6376317823D-01
     Exponent=  5.0052600809D+00 Coefficients= -4.4171422662D-01
 S 1 1.00
     Exponent=  5.8731856571D-01 Coefficients=  1.0000000000D+00
 S 1 1.00
     Exponent=  1.8764592253D-01 Coefficients=  1.0000000000D+00
 S 1 1.00
     Exponent=  9.6171241529D-02 Coefficients=  1.0000000000D+00
 P 3 1.00
     Exponent=  1.3571470233D+01 Coefficients= -4.0072398852D-02
     Exponent=  2.9257372874D+00 Coefficients= -2.1807045028D-01
     Exponent=  7.9927750754D-01 Coefficients= -5.1294466049D-01
 P 1 1.00
     Exponent=  2.1954348034D-01 Coefficients=  1.0000000000D+00
 D 1 1.00
     Exponent=  1.0000000000D+00 Coefficients=  1.0000000000D+00
 D 1 1.00
     Exponent=  1.6697708112D-01 Coefficients=  1.0000000000D+00
 ****
 Ernie: Thresh=  0.10000D-02 Tol=  0.10000D-05 Strict=F.
 There are    46 symmetry adapted cartesian basis functions of A   symmetry.
 There are    44 symmetry adapted basis functions of A   symmetry.
    44 basis functions,    62 primitive gaussians,    46 cartesian basis functions
     5 alpha electrons        5 beta electrons
       nuclear repulsion energy        11.9627184057 Hartrees.
 IExCor= 5042 DFT=T Ex+Corr=M11 ExCW=0 ScaHFX=  1.000000
 ScaDFX=  1.000000  1.000000  1.000000  1.000000 ScalE2=  1.000000  1.000000
 IRadAn=      5 IRanWt=     -1 IRanGd=            0 ICorTp=0 IEmpDi=  4
 HFx  wShort=  0.000000 wLong=  0.250000 cFull=  0.428000 cShort=  0.000000 cLong=  0.572000
 DFx  wShort=  0.000000 wLong=  0.250000 cFull=  0.000000 cShort=  0.000000 cLong=  1.000000
 NAtoms=    4 NActive=    4 NUniq=    4 SFac= 1.00D+00 NAtFMM=   60 NAOKFM=F Big=F
 Integral buffers will be    131072 words long.
 Raffenetti 1 integral format.
 Two-electron integral symmetry is turned on.
 Leave Link  301 at Mon Mar 21 20:08:48 2022, MaxMem=  8589934592 cpu:               0.5 elap:               0.1
 (Enter /home/sabyasachi/g16/l302.exe)
 NPDir=0 NMtPBC=     1 NCelOv=     1 NCel=       1 NClECP=     1 NCelD=      1
         NCelK=      1 NCelE2=     1 NClLst=     1 CellRange=     0.0.
 One-electron integrals computed using PRISM.
 One-electron integral symmetry used in STVInt
 NBasis=    44 RedAO= T EigKep=  1.30D-03  NBF=    44
 NBsUse=    44 1.00D-06 EigRej= -1.00D+00 NBFU=    44
 Precomputing XC quadrature grid using
 IXCGrd= 4 IRadAn=           5 IRanWt=          -1 IRanGd=           0 AccXCQ= 0.00D+00.
 Generated NRdTot=       0 NPtTot=           0 NUsed=           0 NTot=          32
 NSgBfM=    46    46    46    46    46 MxSgAt=     4 MxSgA2=     4.
 Leave Link  302 at Mon Mar 21 20:08:48 2022, MaxMem=  8589934592 cpu:               0.9 elap:               0.1
 (Enter /home/sabyasachi/g16/l303.exe)
 DipDrv:  MaxL=1.
 Leave Link  303 at Mon Mar 21 20:08:48 2022, MaxMem=  8589934592 cpu:               0.1 elap:               0.0
 (Enter /home/sabyasachi/g16/l308.exe)
 Leave Link  308 at Mon Mar 21 20:08:48 2022, MaxMem=  8589934592 cpu:               0.2 elap:               0.0
 (Enter /home/sabyasachi/g16/l401.exe)
 ExpMin= 9.62D-02 ExpMax= 1.71D+03 ExpMxC= 2.58D+02 IAcc=3 IRadAn=         5 AccDes= 0.00D+00
 Harris functional with IExCor= 1009 and IRadAn=       5 diagonalized for initial guess.
 HarFok:  IExCor= 1009 AccDes= 0.00D+00 IRadAn=         5 IDoV= 1 UseB2=F ITyADJ=14
 ICtDFT=  3500011 ScaDFX=  1.000000  1.000000  1.000000  1.000000
 FoFCou: FMM=F IPFlag=           0 FMFlag=      100000 FMFlg1=           0
         NFxFlg=           0 DoJE=T BraDBF=F KetDBF=T FulRan=T
         wScrn=  0.000000 ICntrl=       500 IOpCl=  0 I1Cent=   200000004 NGrid=           0
         NMat0=    1 NMatS0=      1 NMatT0=    0 NMatD0=    1 NMtDS0=    0 NMtDT0=    0
 Petite list used in FoFCou.
 Harris En= -55.0536251455389    
 JPrj=0 DoOrth=F DoCkMO=F.
 Leave Link  401 at Mon Mar 21 20:08:49 2022, MaxMem=  8589934592 cpu:               1.5 elap:               0.2
 (Enter /home/sabyasachi/g16/l502.exe)
 Keep R1 ints in memory in canonical form, NReq=7981814.
 FoFCou: FMM=F IPFlag=           0 FMFlag=           0 FMFlg1=           0
         NFxFlg=           0 DoJE=F BraDBF=F KetDBF=F FulRan=T
         wScrn=  0.000000 ICntrl=       600 IOpCl=  0 I1Cent=           0 NGrid=           0
         NMat0=    1 NMatS0=    990 NMatT0=    0 NMatD0=    1 NMtDS0=    0 NMtDT0=    0
 Symmetry not used in FoFCou.
 Two-electron integral symmetry not used.
 Closed shell SCF:
 Using DIIS extrapolation, IDIIS=  1040.
 NGot=  8589934592 LenX=  8588948188 LenY=  8588945631
 Requested convergence on RMS density matrix=1.00D-08 within 100 cycles.
 Requested convergence on MAX density matrix=1.00D-06.
 Requested convergence on             energy=1.00D-06.
 No special actions if energy rises.
 Integral accuracy reduced to 1.0D-05 until final iterations.

 Cycle   1  Pass 0  IDiag  1:
 E= -56.4328975490504    
 DIIS: error= 2.97D-02 at cycle   1 NSaved=   1.
 NSaved= 1 IEnMin= 1 EnMin= -56.4328975490504     IErMin= 1 ErrMin= 2.97D-02
 ErrMax= 2.97D-02  0.00D+00 EMaxC= 1.00D-01 BMatC= 6.09D-02 BMatP= 6.09D-02
 IDIUse=3 WtCom= 7.03D-01 WtEn= 2.97D-01
 Coeff-Com:  0.100D+01
 Coeff-En:   0.100D+01
 Coeff:      0.100D+01
 Gap=     0.356 Goal=   None    Shift=    0.000
 GapD=    0.356 DampG=1.000 DampE=0.500 DampFc=0.5000 IDamp=-1.
 Damping current iteration by 5.00D-01
 RMSDP=9.35D-03 MaxDP=1.55D-01              OVMax= 1.29D-01

 Cycle   2  Pass 0  IDiag  1:
 E= -56.4603436480066     Delta-E=       -0.027446098956 Rises=F Damp=T
 DIIS: error= 4.98D-03 at cycle   2 NSaved=   2.
 NSaved= 2 IEnMin= 2 EnMin= -56.4603436480066     IErMin= 2 ErrMin= 4.98D-03
 ErrMax= 4.98D-03  0.00D+00 EMaxC= 1.00D-01 BMatC= 9.11D-04 BMatP= 6.09D-02
 IDIUse=3 WtCom= 9.50D-01 WtEn= 4.98D-02
 Coeff-Com: -0.279D-01 0.103D+01
 Coeff-En:   0.000D+00 0.100D+01
 Coeff:     -0.265D-01 0.103D+01
 Gap=     0.456 Goal=   None    Shift=    0.000
 RMSDP=1.69D-03 MaxDP=2.22D-02 DE=-2.74D-02 OVMax= 6.49D-02

 Cycle   3  Pass 0  IDiag  1:
 E= -56.4864179692331     Delta-E=       -0.026074321227 Rises=F Damp=F
 DIIS: error= 6.28D-04 at cycle   3 NSaved=   3.
 NSaved= 3 IEnMin= 3 EnMin= -56.4864179692331     IErMin= 3 ErrMin= 6.28D-04
 ErrMax= 6.28D-04  0.00D+00 EMaxC= 1.00D-01 BMatC= 1.81D-05 BMatP= 9.11D-04
 IDIUse=3 WtCom= 9.94D-01 WtEn= 6.28D-03
 Coeff-Com:  0.127D-01-0.812D-01 0.107D+01
 Coeff-En:   0.000D+00 0.000D+00 0.100D+01
 Coeff:      0.126D-01-0.807D-01 0.107D+01
 Gap=     0.459 Goal=   None    Shift=    0.000
 RMSDP=2.77D-04 MaxDP=3.33D-03 DE=-2.61D-02 OVMax= 2.33D-03

 Cycle   4  Pass 0  IDiag  1:
 E= -56.4864462469212     Delta-E=       -0.000028277688 Rises=F Damp=F
 DIIS: error= 1.43D-04 at cycle   4 NSaved=   4.
 NSaved= 4 IEnMin= 4 EnMin= -56.4864462469212     IErMin= 4 ErrMin= 1.43D-04
 ErrMax= 1.43D-04  0.00D+00 EMaxC= 1.00D-01 BMatC= 8.52D-07 BMatP= 1.81D-05
 IDIUse=3 WtCom= 9.99D-01 WtEn= 1.43D-03
 Coeff-Com: -0.631D-04 0.305D-04-0.126D+00 0.113D+01
 Coeff-En:   0.000D+00 0.000D+00 0.000D+00 0.100D+01
 Coeff:     -0.630D-04 0.304D-04-0.126D+00 0.113D+01
 Gap=     0.459 Goal=   None    Shift=    0.000
 RMSDP=6.67D-05 MaxDP=6.93D-04 DE=-2.83D-05 OVMax= 7.74D-04

 Cycle   5  Pass 0  IDiag  1:
 E= -56.4864482282823     Delta-E=       -0.000001981361 Rises=F Damp=F
 DIIS: error= 4.04D-05 at cycle   5 NSaved=   5.
 NSaved= 5 IEnMin= 5 EnMin= -56.4864482282823     IErMin= 5 ErrMin= 4.04D-05
 ErrMax= 4.04D-05  0.00D+00 EMaxC= 1.00D-01 BMatC= 4.54D-08 BMatP= 8.52D-07
 IDIUse=1 WtCom= 1.00D+00 WtEn= 0.00D+00
 Coeff-Com: -0.843D-03 0.431D-02-0.608D-01 0.544D-02 0.105D+01
 Coeff:     -0.843D-03 0.431D-02-0.608D-01 0.544D-02 0.105D+01
 Gap=     0.459 Goal=   None    Shift=    0.000
 RMSDP=2.20D-05 MaxDP=4.33D-04 DE=-1.98D-06 OVMax= 2.86D-04

 Cycle   6  Pass 0  IDiag  1:
 E= -56.4864483823950     Delta-E=       -0.000000154113 Rises=F Damp=F
 DIIS: error= 7.25D-06 at cycle   6 NSaved=   6.
 NSaved= 6 IEnMin= 6 EnMin= -56.4864483823950     IErMin= 6 ErrMin= 7.25D-06
 ErrMax= 7.25D-06  0.00D+00 EMaxC= 1.00D-01 BMatC= 2.60D-09 BMatP= 4.54D-08
 IDIUse=1 WtCom= 1.00D+00 WtEn= 0.00D+00
 Coeff-Com:  0.138D-03-0.115D-02 0.211D-01-0.535D-01-0.241D+00 0.127D+01
 Coeff:      0.138D-03-0.115D-02 0.211D-01-0.535D-01-0.241D+00 0.127D+01
 Gap=     0.459 Goal=   None    Shift=    0.000
 RMSDP=7.23D-06 MaxDP=1.69D-04 DE=-1.54D-07 OVMax= 8.58D-05

 Initial convergence to 1.0D-05 achieved.  Increase integral accuracy.
 Cycle   7  Pass 1  IDiag  1:
 E= -56.4864298862205     Delta-E=        0.000018496175 Rises=F Damp=F
 DIIS: error= 2.24D-05 at cycle   1 NSaved=   1.
 NSaved= 1 IEnMin= 1 EnMin= -56.4864298862205     IErMin= 1 ErrMin= 2.24D-05
 ErrMax= 2.24D-05  0.00D+00 EMaxC= 1.00D-01 BMatC= 3.41D-08 BMatP= 3.41D-08
 IDIUse=1 WtCom= 1.00D+00 WtEn= 0.00D+00
 Coeff-Com:  0.100D+01
 Coeff:      0.100D+01
 Gap=     0.459 Goal=   None    Shift=    0.000
 RMSDP=7.23D-06 MaxDP=1.69D-04 DE= 1.85D-05 OVMax= 5.50D-05

 Cycle   8  Pass 1  IDiag  1:
 E= -56.4864299165369     Delta-E=       -0.000000030316 Rises=F Damp=F
 DIIS: error= 3.04D-06 at cycle   2 NSaved=   2.
 NSaved= 2 IEnMin= 2 EnMin= -56.4864299165369     IErMin= 2 ErrMin= 3.04D-06
 ErrMax= 3.04D-06  0.00D+00 EMaxC= 1.00D-01 BMatC= 6.04D-10 BMatP= 3.41D-08
 IDIUse=1 WtCom= 1.00D+00 WtEn= 0.00D+00
 Coeff-Com: -0.852D-01 0.109D+01
 Coeff:     -0.852D-01 0.109D+01
 Gap=     0.459 Goal=   None    Shift=    0.000
 RMSDP=1.60D-06 MaxDP=2.71D-05 DE=-3.03D-08 OVMax= 1.35D-05

 Cycle   9  Pass 1  IDiag  1:
 E= -56.4864299170963     Delta-E=       -0.000000000559 Rises=F Damp=F
 DIIS: error= 2.03D-06 at cycle   3 NSaved=   3.
 NSaved= 3 IEnMin= 3 EnMin= -56.4864299170963     IErMin= 3 ErrMin= 2.03D-06
 ErrMax= 2.03D-06  0.00D+00 EMaxC= 1.00D-01 BMatC= 2.29D-10 BMatP= 6.04D-10
 IDIUse=1 WtCom= 1.00D+00 WtEn= 0.00D+00
 Coeff-Com: -0.456D-01 0.459D+00 0.586D+00
 Coeff:     -0.456D-01 0.459D+00 0.586D+00
 Gap=     0.459 Goal=   None    Shift=    0.000
 RMSDP=3.06D-07 MaxDP=4.19D-06 DE=-5.59D-10 OVMax= 4.63D-06

 Cycle  10  Pass 1  IDiag  1:
 E= -56.4864299172890     Delta-E=       -0.000000000193 Rises=F Damp=F
 DIIS: error= 3.53D-07 at cycle   4 NSaved=   4.
 NSaved= 4 IEnMin= 4 EnMin= -56.4864299172890     IErMin= 4 ErrMin= 3.53D-07
 ErrMax= 3.53D-07  0.00D+00 EMaxC= 1.00D-01 BMatC= 5.43D-12 BMatP= 2.29D-10
 IDIUse=1 WtCom= 1.00D+00 WtEn= 0.00D+00
 Coeff-Com:  0.546D-02-0.817D-01 0.310D-01 0.105D+01
 Coeff:      0.546D-02-0.817D-01 0.310D-01 0.105D+01
 Gap=     0.459 Goal=   None    Shift=    0.000
 RMSDP=1.91D-07 MaxDP=3.89D-06 DE=-1.93D-10 OVMax= 2.53D-06

 Cycle  11  Pass 1  IDiag  1:
 E= -56.4864299173014     Delta-E=       -0.000000000012 Rises=F Damp=F
 DIIS: error= 8.34D-08 at cycle   5 NSaved=   5.
 NSaved= 5 IEnMin= 5 EnMin= -56.4864299173014     IErMin= 5 ErrMin= 8.34D-08
 ErrMax= 8.34D-08  0.00D+00 EMaxC= 1.00D-01 BMatC= 3.09D-13 BMatP= 5.43D-12
 IDIUse=1 WtCom= 1.00D+00 WtEn= 0.00D+00
 Coeff-Com:  0.242D-02-0.210D-01-0.310D-01-0.881D-01 0.114D+01
 Coeff:      0.242D-02-0.210D-01-0.310D-01-0.881D-01 0.114D+01
 Gap=     0.459 Goal=   None    Shift=    0.000
 RMSDP=6.01D-08 MaxDP=1.32D-06 DE=-1.24D-11 OVMax= 9.90D-07

 Cycle  12  Pass 1  IDiag  1:
 E= -56.4864299173031     Delta-E=       -0.000000000002 Rises=F Damp=F
 DIIS: error= 2.49D-08 at cycle   6 NSaved=   6.
 NSaved= 6 IEnMin= 6 EnMin= -56.4864299173031     IErMin= 6 ErrMin= 2.49D-08
 ErrMax= 2.49D-08  0.00D+00 EMaxC= 1.00D-01 BMatC= 1.97D-14 BMatP= 3.09D-13
 IDIUse=1 WtCom= 1.00D+00 WtEn= 0.00D+00
 Coeff-Com: -0.505D-03 0.716D-02 0.244D-02-0.729D-01-0.767D-01 0.114D+01
 Coeff:     -0.505D-03 0.716D-02 0.244D-02-0.729D-01-0.767D-01 0.114D+01
 Gap=     0.459 Goal=   None    Shift=    0.000
 RMSDP=1.84D-08 MaxDP=4.34D-07 DE=-1.66D-12 OVMax= 3.00D-07

 Cycle  13  Pass 1  IDiag  1:
 E= -56.4864299173030     Delta-E=        0.000000000000 Rises=F Damp=F
 DIIS: error= 4.33D-09 at cycle   7 NSaved=   7.
 NSaved= 7 IEnMin= 6 EnMin= -56.4864299173031     IErMin= 7 ErrMin= 4.33D-09
 ErrMax= 4.33D-09  0.00D+00 EMaxC= 1.00D-01 BMatC= 5.59D-16 BMatP= 1.97D-14
 IDIUse=1 WtCom= 1.00D+00 WtEn= 0.00D+00
 Coeff-Com: -0.134D-05-0.336D-03 0.892D-03 0.134D-01-0.362D-01-0.149D+00
 Coeff-Com:  0.117D+01
 Coeff:     -0.134D-05-0.336D-03 0.892D-03 0.134D-01-0.362D-01-0.149D+00
 Coeff:      0.117D+01
 Gap=     0.459 Goal=   None    Shift=    0.000
 RMSDP=3.51D-09 MaxDP=7.87D-08 DE= 1.14D-13 OVMax= 5.22D-08

 SCF Done:  E(RM11) =  -56.4864299173     A.U. after   13 cycles
            NFock= 13  Conv=0.35D-08     -V/T= 2.0117
 KE= 5.583118677658D+01 PE=-1.554146312122D+02 EE= 3.113429611259D+01
 Leave Link  502 at Mon Mar 21 20:08:50 2022, MaxMem=  8589934592 cpu:               9.2 elap:               1.2
 (Enter /home/sabyasachi/g16/l801.exe)
 DoSCS=F DFT=T ScalE2(SS,OS)=  1.000000  1.000000
 ExpMin= 9.62D-02 ExpMax= 1.71D+03 ExpMxC= 2.58D+02 IAcc=3 IRadAn=         5 AccDes= 0.00D+00
 HarFok:  IExCor=  205 AccDes= 0.00D+00 IRadAn=         5 IDoV=-2 UseB2=F ITyADJ=14
 ICtDFT= 12500011 ScaDFX=  1.000000  1.000000  1.000000  1.000000
 Largest valence mixing into a core orbital is  5.81D-05
 Largest core mixing into a valence orbital is  1.09D-05
 Range of M.O.s used for correlation:     2    44
 NBasis=    44 NAE=     5 NBE=     5 NFC=     1 NFV=     0
 NROrb=     43 NOA=     4 NOB=     4 NVA=    39 NVB=    39

 **** Warning!!: The largest alpha MO coefficient is  0.10142464D+02

 Leave Link  801 at Mon Mar 21 20:08:50 2022, MaxMem=  8589934592 cpu:               0.4 elap:               0.1
 (Enter /home/sabyasachi/g16/l914.exe)
 RHF ground state
 Keep R1, R2, and R3 ints in memory in canonical form, NReq=47328166.
 FoFCou: FMM=F IPFlag=           0 FMFlag=           0 FMFlg1=           0
         NFxFlg=           0 DoJE=F BraDBF=F KetDBF=F FulRan=T
         wScrn=  0.000000 ICntrl=       600 IOpCl=  0 I1Cent=           0 NGrid=           0
         NMat0=    1 NMatS0=    990 NMatT0=    0 NMatD0=    1 NMtDS0=    0 NMtDT0=    0
 Symmetry not used in FoFCou.
 Two-electron integral symmetry not used.
 MDV=  8589934592 DFT=T DoStab=F Mixed=T DoRPA=T DoScal=F NonHer=T
 Making orbital integer symmetry assigments:
 Orbital symmetries:
       Occupied  (A) (A) (A) (A) (A)
       Virtual   (A) (A) (A) (A) (A) (A) (A) (A) (A) (A) (A) (A)
                 (A) (A) (A) (A) (A) (A) (A) (A) (A) (A) (A) (A)
                 (A) (A) (A) (A) (A) (A) (A) (A) (A) (A) (A) (A)
                 (A) (A) (A)
   156 initial guesses have been made.
 Convergence on wavefunction:    0.001000000000000
 Davidson Disk Diagonalization:  ConvIn= 1.00D-03 SkipCon=T Conv= 1.00D-03.
 Max sub-space:   936 roots to seek:   312 dimension of matrix:          312
 *** WARNING: Number of orthogonal guesses is          156
 Iteration     1 Dimension   156 NMult     0 NNew    156
 CISAX will form   156 AO SS matrices at one time.
 NMat=   156 NSing=   156 JSym2X= 0.
 New state      7 was old state      9
 New state      8 was old state     10
 New state      9 was old state     11
 New state     10 was old state      8
 New state     11 was old state      7
 New state     14 was old state     15
 New state     15 was old state     17
 New state     17 was old state     19
 New state     18 was old state     24
 New state     19 was old state     25
 New state     20 was old state     18
 New state     21 was old state     22
 New state     22 was old state     23
 New state     23 was old state     14
 New state     24 was old state     20
 New state     25 was old state     21
 New state     26 was old state     27
 New state     27 was old state     26
 New state     28 was old state     29
 New state     29 was old state     30
 New state     30 was old state     31
 New state     31 was old state     28
 New state     32 was old state     33
 New state     33 was old state     32
 New state     34 was old state     39
 New state     35 was old state     40
 New state     36 was old state     38
 New state     37 was old state     36
 New state     38 was old state     37
 New state     39 was old state     34
 New state     40 was old state     35
 New state     43 was old state     44
 New state     44 was old state     45
 New state     45 was old state     43
 New state     47 was old state     48
 New state     48 was old state     49
 New state     49 was old state     47
 New state     54 was old state     56
 New state     55 was old state     57
 New state     56 was old state     54
 New state     57 was old state     55
 New state     61 was old state     64
 New state     62 was old state     61
 New state     63 was old state     62
 New state     64 was old state     63
 New state     65 was old state     69
 New state     66 was old state     70
 New state     67 was old state     65
 New state     68 was old state     66
 New state     69 was old state     67
 New state     70 was old state     68
 New state     77 was old state     80
 New state     78 was old state     77
 New state     79 was old state     78
 New state     80 was old state     81
 New state     81 was old state     82
 New state     82 was old state     83
 New state     83 was old state     84
 New state     84 was old state     85
 New state     85 was old state     86
 New state     86 was old state     79
 New state     88 was old state     90
 New state     89 was old state     88
 New state     90 was old state     92
 New state     92 was old state     93
 New state     93 was old state     94
 New state     94 was old state     89
 New state    104 was old state    106
 New state    105 was old state    109
 New state    106 was old state    108
 New state    107 was old state    104
 New state    108 was old state    105
 New state    109 was old state    107
 New state    110 was old state    111
 New state    111 was old state    112
 New state    112 was old state    110
 New state    119 was old state    120
 New state    120 was old state    119
 New state    122 was old state    125
 New state    123 was old state    122
 New state    124 was old state    123
 New state    125 was old state    124
 New state    128 was old state    129
 New state    129 was old state    128
 New state    136 was old state    137
 New state    137 was old state    136
 New state    139 was old state    141
 New state    141 was old state    139
 New state    146 was old state    147
 New state    147 was old state    146
 New state    148 was old state    149
 New state    149 was old state    148
 New state    152 was old state    154
 New state    153 was old state    152
 New state    154 was old state    153
 Excitation Energies [eV] at current iteration:
 Root      1 :     7.000151931525648
 Root      2 :     8.808605978663001
 Root      3 :     8.808726235742842
 Root      4 :    10.418420750535590
 Root      5 :    10.418440726685860
 Root      6 :    11.461858120606700
 Root      7 :    12.117096414678210
 Root      8 :    12.117126299924690
 Root      9 :    12.249650422756710
 Root     10 :    12.379991318371760
 Root     11 :    12.380027710616870
 Root     12 :    13.930849415634240
 Root     13 :    14.308928035102480
 Root     14 :    14.308979821715880
 Root     15 :    15.117048978554480
 Root     16 :    15.506979402180100
 Root     17 :    15.580704663073230
 Root     18 :    15.725306227097510
 Root     19 :    15.725468237889360
 Root     20 :    15.882018674926100
 Root     21 :    16.090021244397800
 Root     22 :    16.090141781320400
 Root     23 :    16.158045467670170
 Root     24 :    16.445503672902510
 Root     25 :    16.445519602195160
 Root     26 :    17.459014151569830
 Root     27 :    17.459033501198820
 Root     28 :    17.510860629411940
 Root     29 :    17.540948540986540
 Root     30 :    17.541007074848920
 Root     31 :    17.745830184036990
 Root     32 :    18.426974933198610
 Root     33 :    18.426985021534090
 Root     34 :    20.396235473344560
 Root     35 :    20.396263533829690
 Root     36 :    20.397973626847510
 Root     37 :    20.553174854268550
 Root     38 :    20.553256551072660
 Root     39 :    20.878732490231160
 Root     40 :    20.878819867865970
 Root     41 :    21.055211547965970
 Root     42 :    21.734123183131810
 Root     43 :    21.734198124229530
 Root     44 :    22.705043317250080
 Root     45 :    23.869564276011900
 Root     46 :    24.002414257712410
 Root     47 :    24.156503213686090
 Root     48 :    24.156507851338560
 Root     49 :    24.392536274610110
 Root     50 :    24.914207058684060
 Root     51 :    24.914250848601370
 Root     52 :    25.341210426504230
 Root     53 :    25.341279204988740
 Root     54 :    25.773071108453340
 Root     55 :    26.270071094584120
 Root     56 :    26.405130577510890
 Root     57 :    26.405153545413160
 Root     58 :    26.849912434305090
 Root     59 :    26.849936224817740
 Root     60 :    26.979659412033050
 Root     61 :    27.523192224861050
 Root     62 :    28.196299630550030
 Root     63 :    28.196318602932340
 Root     64 :    28.799349001461820
 Root     65 :    31.085990683109460
 Root     66 :    31.086286174256500
 Root     67 :    31.373211167837020
 Root     68 :    31.501565818006810
 Root     69 :    32.151844814333540
 Root     70 :    32.151912118568480
 Root     71 :    33.538873731332490
 Root     72 :    33.538941109621710
 Root     73 :    34.049976975670260
 Root     74 :    34.761639420232490
 Root     75 :    34.761645089239540
 Root     76 :    36.201014917937500
 Root     77 :    36.495938594324060
 Root     78 :    36.609017782136140
 Root     79 :    36.609031297697170
 Root     80 :    37.016765365242730
 Root     81 :    37.016834011123070
 Root     82 :    37.579583701406140
 Root     83 :    37.580001555464060
 Root     84 :    38.203144805699220
 Root     85 :    38.203430688082030
 Root     86 :    39.815282429762050
 Root     87 :    42.032433062777730
 Root     88 :    43.389950008573860
 Root     89 :    43.792957583446650
 Root     90 :    44.192711287235890
 Root     91 :    44.192781445722890
 Root     92 :    47.436797590286040
 Root     93 :    47.436989673237020
 Root     94 :    47.625844466112770
 Root     95 :    47.668535423596670
 Root     96 :    47.668596995687910
 Root     97 :    48.655259464599940
 Root     98 :    51.432436241084410
 Root     99 :    51.987476471821000
 Root    100 :    51.987569680100180
 Root    101 :    54.666144770512100
 Root    102 :    54.666289022945260
 Root    103 :    56.789566572907990
 Root    104 :    57.113951531232420
 Root    105 :    57.282607285543020
 Root    106 :    57.282727576709350
 Root    107 :    57.359156515675550
 Root    108 :    57.359262445130330
 Root    109 :    58.116883366809360
 Root    110 :    59.402076846426250
 Root    111 :    59.402197110889250
 Root    112 :    59.524339088687660
 Root    113 :    61.936282573280420
 Root    114 :    61.936359832104020
 Root    115 :    62.594971780404510
 Root    116 :    62.595141199421610
 Root    117 :    64.594772069009000
 Root    118 :    64.771274630856400
 Root    119 :    64.771325595146310
 Root    120 :    64.873296001711680
 Root    121 :    67.527854091178030
 Root    122 :    67.966035652492100
 Root    123 :    68.064411575414740
 Root    124 :    68.064456843707660
 Root    125 :    68.766547720811330
 Root    126 :    68.766693645896990
 Root    127 :    69.625455528980860
 Root    128 :    71.911626910610340
 Root    129 :    73.419701121591270
 Root    130 :    75.205133987166500
 Root    131 :    75.205236812576390
 Root    132 :    77.853228313859770
 Root    133 :    77.853284328094220
 Root    134 :    78.901986619047070
 Root    135 :    78.902117725636710
 Root    136 :    81.507365001130210
 Root    137 :    81.507366866573460
 Root    138 :    84.229249132425380
 Root    139 :    86.576677210652150
 Root    140 :    87.621352861800860
 Root    141 :    87.621717937726710
 Root    142 :    88.332843453922190
 Root    143 :    89.017233774960390
 Root    144 :    89.484858325541570
 Root    145 :    89.485047806312010
 Root    146 :    97.497454110109640
 Root    147 :    97.497602373309260
 Root    148 :    98.129987147905740
 Root    149 :    98.130185226678310
 Root    150 :   100.344320097380700
 Root    151 :   103.636050045504900
 Root    152 :   104.188876339069400
 Root    153 :   104.188984295720700
 Root    154 :   105.697954764004300
 Root    155 :   114.340293585584500
 Root    156 :   114.340547366002200
 Convergence achieved for final wavefunctions.
 ***********************************************************************
 Excited states from <AA,BB:AA,BB> singles matrix:
 ***********************************************************************
 
 1PDM for each excited state written to RWF  633
 Ground to excited state transition densities written to RWF  633
 Ground to excited state transition electric dipole moments (Au):
       state          X           Y           Z        Dip. S.      Osc.
         1         0.0000     -0.0000      0.6615      0.4376      0.0750
         2         0.0511      0.2146     -0.0000      0.0487      0.0105
         3        -0.2146      0.0511      0.0000      0.0487      0.0105
         4        -0.0098      0.0851      0.0000      0.0073      0.0019
         5        -0.0851     -0.0098      0.0000      0.0073      0.0019
         6         0.0000     -0.0000      0.2283      0.0521      0.0146
         7        -0.0195      0.0266      0.0000      0.0011      0.0003
         8         0.0264      0.0195      0.0000      0.0011      0.0003
         9         0.0000     -0.0000      0.8647      0.7477      0.2244
        10        -0.5309      0.7793      0.0000      0.8891      0.2697
        11         0.7793      0.5309      0.0000      0.8891      0.2697
        12        -0.0000      0.0000      0.0000      0.0000      0.0000
        13         0.3771      0.2079     -0.0000      0.1854      0.0650
        14        -0.2079      0.3771     -0.0000      0.1854      0.0650
        15        -0.0000     -0.0000     -0.4050      0.1640      0.0608
        16        -0.0000      0.0000     -0.0000      0.0000      0.0000
        17         0.0000     -0.0001      0.0000      0.0000      0.0000
        18         0.0585      0.2948      0.0000      0.0903      0.0348
        19        -0.2948      0.0585     -0.0000      0.0903      0.0348
        20         0.0000      0.0000      0.3054      0.0933      0.0363
        21        -0.0250      0.1380     -0.0001      0.0197      0.0078
        22         0.1380      0.0251     -0.0000      0.0197      0.0078
        23        -0.0000     -0.0000      0.2281      0.0520      0.0206
        24         0.4670     -0.8604     -0.0000      0.9584      0.3861
        25        -0.8604     -0.4670      0.0000      0.9584      0.3861
        26         0.0058     -0.0320      0.0000      0.0011      0.0005
        27         0.0319      0.0058     -0.0001      0.0010      0.0004
        28         0.0003     -0.0001     -0.0000      0.0000      0.0000
        29         0.1182     -0.2950     -0.0000      0.1010      0.0434
        30        -0.2950     -0.1182     -0.0000      0.1010      0.0434
        31        -0.0000     -0.0000      0.7171      0.5142      0.2236
        32         0.2552     -0.4321      0.0000      0.2518      0.1137
        33        -0.4321     -0.2552      0.0000      0.2518      0.1137
        34         0.4085      0.0360     -0.0024      0.1681      0.0840
        35        -0.0360      0.4085      0.0088      0.1682      0.0841
        36        -0.0018      0.0048     -0.7364      0.5423      0.2710
        37         0.0987     -0.2022     -0.0000      0.0507      0.0255
        38        -0.2023     -0.0987      0.0000      0.0507      0.0255
        39         0.0184      0.0112     -0.0000      0.0005      0.0002
        40         0.0112     -0.0184      0.0000      0.0005      0.0002
        41         0.0000     -0.0000      0.0000      0.0000      0.0000
        42        -0.4371     -0.2404     -0.0000      0.2488      0.1325
        43         0.2404     -0.4371     -0.0000      0.2488      0.1325
        44        -0.0000     -0.0000      0.2725      0.0743      0.0413
        45        -0.0000     -0.0000     -0.3766      0.1418      0.0829
        46         0.0001     -0.0000     -0.0000      0.0000      0.0000
        47        -0.2062      0.2070     -0.0000      0.0853      0.0505
        48         0.2069      0.2062      0.0000      0.0853      0.0505
        49         0.0000      0.0000     -0.2870      0.0824      0.0492
        50        -0.0713     -0.2028      0.0000      0.0462      0.0282
        51         0.2028     -0.0713     -0.0000      0.0462      0.0282
        52        -0.0124      0.0183     -0.0000      0.0005      0.0003
        53         0.0183      0.0124      0.0000      0.0005      0.0003
        54         0.0000     -0.0000     -0.0000      0.0000      0.0000
        55        -0.0000     -0.0001      0.7188      0.5167      0.3325
        56        -0.0550      0.3937      0.0001      0.1580      0.1022
        57        -0.3937     -0.0550     -0.0000      0.1580      0.1022
        58        -0.0336      0.6645     -0.0000      0.4427      0.2912
        59         0.6645      0.0336     -0.0000      0.4427      0.2912
        60         0.0000      0.0001      0.2772      0.0768      0.0508
        61         0.0000     -0.0000     -0.0750      0.0056      0.0038
        62        -0.1821     -0.0279      0.0000      0.0339      0.0235
        63         0.0279     -0.1821     -0.0000      0.0339      0.0234
        64        -0.0000      0.0000     -0.1998      0.0399      0.0282
        65         0.0048      0.0659      0.0000      0.0044      0.0033
        66         0.0659     -0.0048     -0.0000      0.0044      0.0033
        67         0.0000      0.0000      0.0000      0.0000      0.0000
        68         0.0000      0.0000      0.1462      0.0214      0.0165
        69        -0.0005     -0.0040      0.0000      0.0000      0.0000
        70         0.0040     -0.0005      0.0000      0.0000      0.0000
        71        -0.0839      0.3676     -0.0000      0.1421      0.1168
        72         0.3676      0.0839     -0.0000      0.1421      0.1168
        73        -0.0000     -0.0000     -0.0749      0.0056      0.0047
        74         0.0160     -0.0047     -0.0000      0.0003      0.0002
        75         0.0047      0.0160     -0.0000      0.0003      0.0002
        76         0.0000     -0.0000      0.1790      0.0320      0.0284
        77         0.0000     -0.0000      0.0000      0.0000      0.0000
        78        -0.0524     -0.0216     -0.0000      0.0032      0.0029
        79         0.0216     -0.0524      0.0000      0.0032      0.0029
        80         0.1391      0.1148     -0.0000      0.0325      0.0295
        81        -0.1148      0.1391      0.0000      0.0325      0.0295
        82         0.0019     -0.0403     -0.0000      0.0016      0.0015
        83        -0.0402     -0.0019      0.0000      0.0016      0.0015
        84         0.0393      0.2902     -0.0000      0.0858      0.0803
        85         0.2902     -0.0393     -0.0000      0.0858      0.0803
        86        -0.0000      0.0000     -0.1586      0.0251      0.0245
        87        -0.0000      0.0000      0.1807      0.0327      0.0336
        88        -0.0000     -0.0000      0.0000      0.0000      0.0000
        89        -0.0000     -0.0000     -0.2552      0.0651      0.0699
        90        -0.0680     -0.1804      0.0000      0.0372      0.0402
        91        -0.1804      0.0680      0.0000      0.0372      0.0402
        92        -0.0259      0.1084      0.0000      0.0124      0.0144
        93         0.1084      0.0259     -0.0000      0.0124      0.0144
        94        -0.0000      0.0001      0.1758      0.0309      0.0361
        95         0.0323     -0.1383      0.0001      0.0202      0.0236
        96        -0.1383     -0.0322     -0.0000      0.0202      0.0236
        97         0.0000      0.0000     -0.2760      0.0762      0.0908
        98         0.0000      0.0000     -0.0000      0.0000      0.0000
        99        -0.1766     -0.0328     -0.0000      0.0323      0.0411
       100         0.0328     -0.1766     -0.0000      0.0323      0.0411
       101         0.0036      0.1998     -0.0000      0.0399      0.0535
       102         0.1998     -0.0036     -0.0000      0.0399      0.0535
       103         0.0000     -0.0000     -0.0836      0.0070      0.0097
       104        -0.0001      0.0000     -0.0000      0.0000      0.0000
       105        -0.2630     -0.0307      0.0000      0.0701      0.0984
       106         0.0307     -0.2630      0.0000      0.0701      0.0984
       107         0.0182      0.0430     -0.0000      0.0022      0.0031
       108         0.0430     -0.0183      0.0000      0.0022      0.0031
       109        -0.0000     -0.0000     -0.4648      0.2160      0.3076
       110         0.1758     -0.0359     -0.0000      0.0322      0.0469
       111         0.0359      0.1758     -0.0001      0.0322      0.0469
       112        -0.0000     -0.0000     -0.2419      0.0585      0.0853
       113        -0.0100      0.0527      0.0000      0.0029      0.0044
       114         0.0527      0.0100      0.0000      0.0029      0.0044
       115        -0.0067      0.1318     -0.0000      0.0174      0.0267
       116        -0.1318     -0.0067      0.0000      0.0174      0.0267
       117         0.0001      0.0000      0.0000      0.0000      0.0000
       118         0.0409      0.1905      0.0000      0.0379      0.0602
       119         0.1905     -0.0409     -0.0000      0.0380      0.0602
       120         0.0002     -0.0001      0.0371      0.0014      0.0022
       121        -0.0000     -0.0000      0.0000      0.0000      0.0000
       122         0.0000      0.0000     -0.0000      0.0000      0.0000
       123         0.0630      0.0050     -0.0000      0.0040      0.0067
       124        -0.0050      0.0629     -0.0000      0.0040      0.0066
       125         0.0757      0.0223      0.0000      0.0062      0.0105
       126        -0.0223      0.0757      0.0000      0.0062      0.0105
       127        -0.0000      0.0000     -0.0862      0.0074      0.0127
       128        -0.0000     -0.0000     -0.0484      0.0023      0.0041
       129         0.0000     -0.0000      0.2225      0.0495      0.0890
       130        -0.0347      0.0030      0.0000      0.0012      0.0022
       131        -0.0030     -0.0347      0.0000      0.0012      0.0022
       132        -0.0066     -0.0313      0.0000      0.0010      0.0020
       133        -0.0313      0.0066     -0.0000      0.0010      0.0020
       134         0.0076     -0.0721      0.0000      0.0053      0.0102
       135         0.0721      0.0076      0.0000      0.0053      0.0102
       136         0.1033     -0.0753     -0.0000      0.0163      0.0326
       137         0.0753      0.1033      0.0000      0.0163      0.0326
       138        -0.0000      0.0000     -0.1719      0.0295      0.0610
       139         0.0000     -0.0000      0.0000      0.0000      0.0000
       140         0.1331      0.0371      0.0000      0.0191      0.0410
       141         0.0371     -0.1331      0.0000      0.0191      0.0410
       142        -0.0000     -0.0000      0.1935      0.0374      0.0810
       143         0.0000     -0.0000      0.1238      0.0153      0.0334
       144        -0.0218      0.0972      0.0001      0.0099      0.0217
       145         0.0972      0.0218      0.0000      0.0099      0.0217
       146         0.0678     -0.0048     -0.0000      0.0046      0.0110
       147         0.0048      0.0677     -0.0000      0.0046      0.0110
       148        -0.1030     -0.0708      0.0000      0.0156      0.0376
       149         0.0708     -0.1031     -0.0000      0.0156      0.0376
       150         0.0000     -0.0000      0.0776      0.0060      0.0148
       151         0.0000      0.0000      0.0000      0.0000      0.0000
       152         0.1110      0.1226     -0.0000      0.0274      0.0699
       153        -0.1226      0.1110     -0.0000      0.0274      0.0699
       154         0.0000     -0.0000     -0.1365      0.0186      0.0482
       155        -0.0565     -0.0008      0.0000      0.0032      0.0090
       156         0.0008     -0.0565     -0.0000      0.0032      0.0090
 Ground to excited state transition velocity dipole moments (Au):
       state          X           Y           Z        Dip. S.      Osc.
         1        -0.0000      0.0000     -0.2036      0.0415      0.1074
         2        -0.0195     -0.0821      0.0000      0.0071      0.0147
         3         0.0821     -0.0195     -0.0000      0.0071      0.0147
         4         0.0019     -0.0162     -0.0000      0.0003      0.0005
         5         0.0162      0.0019     -0.0000      0.0003      0.0005
         6        -0.0000      0.0000     -0.1113      0.0124      0.0196
         7         0.0203     -0.0275     -0.0000      0.0012      0.0017
         8        -0.0274     -0.0202     -0.0000      0.0012      0.0017
         9        -0.0000      0.0000     -0.4130      0.1705      0.2525
        10         0.2542     -0.3732     -0.0000      0.2039      0.2987
        11        -0.3732     -0.2542     -0.0000      0.2039      0.2987
        12         0.0000     -0.0000     -0.0000      0.0000      0.0000
        13        -0.2041     -0.1125      0.0000      0.0543      0.0689
        14         0.1125     -0.2041      0.0000      0.0543      0.0689
        15         0.0000      0.0000      0.2124      0.0451      0.0542
        16         0.0000     -0.0000      0.0000      0.0000      0.0000
        17        -0.0000      0.0000     -0.0000      0.0000      0.0000
        18        -0.0339     -0.1711     -0.0000      0.0304      0.0351
        19         0.1711     -0.0340      0.0000      0.0304      0.0351
        20        -0.0000     -0.0000     -0.1763      0.0311      0.0355
        21         0.0155     -0.0857      0.0001      0.0076      0.0086
        22        -0.0857     -0.0156      0.0000      0.0076      0.0086
        23         0.0000      0.0000     -0.1544      0.0238      0.0268
        24        -0.2922      0.5382      0.0000      0.3751      0.4137
        25         0.5382      0.2922     -0.0000      0.3751      0.4137
        26        -0.0070      0.0384     -0.0000      0.0015      0.0016
        27        -0.0383     -0.0069      0.0000      0.0015      0.0016
        28        -0.0002      0.0001      0.0000      0.0000      0.0000
        29        -0.0744      0.1857      0.0000      0.0400      0.0414
        30         0.1857      0.0744      0.0000      0.0400      0.0414
        31         0.0000      0.0000     -0.5112      0.2613      0.2672
        32        -0.1769      0.2996     -0.0000      0.1210      0.1192
        33         0.2996      0.1769     -0.0000      0.1210      0.1192
        34        -0.3137     -0.0276      0.0018      0.0992      0.0882
        35         0.0276     -0.3137     -0.0066      0.0992      0.0882
        36         0.0014     -0.0037      0.5563      0.3094      0.2752
        37        -0.0757      0.1551      0.0000      0.0298      0.0263
        38         0.1551      0.0757     -0.0000      0.0298      0.0263
        39        -0.0328     -0.0200      0.0000      0.0015      0.0013
        40        -0.0200      0.0328     -0.0000      0.0015      0.0013
        41        -0.0000      0.0000     -0.0000      0.0000      0.0000
        42         0.3588      0.1974      0.0000      0.1677      0.1400
        43        -0.1974      0.3588      0.0000      0.1677      0.1400
        44         0.0000      0.0000     -0.2258      0.0510      0.0407
        45         0.0000      0.0000      0.3342      0.1117      0.0849
        46        -0.0001      0.0000      0.0000      0.0000      0.0000
        47         0.1691     -0.1698      0.0000      0.0574      0.0431
        48        -0.1697     -0.1691     -0.0000      0.0574      0.0431
        49        -0.0000     -0.0000      0.2451      0.0601      0.0447
        50         0.0718      0.2042     -0.0000      0.0469      0.0341
        51        -0.2042      0.0718      0.0000      0.0469      0.0341
        52         0.0103     -0.0151      0.0000      0.0003      0.0002
        53        -0.0151     -0.0103     -0.0000      0.0003      0.0002
        54        -0.0000      0.0000      0.0000      0.0000      0.0000
        55         0.0000      0.0001     -0.7145      0.5105      0.3526
        56         0.0571     -0.4091     -0.0001      0.1706      0.1172
        57         0.4091      0.0571      0.0000      0.1706      0.1172
        58         0.0339     -0.6711      0.0000      0.4515      0.3050
        59        -0.6711     -0.0339      0.0000      0.4515      0.3050
        60        -0.0000     -0.0001     -0.3290      0.1083      0.0728
        61        -0.0000      0.0000      0.0241      0.0006      0.0004
        62         0.1762      0.0270     -0.0000      0.0318      0.0204
        63        -0.0270      0.1762      0.0000      0.0318      0.0204
        64         0.0000     -0.0000      0.2427      0.0589      0.0371
        65        -0.0054     -0.0729     -0.0000      0.0053      0.0031
        66        -0.0729      0.0054      0.0000      0.0053      0.0031
        67        -0.0000     -0.0000     -0.0000      0.0000      0.0000
        68        -0.0000     -0.0000     -0.1658      0.0275      0.0158
        69         0.0071      0.0596     -0.0000      0.0036      0.0020
        70        -0.0596      0.0072     -0.0000      0.0036      0.0020
        71         0.1015     -0.4447      0.0000      0.2080      0.1125
        72        -0.4447     -0.1015      0.0000      0.2080      0.1125
        73         0.0000      0.0000      0.1178      0.0139      0.0074
        74        -0.0299      0.0088      0.0000      0.0010      0.0005
        75        -0.0088     -0.0299      0.0000      0.0010      0.0005
        76        -0.0000      0.0000     -0.2694      0.0726      0.0364
        77        -0.0000      0.0000     -0.0000      0.0000      0.0000
        78         0.0858      0.0354      0.0000      0.0086      0.0043
        79        -0.0354      0.0858     -0.0000      0.0086      0.0043
        80        -0.1692     -0.1396      0.0000      0.0481      0.0236
        81         0.1396     -0.1691     -0.0000      0.0481      0.0236
        82        -0.0034      0.0745      0.0000      0.0056      0.0027
        83         0.0743      0.0034     -0.0000      0.0055      0.0027
        84        -0.0625     -0.4613      0.0000      0.2167      0.1029
        85        -0.4613      0.0625      0.0000      0.2167      0.1029
        86         0.0000     -0.0000      0.2156      0.0465      0.0212
        87         0.0000     -0.0000     -0.3624      0.1313      0.0567
        88         0.0000      0.0000     -0.0000      0.0000      0.0000
        89         0.0000      0.0000      0.4352      0.1894      0.0785
        90         0.1228      0.3257     -0.0000      0.1211      0.0497
        91         0.3257     -0.1227     -0.0000      0.1211      0.0497
        92         0.0629     -0.2631     -0.0001      0.0732      0.0280
        93        -0.2631     -0.0630      0.0000      0.0732      0.0280
        94         0.0001     -0.0001     -0.3103      0.0963      0.0367
        95        -0.0527      0.2261     -0.0002      0.0539      0.0205
        96         0.2261      0.0527      0.0001      0.0539      0.0205
        97        -0.0000     -0.0000      0.5526      0.3054      0.1139
        98        -0.0000     -0.0000      0.0000      0.0000      0.0000
        99         0.2987      0.0555      0.0000      0.0923      0.0322
       100        -0.0555      0.2987      0.0000      0.0923      0.0322
       101        -0.0075     -0.4203      0.0000      0.1767      0.0587
       102        -0.4203      0.0075      0.0000      0.1767      0.0587
       103        -0.0000      0.0000      0.1663      0.0277      0.0088
       104         0.0002     -0.0000      0.0000      0.0000      0.0000
       105         0.5012      0.0585     -0.0000      0.2546      0.0806
       106        -0.0585      0.5012     -0.0000      0.2546      0.0806
       107        -0.0401     -0.0949      0.0000      0.0106      0.0034
       108        -0.0949      0.0404     -0.0000      0.0106      0.0034
       109         0.0000      0.0000      0.8510      0.7243      0.2261
       110        -0.3645      0.0744      0.0001      0.1384      0.0423
       111        -0.0744     -0.3645      0.0002      0.1384      0.0423
       112         0.0001      0.0001      0.5125      0.2627      0.0800
       113         0.0291     -0.1535     -0.0000      0.0244      0.0071
       114        -0.1535     -0.0291     -0.0000      0.0244      0.0071
       115         0.0144     -0.2835      0.0000      0.0806      0.0233
       116         0.2834      0.0144     -0.0000      0.0805      0.0233
       117        -0.0002     -0.0000     -0.0000      0.0000      0.0000
       118        -0.0850     -0.3957     -0.0000      0.1638      0.0459
       119        -0.3957      0.0850      0.0001      0.1638      0.0459
       120        -0.0004      0.0001     -0.0788      0.0062      0.0017
       121         0.0000      0.0000     -0.0000      0.0000      0.0000
       122        -0.0000     -0.0000      0.0000      0.0000      0.0000
       123        -0.1591     -0.0126      0.0000      0.0255      0.0068
       124         0.0126     -0.1591      0.0000      0.0255      0.0068
       125        -0.2321     -0.0683     -0.0000      0.0585      0.0154
       126         0.0683     -0.2321     -0.0001      0.0585      0.0154
       127         0.0000     -0.0001      0.2240      0.0502      0.0131
       128        -0.0000      0.0000      0.1427      0.0204      0.0051
       129        -0.0000      0.0000     -0.4896      0.2397      0.0592
       130         0.0317     -0.0028     -0.0000      0.0010      0.0002
       131         0.0028      0.0317     -0.0000      0.0010      0.0002
       132         0.0297      0.1416     -0.0000      0.0209      0.0049
       133         0.1416     -0.0297      0.0000      0.0209      0.0049
       134        -0.0258      0.2447     -0.0000      0.0606      0.0139
       135        -0.2447     -0.0258      0.0000      0.0606      0.0139
       136        -0.3088      0.2251      0.0001      0.1460      0.0325
       137        -0.2251     -0.3088     -0.0000      0.1461      0.0325
       138         0.0000     -0.0000      0.5081      0.2582      0.0556
       139        -0.0000      0.0000     -0.0000      0.0000      0.0000
       140        -0.4422     -0.1234     -0.0000      0.2108      0.0436
       141        -0.1234      0.4423     -0.0001      0.2108      0.0437
       142         0.0000     -0.0000     -0.5907      0.3489      0.0716
       143        -0.0000      0.0000     -0.3899      0.1521      0.0310
       144         0.0567     -0.2525     -0.0002      0.0670      0.0136
       145        -0.2526     -0.0566     -0.0000      0.0670      0.0136
       146        -0.1936      0.0137      0.0000      0.0377      0.0070
       147        -0.0137     -0.1934      0.0000      0.0376      0.0070
       148         0.3306      0.2273     -0.0000      0.1610      0.0298
       149        -0.2273      0.3307      0.0000      0.1610      0.0298
       150        -0.0000      0.0000     -0.2680      0.0718      0.0130
       151        -0.0001     -0.0001     -0.0000      0.0000      0.0000
       152        -0.3877     -0.4284      0.0000      0.3338      0.0581
       153         0.4284     -0.3877      0.0001      0.3338      0.0581
       154        -0.0000      0.0001      0.4730      0.2237      0.0384
       155         0.2000      0.0027     -0.0000      0.0400      0.0063
       156        -0.0027      0.2000      0.0000      0.0400      0.0063
 Ground to excited state transition magnetic dipole moments (Au):
       state          X           Y           Z
         1         0.0000      0.0000     -0.0000
         2        -0.0972      0.0231      0.0000
         3        -0.0232     -0.0972     -0.0000
         4        -0.2433     -0.0280      0.0000
         5         0.0280     -0.2433     -0.0000
         6         0.0000      0.0000      0.0000
         7         0.1524      0.1123     -0.0000
         8         0.1123     -0.1524     -0.0000
         9         0.0000     -0.0000     -0.0000
        10        -0.1519     -0.1035      0.0000
        11        -0.1035      0.1519     -0.0000
        12        -0.0000     -0.0000     -0.2234
        13        -0.0499      0.0906     -0.0000
        14        -0.0906     -0.0499      0.0000
        15         0.0000     -0.0000      0.0000
        16         0.0000     -0.0000     -0.0246
        17         0.0000      0.0000      0.8425
        18         0.1799     -0.0357      0.0001
        19         0.0357      0.1799     -0.0000
        20        -0.0000      0.0000      0.0000
        21        -0.1601     -0.0291      0.0000
        22        -0.0290      0.1601     -0.0000
        23        -0.0000      0.0000     -0.0000
        24        -0.0563     -0.0306     -0.0000
        25        -0.0306      0.0563      0.0000
        26        -0.3179     -0.0577     -0.0000
        27         0.0577     -0.3178     -0.0000
        28        -0.0001     -0.0003      0.0490
        29        -0.0772     -0.0310     -0.0000
        30        -0.0310      0.0773      0.0000
        31         0.0000     -0.0000      0.0000
        32         0.0573      0.0338     -0.0000
        33         0.0338     -0.0573     -0.0000
        34        -0.0043      0.0489     -0.0000
        35        -0.0489     -0.0043      0.0000
        36        -0.0006     -0.0002      0.0000
        37         0.0158      0.0077     -0.0000
        38         0.0077     -0.0158      0.0000
        39         0.0428     -0.0702      0.0000
        40        -0.0702     -0.0428     -0.0000
        41         0.0000      0.0000      0.2846
        42         0.0545     -0.0991      0.0000
        43         0.0991      0.0545     -0.0000
        44         0.0000     -0.0000      0.0000
        45         0.0000      0.0000     -0.0000
        46         0.0000      0.0000      0.1516
        47        -0.0421     -0.0419      0.0000
        48        -0.0419      0.0421     -0.0000
        49        -0.0000      0.0000     -0.0000
        50         0.0218     -0.0077      0.0000
        51         0.0077      0.0218      0.0000
        52         0.0874      0.0595      0.0000
        53         0.0595     -0.0874     -0.0000
        54         0.0000     -0.0000      0.6010
        55        -0.0000      0.0000      0.0000
        56         0.1550      0.0216      0.0000
        57        -0.0216      0.1550      0.0000
        58         0.2170      0.0110      0.0000
        59         0.0110     -0.2170     -0.0000
        60         0.0000     -0.0000     -0.0000
        61        -0.0000     -0.0000      0.0000
        62         0.0148     -0.0968     -0.0000
        63         0.0968      0.0148     -0.0000
        64        -0.0000      0.0000      0.0000
        65         0.1348     -0.0099      0.0000
        66        -0.0099     -0.1348      0.0000
        67        -0.0000     -0.0000     -0.1151
        68        -0.0000     -0.0000      0.0000
        69        -0.1440      0.0173      0.0000
        70        -0.0173     -0.1440     -0.0000
        71         0.0272      0.0062     -0.0000
        72         0.0062     -0.0272      0.0000
        73         0.0000      0.0000     -0.0000
        74         0.0033      0.0112      0.0000
        75        -0.0112      0.0033      0.0000
        76        -0.0000     -0.0000     -0.0000
        77        -0.0000     -0.0000      0.2004
        78         0.0474     -0.1149     -0.0000
        79         0.1149      0.0474      0.0000
        80        -0.0025      0.0031     -0.0000
        81        -0.0030     -0.0025      0.0000
        82        -0.0821     -0.0038     -0.0000
        83        -0.0038      0.0822     -0.0000
        84        -0.1999      0.0271      0.0000
        85         0.0271      0.1999      0.0000
        86        -0.0000     -0.0000     -0.0000
        87        -0.0000     -0.0000     -0.0000
        88         0.0000     -0.0000      0.4381
        89         0.0000     -0.0000     -0.0000
        90         0.2164     -0.0816     -0.0000
        91        -0.0816     -0.2164     -0.0000
        92        -0.1701     -0.0407      0.0000
        93        -0.0407      0.1701     -0.0000
        94         0.0000      0.0000     -0.0000
        95        -0.0653     -0.0152      0.0000
        96        -0.0152      0.0653     -0.0000
        97        -0.0000      0.0000     -0.0000
        98        -0.0000      0.0000      0.2078
        99         0.0317     -0.1709      0.0000
       100         0.1709      0.0317      0.0000
       101         0.1597     -0.0029     -0.0000
       102        -0.0029     -0.1597     -0.0000
       103        -0.0000     -0.0000      0.0000
       104         0.0000      0.0002     -0.3263
       105        -0.0451      0.3861      0.0002
       106        -0.3861     -0.0451     -0.0000
       107        -0.0499      0.0213     -0.0000
       108         0.0211      0.0499      0.0000
       109        -0.0000      0.0000      0.0000
       110        -0.0189     -0.0924      0.0000
       111         0.0924     -0.0188     -0.0000
       112        -0.0000      0.0000      0.0000
       113         0.3440      0.0653     -0.0000
       114         0.0653     -0.3440     -0.0000
       115         0.1133      0.0057     -0.0000
       116        -0.0058      0.1133      0.0000
       117         0.0000      0.0000      0.6737
       118        -0.0825      0.0177     -0.0001
       119         0.0177      0.0825     -0.0003
       120         0.0000      0.0001     -0.0000
       121         0.0000     -0.0000     -0.3846
       122        -0.0000     -0.0000      0.0821
       123        -0.0202      0.2543     -0.0000
       124        -0.2543     -0.0202     -0.0000
       125         0.0152     -0.0515     -0.0000
       126         0.0515      0.0152     -0.0000
       127         0.0000      0.0000     -0.0000
       128         0.0000      0.0000     -0.0000
       129         0.0000     -0.0000     -0.0000
       130         0.0155      0.1777     -0.0000
       131        -0.1777      0.0155     -0.0000
       132         0.1419     -0.0298     -0.0000
       133        -0.0298     -0.1419     -0.0000
       134         0.0153      0.0016     -0.0000
       135        -0.0016      0.0153      0.0000
       136         0.0040      0.0056     -0.0000
       137        -0.0056      0.0041      0.0000
       138         0.0000      0.0000     -0.0000
       139        -0.0000      0.0000     -0.2393
       140        -0.0412      0.1478     -0.0000
       141         0.1478      0.0412      0.0000
       142         0.0000     -0.0000      0.0000
       143         0.0000      0.0000      0.0000
       144        -0.1067     -0.0239      0.0000
       145        -0.0239      0.1067      0.0000
       146         0.0011      0.0153     -0.0000
       147        -0.0153      0.0011     -0.0000
       148         0.0275     -0.0400      0.0000
       149         0.0400      0.0275     -0.0000
       150         0.0000      0.0000      0.0000
       151        -0.0000      0.0000     -0.0004
       152        -0.0674      0.0610      0.0000
       153        -0.0610     -0.0674      0.0000
       154         0.0000      0.0000     -0.0000
       155         0.0004     -0.0284      0.0000
       156         0.0284      0.0004      0.0000
 Ground to excited state transition velocity quadrupole moments (Au):
       state          XX          YY          ZZ          XY          XZ          YZ
         1        -0.0714     -0.0714      0.0532      0.0000      0.0000     -0.0000
         2         0.0404     -0.0404     -0.0000      0.0344     -0.0375     -0.1573
         3         0.0344     -0.0344     -0.0000     -0.0404      0.1573     -0.0375
         4         0.0925     -0.0925      0.0000      0.0344     -0.0256      0.2225
         5         0.0344     -0.0344      0.0000     -0.0925     -0.2225     -0.0256
         6        -0.0489     -0.0489     -0.7391     -0.0000     -0.0000      0.0000
         7         0.1085     -0.1084      0.0000     -0.0180      0.1094     -0.1484
         8         0.0180     -0.0180      0.0000      0.1084     -0.1484     -0.1094
         9        -0.0117     -0.0117      0.7806     -0.0000      0.0000     -0.0000
        10         0.2825     -0.2825      0.0000     -0.0361      0.1008     -0.1479
        11         0.0361     -0.0361      0.0000      0.2825     -0.1480     -0.1008
        12         0.0001     -0.0001     -0.0000     -0.0000      0.0000     -0.0000
        13         0.0234     -0.0235     -0.0000      0.7086     -0.1693     -0.0934
        14         0.7085     -0.7086     -0.0000     -0.0235      0.0934     -0.1694
        15        -0.1975     -0.1974      0.2686     -0.0000      0.0000     -0.0000
        16         0.0000     -0.0000      0.0000      0.0000      0.0000      0.0000
        17         0.0000     -0.0000     -0.0000     -0.0000     -0.0000     -0.0000
        18         0.1386     -0.1387     -0.0000      0.1091      0.0368      0.1855
        19         0.1090     -0.1090      0.0000     -0.1386     -0.1853      0.0368
        20        -0.9361     -0.9360     -0.4798     -0.0001     -0.0000     -0.0001
        21        -0.3926      0.3932      0.0002     -0.1178      0.1252     -0.6898
        22         0.1179     -0.1177      0.0001     -0.3929     -0.6898     -0.1252
        23        -0.8678     -0.8676     -0.6060     -0.0001      0.0000     -0.0002
        24         0.0538     -0.0538      0.0000     -0.0014     -0.0629      0.1158
        25         0.0015     -0.0014      0.0000      0.0538      0.1158      0.0629
        26        -0.4493      0.4494     -0.0000     -0.1347      0.0126     -0.0693
        27        -0.1348      0.1346      0.0000      0.4492      0.0696      0.0126
        28        -0.0005      0.0005      0.0000      0.0004     -0.0004      0.0002
        29        -0.3511      0.3511      0.0000     -0.0316     -0.2469      0.6162
        30         0.0316     -0.0317     -0.0000     -0.3513      0.6162      0.2469
        31         0.8017      0.8017     -0.3362      0.0000      0.0000      0.0000
        32         0.2893     -0.2892     -0.0000     -0.0182      0.2744     -0.4647
        33         0.0181     -0.0182      0.0000      0.2892     -0.4647     -0.2744
        34        -0.0317      0.0319     -0.0011      0.0790      0.2636      0.0232
        35         0.0787     -0.0792      0.0039      0.0318     -0.0232      0.2636
        36         0.0223      0.0202     -0.3239      0.0001     -0.0012      0.0031
        37         0.3217     -0.3217     -0.0000      0.0053      0.0225     -0.0462
        38        -0.0053      0.0053      0.0000      0.3217     -0.0462     -0.0226
        39        -0.0783      0.0783      0.0000     -1.0171     -0.0606     -0.0369
        40         1.0171     -1.0171      0.0000     -0.0783     -0.0370      0.0606
        41         0.0000     -0.0000      0.0000      0.0000      0.0000     -0.0000
        42        -0.0029      0.0029      0.0000     -0.0908     -0.1815     -0.0998
        43        -0.0908      0.0908     -0.0000      0.0029      0.0998     -0.1815
        44         0.1610      0.1610      0.0925     -0.0000     -0.0000      0.0000
        45         0.9935      0.9935      0.7112      0.0000     -0.0000     -0.0000
        46         0.0000      0.0000      0.0000     -0.0000      0.0001     -0.0001
        47        -0.0072      0.0073      0.0001      0.0023     -0.3492      0.3506
        48        -0.0022      0.0025      0.0002     -0.0073      0.3506      0.3492
        49        -0.3982     -0.3982     -1.1004     -0.0000      0.0000      0.0001
        50        -0.0968      0.0968      0.0000     -0.1014      0.0916      0.2604
        51        -0.1014      0.1014      0.0000      0.0968     -0.2604      0.0915
        52        -0.3401      0.3401     -0.0000      0.0432     -0.0698      0.1027
        53        -0.0432      0.0432      0.0000     -0.3401      0.1027      0.0698
        54         0.0000     -0.0000      0.0000     -0.0000      0.0000     -0.0000
        55        -0.3347     -0.3348      0.1242      0.0001     -0.0000     -0.0000
        56        -0.8707      0.8706      0.0000     -0.3002     -0.0354      0.2535
        57        -0.3002      0.3002      0.0000      0.8706     -0.2535     -0.0354
        58         0.0134     -0.0133     -0.0001      0.0060     -0.0267      0.5286
        59        -0.0059      0.0060     -0.0001      0.0134      0.5286      0.0267
        60        -0.7356     -0.7356      0.9415     -0.0000      0.0000      0.0000
        61         0.1332      0.1333      0.1921     -0.0000      0.0000     -0.0000
        62        -0.0154      0.0155     -0.0000      0.0469      0.6087      0.0933
        63         0.0469     -0.0469      0.0000      0.0155     -0.0933      0.6087
        64        -0.3088     -0.3088      0.3418      0.0000      0.0000     -0.0000
        65        -0.3836      0.3836      0.0000     -0.2321     -0.0050     -0.0676
        66         0.2321     -0.2321      0.0000     -0.3836     -0.0676      0.0050
        67        -0.0000     -0.0000     -0.0000     -0.0000     -0.0000     -0.0000
        68        -0.5872     -0.5873     -0.3425      0.0000     -0.0000     -0.0000
        69         0.1468     -0.1468      0.0000      0.0983     -0.0345     -0.2873
        70         0.0983     -0.0983     -0.0000     -0.1467      0.2873     -0.0344
        71         0.7505     -0.7505     -0.0000      0.1887      0.0673     -0.2951
        72        -0.1888      0.1888     -0.0000      0.7505     -0.2951     -0.0674
        73        -0.2423     -0.2423     -1.2187     -0.0000     -0.0000      0.0000
        74        -0.2122      0.2122      0.0000      0.2241     -0.3847      0.1137
        75         0.2241     -0.2241      0.0000      0.2122     -0.1137     -0.3847
        76         0.4178      0.4178     -0.9245      0.0000     -0.0000      0.0000
        77        -0.0001      0.0001     -0.0000      0.0000     -0.0000     -0.0000
        78        -0.0626      0.0626     -0.0000      0.7888      0.4020      0.1659
        79         0.7888     -0.7888     -0.0000      0.0626     -0.1660      0.4020
        80        -0.0180      0.0179     -0.0000     -0.0806     -0.5384     -0.4444
        81        -0.0805      0.0805     -0.0000      0.0179      0.4444     -0.5384
        82         0.0514     -0.0515     -0.0000      0.0232      0.0046     -0.1000
        83        -0.0234      0.0233      0.0000      0.0516     -0.1001     -0.0047
        84         0.4673     -0.4673     -0.0000      0.3235     -0.0008     -0.0063
        85        -0.3234      0.3235      0.0000      0.4673     -0.0062      0.0009
        86         0.6325      0.6325      0.3729     -0.0000     -0.0000     -0.0000
        87         0.1033      0.1033     -0.0901     -0.0000      0.0000     -0.0000
        88         0.0000     -0.0000     -0.0000      0.0000      0.0000      0.0001
        89         0.1054      0.1054     -0.1140      0.0000      0.0001      0.0000
        90         0.2067     -0.2068     -0.0000      0.2267      0.2748      0.7290
        91        -0.2266      0.2267     -0.0000      0.2068      0.7290     -0.2748
        92        -0.3847      0.3849      0.0001     -0.0924     -0.0515      0.2155
        93         0.0926     -0.0927     -0.0000     -0.3847      0.2155      0.0515
        94         1.5103      1.5095      0.6607     -0.0001      0.0000     -0.0000
        95        -0.6374      0.6391      0.0003     -0.1574     -0.0177      0.0759
        96         0.1570     -0.1577     -0.0002     -0.6383      0.0759      0.0177
        97        -0.3809     -0.3809     -0.3673     -0.0000     -0.0000      0.0000
        98         0.0000     -0.0000      0.0000      0.0000     -0.0000     -0.0000
        99         0.0171     -0.0172     -0.0000     -0.0581      0.6463      0.1200
       100        -0.0581      0.0581      0.0000     -0.0171     -0.1200      0.6463
       101        -0.2065      0.2065     -0.0000     -0.1098      0.0089      0.4990
       102         0.1098     -0.1098     -0.0000     -0.2065      0.4990     -0.0089
       103         0.5302      0.5300     -1.1053     -0.0000     -0.0000      0.0000
       104         0.0000     -0.0000     -0.0000      0.0002     -0.0001      0.0000
       105        -0.1161      0.1161     -0.0000      0.3146     -0.1038     -0.0121
       106         0.3139     -0.3139     -0.0000      0.1165      0.0122     -0.1039
       107        -0.8341      0.8341     -0.0000     -0.9926     -0.0898     -0.2117
       108         0.9928     -0.9928      0.0000     -0.8340     -0.2117      0.0898
       109        -0.5851     -0.5853      0.6064      0.0000      0.0000      0.0000
       110         0.0741     -0.0740      0.0001     -0.0930      0.4109     -0.0838
       111        -0.0929      0.0931      0.0003     -0.0740      0.0839      0.4109
       112         0.5248      0.5247      1.1617      0.0000     -0.0001     -0.0001
       113         0.2688     -0.2688     -0.0000      0.0782     -0.1349      0.7102
       114        -0.0782      0.0782     -0.0000      0.2688      0.7103      0.1348
       115        -0.3019      0.3020      0.0000     -0.1348     -0.0205      0.4041
       116        -0.1349      0.1348     -0.0000      0.3019     -0.4041     -0.0205
       117         0.0001     -0.0002      0.0000     -0.0003     -0.0001      0.0000
       118        -0.6112      0.6111      0.0002     -0.4965     -0.0692     -0.3221
       119         0.4969     -0.4961     -0.0009     -0.6112     -0.3221      0.0692
       120        -0.4123     -0.4135      0.9985     -0.0005     -0.0003      0.0001
       121         0.0000     -0.0000     -0.0000      0.0000      0.0001      0.0000
       122        -0.0000      0.0000     -0.0000      0.0000      0.0001      0.0000
       123         0.1336     -0.1336      0.0000     -0.3236     -0.5067     -0.0402
       124        -0.3236      0.3236     -0.0000     -0.1336      0.0403     -0.5067
       125         0.0323     -0.0323     -0.0000     -0.1729      0.7691      0.2264
       126        -0.1728      0.1729      0.0001     -0.0322     -0.2264      0.7691
       127        -0.2652     -0.2651     -0.3186     -0.0000     -0.0000      0.0002
       128         0.1186      0.1186     -0.1831     -0.0000     -0.0000      0.0000
       129         0.2976      0.2976     -0.1654      0.0000     -0.0000      0.0000
       130        -0.1160      0.1160     -0.0000      0.1858      0.1053     -0.0092
       131         0.1858     -0.1858     -0.0000      0.1160      0.0092      0.1053
       132         0.3376     -0.3376      0.0000      0.2718      0.0452      0.2152
       133        -0.2718      0.2718     -0.0000      0.3376      0.2152     -0.0452
       134         0.1928     -0.1928     -0.0000      0.0739     -0.0099      0.0944
       135         0.0739     -0.0739     -0.0000     -0.1927     -0.0944     -0.0099
       136        -0.1089      0.1089     -0.0000      0.0553      0.3519     -0.2565
       137         0.0553     -0.0553      0.0000      0.1089      0.2565      0.3519
       138        -0.0994     -0.0994     -0.2585      0.0000     -0.0000      0.0000
       139        -0.0000      0.0000      0.0000     -0.0000     -0.0000     -0.0000
       140        -0.0464      0.0464      0.0000      0.2304      0.2454      0.0685
       141        -0.2304      0.2304      0.0001     -0.0464      0.0685     -0.2453
       142        -0.2216     -0.2217      0.6823     -0.0000     -0.0000      0.0000
       143        -0.1173     -0.1174      0.5650      0.0000      0.0000      0.0000
       144        -0.1546      0.1545      0.0002     -0.0395      0.0216     -0.0961
       145         0.0394     -0.0394      0.0000     -0.1545     -0.0961     -0.0216
       146         0.1013     -0.1013     -0.0000     -0.1684     -0.0036      0.0003
       147        -0.1683      0.1683      0.0000     -0.1012     -0.0003     -0.0036
       148         0.0205     -0.0205      0.0000      0.1550     -0.0411     -0.0283
       149         0.1550     -0.1551      0.0000     -0.0205      0.0283     -0.0411
       150         0.0941      0.0941     -0.1861     -0.0000     -0.0000      0.0000
       151         0.0000      0.0000      0.0000     -0.0000      0.0001      0.0000
       152        -0.0158      0.0158     -0.0000     -0.0414      0.2715      0.3000
       153        -0.0415      0.0414     -0.0000      0.0158     -0.2999      0.2715
       154        -0.1257     -0.1257     -0.2238     -0.0000      0.0000     -0.0000
       155        -0.0535      0.0535      0.0000      0.1088     -0.1961     -0.0027
       156         0.1088     -0.1088     -0.0000      0.0535      0.0027     -0.1961
 <0|del|b> * <b|rxdel|0> + <0|del|b> * <b|delr+rdel|0>
 Rotatory Strengths (R) in cgs (10**-40 erg-esu-cm/Gauss)
       state          XX          YY          ZZ    R(velocity)    E-M Angle
         1        -0.0000      0.0003     -0.0000      0.0001       90.00
         2        -5.4353      5.4355      0.0004      0.0002       90.00
         3         5.4354     -5.4358     -0.0002     -0.0002       90.00
         4         0.0357     -0.0358     -0.0009     -0.0003       90.00
         5        -0.0357      0.0358      0.0002      0.0001       90.00
         6         0.0006     -0.0007     -0.0000     -0.0000       90.00
         7        -0.0642      0.0635     -0.0066     -0.0025       90.00
         8         0.0646     -0.0640      0.0055      0.0020       90.00
         9         0.0007     -0.0004      0.0000      0.0001       90.00
        10        59.2326    -59.2336     -0.0027     -0.0013       90.00
        11       -59.2344     59.2355      0.0044      0.0018       90.00
        12         0.0000      0.0000     -0.0000      0.0000       90.00
        13       -19.6638     19.6653     -0.0013      0.0001       90.00
        14        19.6634    -19.6665      0.0020     -0.0004       90.00
        15         0.0007      0.0011      0.0000      0.0006       90.00
        16        -0.0000     -0.0000     -0.0000     -0.0000       90.00
        17        -0.0004     -0.0004     -0.0000     -0.0003       90.00
        18         7.5887     -7.5888      0.0002      0.0000       90.00
        19        -7.5871      7.5871     -0.0004     -0.0002       90.00
        20         0.0050     -0.0058     -0.0000     -0.0003       90.00
        21         7.9050     -7.8883     -0.0091      0.0025       90.00
        22        -7.9292      7.9093      0.0110     -0.0030       90.00
        23         0.0057     -0.0052      0.0000      0.0002       90.00
        24        10.1774    -10.1742     -0.0043     -0.0004       90.00
[...]
      2   0.116612D-04  0.398774D-05  0.000000D+00  0.238291D-04  0.666478D-01
      3   0.116971D-04  0.114115D-04 -0.157655D-04 -0.115044D-04 -0.180887D+00
      4   0.158559D+00 -0.180742D+00  0.000000D+00  0.255200D+00 -0.211199D-04
      5  -0.177460D-04 -0.396933D-05 -0.315741D-05 -0.430814D-04 -0.120322D+00
      6  -0.160668D-04 -0.187815D-04  0.271239D-04  0.218121D-04  0.326565D+00
      7  -0.215608D+00  0.362378D+00  0.186312D-05 -0.435232D+00  0.372766D-04
      8   0.266522D-05  0.809300D-05 -0.271075D-04 -0.141971D-04 -0.217047D+00
      9  -0.371296D-05 -0.120883D-05 -0.109754D-04 -0.237347D-04 -0.799703D-01
     10   0.000000D+00  0.183856D-05 -0.438063D+00  0.000000D+00  0.395990D-04
     11   0.632535D+00  0.103349D+00  0.153763D-04  0.105389D+00  0.203349D+00
     12   0.632453D+00  0.103314D+00 -0.869542D-05  0.105392D+00 -0.203432D+00
     13   0.372943D+00 -0.901281D-01  0.000000D+00 -0.113960D+00 -0.119155D-04
     14   0.465760D-05  0.199345D-04 -0.233431D-04 -0.388455D-04 -0.229732D+00
     15  -0.322295D-05  0.387481D-05  0.175751D-04  0.650263D-04  0.269341D+00
     16   0.193291D-04  0.274204D-04 -0.652559D-04 -0.463553D-04 -0.731009D+00
                91            92            93            94            95 
      1  -0.548624D+02 -0.547432D+02 -0.547432D+02 -0.547362D+02 -0.547346D+02
      2   0.180882D+00  0.267004D-01 -0.108160D+00  0.437660D-04 -0.332861D-01
      3   0.666440D-01  0.108155D+00  0.267419D-01  0.595261D-04 -0.138063D+00
      4  -0.195317D-04 -0.269632D-04  0.125703D-05 -0.175789D+00 -0.887667D-04
      5  -0.326556D+00 -0.648454D-01  0.262613D+00 -0.660483D-04  0.544205D-01
      6  -0.120315D+00 -0.262604D+00 -0.649140D-01 -0.917405D-04  0.225667D+00
      7   0.339962D-04  0.507108D-04 -0.106607D-05  0.310259D+00  0.155956D-03
      8   0.799675D-01  0.169838D+00  0.419508D-01 -0.448815D-04  0.651444D-01
      9  -0.217051D+00 -0.419744D-01  0.169838D+00  0.353834D-04 -0.156727D-01
     10   0.000000D+00 -0.140075D-05  0.144646D-05  0.000000D+00 -0.228455D-05
     11  -0.229703D+00 -0.383255D+00  0.982860D-01  0.151032D+01 -0.635000D+00
     12   0.229730D+00  0.383496D+00 -0.983954D-01  0.150946D+01  0.636638D+00
     13  -0.275532D-04  0.747608D-04 -0.276653D-04  0.660693D+00  0.347954D-03
     14  -0.203393D+00  0.981571D-01  0.383283D+00  0.675562D-04  0.166925D+00
     15   0.731024D+00 -0.531247D-01  0.215062D+00  0.282578D-04 -0.182271D-01
     16   0.269347D+00 -0.215064D+00 -0.531210D-01  0.364341D-04 -0.757937D-01
                96            97            98            99           100 
      1  -0.547346D+02 -0.546984D+02 -0.545963D+02 -0.545759D+02 -0.545759D+02
      2   0.138063D+00 -0.693138D-05 -0.851808D-05  0.176371D+00 -0.341174D-01
      3  -0.332526D-01  0.870253D-05  0.620453D-05 -0.341178D-01 -0.176367D+00
      4   0.402408D-04  0.275994D+00  0.000000D+00  0.395871D-05  0.186383D-05
      5  -0.225671D+00  0.132466D-04  0.140993D-04 -0.298239D+00  0.576919D-01
      6   0.543369D-01 -0.216451D-04 -0.972473D-05  0.576928D-01  0.298232D+00
      7  -0.712383D-04 -0.552601D+00  0.000000D+00 -0.928276D-05 -0.223579D-05
      8   0.157274D-01  0.144349D-04  0.584917D-05 -0.330198D-01 -0.170688D+00
      9   0.651384D-01  0.128056D-04  0.864792D-05 -0.170685D+00  0.330195D-01
     10   0.140404D-05  0.142271D-05 -0.207776D+00 -0.118262D-04 -0.584755D-05
     11   0.166448D+00 -0.380945D+00  0.824591D-05  0.180114D-01 -0.577903D-01
     12  -0.167193D+00 -0.380904D+00 -0.753141D-05 -0.180268D-01  0.578262D-01
     13  -0.165934D-03 -0.367327D+00  0.000000D+00 -0.226299D-04  0.000000D+00
     14   0.635870D+00  0.151350D-04 -0.162712D-04  0.578056D-01  0.180116D-01
     15   0.757738D-01 -0.129089D-04 -0.419808D-04  0.645424D+00 -0.124849D+00
     16  -0.183085D-01 -0.513887D-05  0.366130D-04 -0.124859D+00 -0.645422D+00
               101           102           103           104           105 
      1  -0.544775D+02 -0.544775D+02 -0.543995D+02 -0.543875D+02 -0.543813D+02
      2  -0.208693D-02 -0.199812D+00 -0.780169D-05  0.128041D-03  0.262753D+00
      3   0.199814D+00 -0.208736D-02 -0.981168D-05  0.511357D-05 -0.326739D-01
      4   0.000000D+00  0.890016D-05  0.836446D-01  0.655158D-05 -0.157181D-04
      5   0.439039D-02  0.420379D+00  0.159496D-04 -0.244442D-03 -0.500771D+00
      6  -0.420381D+00  0.439208D-02  0.188892D-04 -0.813425D-05  0.622763D-01
      7  -0.140270D-05 -0.183307D-04 -0.166341D+00 -0.128765D-04  0.272238D-04
      8  -0.159698D+00  0.167019D-02  0.114198D-04 -0.134515D-04  0.479294D-01
      9  -0.166672D-02 -0.159701D+00 -0.871012D-05  0.187599D-03  0.385718D+00
     10   0.234099D-05  0.479155D-05 -0.141075D-04  0.326253D+00 -0.157511D-03
     11  -0.204847D+00  0.112872D+00  0.530245D+00  0.453666D-04 -0.120744D+00
     12   0.204835D+00 -0.112859D+00  0.530043D+00 -0.875997D-05  0.120786D+00
     13  -0.608434D-05 -0.179903D-04 -0.110532D+01 -0.499442D-04 -0.386395D-04
     14   0.112853D+00  0.204854D+00  0.318777D-04 -0.153099D-03 -0.312788D+00
     15   0.521403D-02  0.499013D+00 -0.326597D-04 -0.648270D-04 -0.103716D+00
     16  -0.499007D+00  0.521594D-02 -0.561157D-05 -0.255017D-04  0.128418D-01
               106           107           108           109           110 
      1  -0.543813D+02 -0.543785D+02 -0.543785D+02 -0.543507D+02 -0.543034D+02
      2  -0.326479D-01 -0.178384D-01 -0.431382D-01  0.179581D-04 -0.176071D+00
      3  -0.262744D+00  0.431495D-01 -0.179989D-01 -0.106792D-04 -0.345614D-01
      4  -0.229290D-04  0.145247D-04 -0.250243D-04  0.464783D+00  0.259049D-04
      5   0.622191D-01  0.393891D-01  0.951914D-01 -0.341589D-04  0.365006D+00
      6   0.500752D+00 -0.952116D-01  0.396956D-01  0.206575D-04  0.716475D-01
      7   0.446321D-04 -0.257266D-04  0.446633D-04 -0.851035D+00 -0.530581D-04
      8   0.385739D+00  0.500608D-01 -0.207008D-01  0.751860D-05  0.181615D-01
      9  -0.479553D-01  0.209288D-01  0.500590D-01  0.119712D-04 -0.925097D-01
     10   0.232715D-04  0.291753D-04 -0.140180D-04 -0.273810D-05 -0.276150D-05
     11   0.312119D+00 -0.819205D+00  0.100511D+01 -0.585123D+00  0.754469D-01
     12  -0.312102D+00  0.819178D+00 -0.100513D+01 -0.585290D+00 -0.753438D-01
     13  -0.135610D-04 -0.497656D-05  0.353594D-04  0.606414D+00  0.796052D-04
     14  -0.121147D+00  0.100496D+01  0.819073D+00 -0.125360D-04  0.919339D-01
     15   0.129472D-01 -0.882605D-01 -0.212363D+00  0.205529D-05  0.411510D+00
     16   0.103805D+00  0.212339D+00 -0.882275D-01 -0.804935D-05  0.807848D-01
               111           112           113           114           115 
      1  -0.543034D+02 -0.542990D+02 -0.542103D+02 -0.542103D+02 -0.541861D+02
      2  -0.345668D-01  0.277964D-04  0.104016D-01 -0.526439D-01  0.767593D-02
      3   0.176071D+00 -0.474836D-04  0.526282D-01  0.103932D-01  0.131743D+00
      4   0.750590D-04  0.241884D+00 -0.808076D-05 -0.201150D-05  0.585260D-05
      5   0.716594D-01 -0.585919D-04 -0.302839D-01  0.153268D+00 -0.165079D-01
      6  -0.365004D+00  0.975110D-04 -0.153234D+00 -0.302667D-01 -0.283360D+00
      7  -0.156834D-03 -0.512505D+00  0.162195D-04  0.281741D-05 -0.117426D-04
      8  -0.925129D-01  0.256129D-04 -0.343537D+00 -0.678787D-01 -0.113246D+00
      9  -0.181583D-01  0.139946D-04  0.678888D-01 -0.343551D+00  0.658238D-02
     10   0.000000D+00  0.000000D+00  0.589747D-05  0.936953D-05  0.570438D-05
     11  -0.917966D-01  0.524764D+00  0.267615D+00 -0.821642D-01 -0.299899D+00
     12   0.920197D-01  0.524707D+00 -0.267648D+00  0.821923D-01  0.299919D+00
     13   0.312942D-03  0.116165D+01 -0.177414D-04 -0.268411D-04  0.125111D-04
     14   0.753886D-01 -0.290751D-04 -0.822284D-01 -0.267625D+00  0.139307D+00
     15   0.807881D-01 -0.497560D-04 -0.140156D+00  0.709256D+00 -0.235073D-01
     16  -0.411508D+00  0.102462D-03 -0.709208D+00 -0.140119D+00 -0.403950D+00
               116           117           118           119           120 
      1  -0.541861D+02 -0.541126D+02 -0.541061D+02 -0.541061D+02 -0.541024D+02
      2   0.131731D+00 -0.870871D-04 -0.394755D-01 -0.190767D+00 -0.176676D-03
      3  -0.767625D-02  0.840326D-05  0.190764D+00 -0.394766D-01 -0.658227D-04
      4  -0.285738D-05 -0.220802D-05 -0.490946D-05  0.359295D-04 -0.370587D-01
      5  -0.283333D+00  0.182258D-03  0.820100D-01  0.396320D+00  0.367303D-03
      6   0.165097D-01 -0.187587D-04 -0.396313D+00  0.820130D-01  0.137686D-03
      7   0.652743D-05  0.480495D-05  0.104794D-04 -0.757473D-04  0.788227D-01
      8   0.660118D-02 -0.138544D-04  0.825869D-01 -0.170921D-01 -0.268614D-04
      9   0.113246D+00  0.237223D-04  0.170960D-01  0.825899D-01  0.763909D-04
     10  -0.937837D-05 -0.673729D+00  0.728872D-04  0.280368D-03  0.301063D-04
     11  -0.139344D+00  0.118527D-03 -0.603702D+00  0.505974D+00 -0.412330D+00
     12   0.139329D+00 -0.158436D-03  0.603595D+00 -0.505185D+00 -0.413502D+00
     13  -0.700461D-05  0.405992D-04  0.150172D-03 -0.936570D-03  0.998493D+00
     14  -0.299882D+00  0.295478D-03  0.505578D+00  0.603686D+00  0.503210D-03
     15  -0.403937D+00 -0.124044D-03 -0.667592D-01 -0.322614D+00 -0.279573D-03
     16   0.235484D-01 -0.227893D-05  0.322567D+00 -0.667620D-01 -0.945510D-04
               121           122           123           124           125 
      1  -0.540048D+02 -0.539887D+02 -0.539851D+02 -0.539851D+02 -0.539593D+02
      2   0.855391D-05  0.000000D+00 -0.629138D-01  0.546428D-02 -0.755050D-01
      3  -0.518020D-05  0.661489D-05  0.546646D-02  0.629044D-01  0.228370D-01
      4   0.000000D+00  0.000000D+00  0.168084D-05  0.000000D+00 -0.149313D-05
      5  -0.211185D-04  0.266726D-05  0.159005D+00 -0.138085D-01  0.231576D+00
      6   0.125223D-04 -0.190869D-04 -0.138154D-01 -0.158978D+00 -0.700429D-01
      7   0.114383D-05  0.000000D+00 -0.385868D-05  0.000000D+00  0.256741D-05
      8  -0.733701D-05  0.776334D-05  0.220915D-01  0.254188D+00 -0.155572D-01
      9  -0.317261D-04 -0.244636D-04  0.254185D+00 -0.220929D-01 -0.514182D-01
     10   0.384615D+00 -0.820987D-01  0.305386D-04  0.135734D-04  0.763288D-05
     11   0.142163D-05 -0.289502D-04  0.138392D+00 -0.321567D+00  0.348771D-01
     12   0.000000D+00  0.278806D-04 -0.138425D+00  0.321591D+00 -0.348336D-01
     13  -0.138565D-05 -0.275648D-05  0.202971D-04 -0.142556D-04 -0.475154D-05
     14  -0.439212D-04 -0.657676D-05  0.321587D+00  0.138429D+00  0.172364D+00
     15   0.688444D-04  0.741293D-04 -0.506358D+00  0.440455D-01  0.767430D+00
     16  -0.283290D-04 -0.103196D-05  0.440083D-01  0.506416D+00 -0.232151D+00
               126           127           128           129           130 
      1  -0.539593D+02 -0.539277D+02 -0.538437D+02 -0.537883D+02 -0.537227D+02
      2   0.228390D-01  0.165505D-05  0.000000D+00 -0.467039D-05  0.347154D-01
      3   0.755074D-01  0.175995D-04 -0.192289D-05 -0.126945D-05  0.277630D-02
      4  -0.227415D-04  0.862219D-01  0.484332D-01 -0.222474D+00 -0.244708D-05
      5  -0.700481D-01 -0.707580D-05  0.000000D+00  0.868197D-05 -0.317020D-01
      6  -0.231585D+00 -0.543149D-04  0.410654D-05  0.313537D-05 -0.253499D-02
      7   0.595767D-04 -0.223983D+00 -0.142668D+00  0.489581D+00  0.380305D-05
      8  -0.513952D-01 -0.126021D-04 -0.252907D-05 -0.122995D-05 -0.142160D-01
      9   0.155491D-01  0.000000D+00  0.172727D-05 -0.403165D-05  0.177765D+00
     10   0.878617D-05  0.000000D+00  0.000000D+00  0.000000D+00  0.463884D-05
     11  -0.172289D+00 -0.265153D+00  0.118618D+00  0.297570D+00 -0.118715D+00
     12   0.172443D+00 -0.265116D+00  0.118597D+00  0.297577D+00  0.118730D+00
     13   0.115084D-03 -0.318618D+00 -0.183125D+00 -0.165377D+00 -0.151748D-05
     14   0.348173D-01  0.165062D-04  0.000000D+00 -0.119837D-05 -0.184025D+00
     15  -0.232129D+00 -0.358808D-04 -0.445284D-05 -0.909620D-05  0.105402D+00
     16  -0.767412D+00 -0.195611D-03 -0.528252D-05 -0.455730D-05  0.843442D-02
               131           132           133           134           135 
      1  -0.537227D+02 -0.536254D+02 -0.536254D+02 -0.535868D+02 -0.535868D+02
      2   0.277617D-02  0.635050D-02  0.313939D-01 -0.813603D-02 -0.720809D-01
      3  -0.347162D-01 -0.313958D-01  0.635062D-02 -0.720803D-01  0.813002D-02
      4   0.000000D+00  0.000000D+00  0.166336D-05 -0.146260D-05  0.000000D+00
      5  -0.253452D-02 -0.286836D-01 -0.141792D+00  0.276017D-01  0.244547D+00
      6   0.317053D-01  0.141799D+00 -0.286834D-01  0.244545D+00 -0.275823D-01
      7   0.202466D-05  0.265637D-05 -0.217921D-05  0.329558D-05 -0.155537D-05
      8   0.177764D+00 -0.142133D+00  0.287518D-01 -0.152635D-01  0.171976D-02
      9   0.142187D-01 -0.287520D-01 -0.142138D+00  0.172376D-02  0.152604D-01
     10   0.219787D-05  0.430789D-05  0.183058D-05  0.112411D-05 -0.356544D-05
     11   0.184016D+00  0.333515D+00 -0.276797D+00  0.191637D+00  0.767294D-01
     12  -0.184019D+00 -0.333520D+00  0.276799D+00 -0.191631D+00 -0.767183D-01
     13  -0.528561D-05  0.464697D-05 -0.172355D-04 -0.101479D-05 -0.112259D-05
     14  -0.118710D+00 -0.276817D+00 -0.333514D+00 -0.767215D-01  0.191618D+00
     15   0.842352D-02  0.436088D-01  0.215534D+00 -0.106357D-01 -0.943578D-01
     16  -0.105387D+00 -0.215507D+00  0.436037D-01 -0.943585D-01  0.106357D-01
               136           137           138           139           140 
      1  -0.534911D+02 -0.534911D+02 -0.533911D+02 -0.533048D+02 -0.532664D+02
      2  -0.103879D+00 -0.745394D-01  0.311378D-05 -0.711089D-05 -0.132775D+00
      3  -0.745363D-01  0.103884D+00  0.906984D-05  0.000000D+00  0.381310D-01
      4   0.250160D-04 -0.982520D-05  0.171885D+00 -0.110886D-04 -0.123746D-04
      5   0.310500D+00  0.222803D+00 -0.658175D-05  0.194575D-04  0.441298D+00
      6   0.222789D+00 -0.310515D+00 -0.267963D-04  0.537930D-05 -0.126734D+00
      7  -0.713412D-04  0.285238D-04 -0.508125D+00  0.339886D-04  0.366529D-04
      8  -0.400662D-02  0.558612D-02 -0.155726D-05  0.100437D-05  0.423425D-01
      9   0.558142D-02  0.401281D-02  0.112976D-04  0.937016D-05  0.147443D+00
     10   0.131505D-05 -0.245878D-05  0.102178D-04  0.239317D+00  0.499332D-05
     11  -0.109702D+00  0.537020D-01 -0.993918D-01 -0.414809D-05 -0.498008D-01
     12   0.109691D+00 -0.536932D-01 -0.994057D-01  0.277146D-05  0.498111D-01
     13  -0.414646D-04  0.107422D-04 -0.258539D+00  0.244313D-04  0.218430D-04
     14  -0.536911D-01 -0.109700D+00 -0.302898D-05  0.253720D-04 -0.229673D+00
     15   0.353810D+00  0.253873D+00 -0.197876D-04 -0.601505D-05  0.244844D+00
     16   0.253876D+00 -0.353804D+00 -0.282547D-04  0.649022D-05 -0.702914D-01
               141           142           143           144           145 
      1  -0.532664D+02 -0.532403D+02 -0.532151D+02 -0.531979D+02 -0.531979D+02
      2  -0.381252D-01  0.111161D-05 -0.599827D-05  0.225236D-01 -0.969935D-01
      3  -0.132791D+00  0.000000D+00 -0.175589D-04  0.969873D-01  0.225104D-01
      4  -0.338896D-04 -0.193511D+00 -0.123759D+00 -0.539819D-04 -0.590970D-05
      5   0.126718D+00 -0.702547D-05  0.164072D-04 -0.585504D-01  0.252130D+00
      6   0.441340D+00 -0.897936D-05  0.418805D-04 -0.252106D+00 -0.585060D-01
      7   0.102092D-03  0.590653D+00  0.389940D+00  0.168013D-03  0.189535D-04
      8  -0.147453D+00  0.000000D+00 -0.185999D-04  0.106539D+00  0.247303D-01
      9   0.423341D-01 -0.475953D-05  0.308234D-05 -0.247429D-01  0.106553D+00
     10  -0.563024D-05 -0.212952D-05  0.000000D+00 -0.389886D-05 -0.185522D-04
     11  -0.229671D+00 -0.221611D+00 -0.117327D+00 -0.153998D+00  0.417399D-01
     12   0.229638D+00 -0.221718D+00 -0.117408D+00  0.153881D+00 -0.417441D-01
     13   0.111774D-03  0.682302D+00  0.565017D+00  0.205537D-03  0.243434D-04
     14   0.497885D-01  0.334232D-05 -0.220528D-04  0.417815D-01  0.153920D+00
     15   0.703117D-01 -0.149640D-04  0.147809D-04  0.222813D-01 -0.959367D-01
     16   0.244830D+00 -0.437124D-04 -0.290367D-04  0.959553D-01  0.222983D-01
               146           147           148           149           150 
      1  -0.529035D+02 -0.529035D+02 -0.528802D+02 -0.528802D+02 -0.527988D+02
      2  -0.678138D-01 -0.429460D-02  0.102512D+00 -0.715969D-01 -0.508926D-05
      3  -0.428030D-02  0.677665D-01 -0.716042D-01 -0.102526D+00 -0.219051D-05
      4   0.172686D-05  0.466416D-05 -0.689690D-05  0.102191D-04 -0.776037D-01
      5   0.193683D+00  0.122659D-01 -0.328919D+00  0.229724D+00  0.170022D-04
      6   0.122199D-01 -0.193531D+00  0.229741D+00  0.328952D+00  0.839488D-05
      7  -0.552708D-05 -0.158188D-04  0.227698D-04 -0.334912D-04  0.267964D+00
      8  -0.964057D-03  0.153063D-01 -0.277667D-01 -0.397536D-01 -0.207458D-05
      9   0.153227D-01  0.969602D-03 -0.397510D-01  0.277627D-01  0.000000D+00
     10   0.128676D-05  0.000000D+00 -0.259747D-05  0.166835D-05  0.000000D+00
     11   0.103759D+00 -0.166799D+00  0.182101D-01  0.155314D+00  0.940856D-01
     12  -0.103761D+00  0.166794D+00 -0.182017D-01 -0.155353D+00  0.940804D-01
     13  -0.100533D-04  0.113083D-04  0.128218D-04  0.801408D-05 -0.186140D+00
     14   0.166851D+00  0.103739D+00 -0.155292D+00  0.181417D-01  0.281359D-05
     15  -0.360107D-02 -0.227180D-03 -0.409371D-01  0.285996D-01 -0.454799D-05
     16  -0.246275D-03  0.360973D-02  0.285847D-01  0.409188D-01 -0.547273D-05
               151           152           153           154           155 
      1  -0.526779D+02 -0.526576D+02 -0.526576D+02 -0.526021D+02 -0.522845D+02
      2  -0.289022D-04 -0.110092D+00  0.123468D+00 -0.124033D-04  0.565230D-01
      3   0.166934D-04  0.123471D+00  0.110093D+00 -0.183761D-04 -0.118524D-02
      4  -0.603839D-05  0.622219D-05  0.174060D-04  0.136475D+00  0.000000D+00
      5   0.101301D-03  0.384514D+00 -0.431233D+00  0.437105D-04 -0.200009D+00
      6  -0.585026D-04 -0.431242D+00 -0.384517D+00  0.646689D-04  0.419331D-02
      7   0.213725D-04 -0.217282D-04 -0.603318D-04 -0.473004D+00  0.276914D-05
      8   0.821110D-05  0.678587D-01  0.605058D-01 -0.951612D-05 -0.594649D-03
      9   0.118166D-04  0.605063D-01 -0.678572D-01  0.834755D-05 -0.283531D-01
     10   0.417251D-03  0.000000D+00 -0.153574D-05  0.135552D-05  0.000000D+00
     11   0.662990D-05 -0.151880D-01 -0.417049D-01 -0.125664D+00 -0.551382D-01
     12   0.650435D-05  0.151887D-01  0.416750D-01 -0.125685D+00  0.551280D-01
     13   0.561991D-05 -0.134586D-04 -0.174674D-04 -0.223807D+00  0.663284D-05
     14   0.125134D-04  0.416784D-01 -0.151974D-01  0.176975D-05 -0.107948D+00
     15   0.677958D-04  0.269251D+00 -0.301963D+00  0.381452D-04 -0.196091D+00
     16  -0.435929D-04 -0.301974D+00 -0.269254D+00  0.442511D-04  0.411303D-02
               156 
      1  -0.522845D+02
      2  -0.118575D-02
      3  -0.565230D-01
      4   0.000000D+00
      5   0.419586D-02
      6   0.200009D+00
      7  -0.189771D-05
      8  -0.283541D-01
      9   0.594863D-03
     10   0.000000D+00
     11   0.107944D+00
     12  -0.107949D+00
     13  -0.737883D-05
     14  -0.551221D-01
     15   0.411199D-02
     16   0.196095D+00
 Unable to Open any file for archive entry.
 1\1\GINC-HEL11\SP\RM11 TD-FC\Gen\H3N1\SABYASACHI\21-Mar-2022\0\\#P TD(
 Nstates=10000) m11/Gen SCF(maxcycles=100) Int(Grid=ultrafine)\\xGDB7_0
 0001_tier4.com\\0,1\N,0,0.000002,0.,0.110463\H,0,0.154111,0.929092,-0.
 257758\H,0,0.727563,-0.598011,-0.257757\H,0,-0.881687,-0.331078,-0.257
 728\\Version=EM64L-G16RevC.01\State=1-A\HF=-56.4864299\RMSD=3.506e-09\
 PG=C01 [X(H3N1)]\\@
 The archive entry for this job was punched.


 BETTER TO HUNT IN FIELDS, FOR HEALTH UNBOUGHT
 THAN FEE THE DOCTOR FOR A NAUSEOUS DRAUGHT.
 THE WISE, FOR CURE, ON EXERCISE DEPEND;
 GOD NEVER MADE HIS WORK FOR MAN TO MEND.
     -- JOHN DRYDEN (1631-1700)
 Job cpu time:       0 days  0 hours  0 minutes 58.0 seconds.
 Elapsed time:       0 days  0 hours  0 minutes  7.6 seconds.
 File lengths (MBytes):  RWF=     34 Int=      0 D2E=      0 Chk=      9 Scr=      1
 Normal termination of Gaussian 16 at Mon Mar 21 20:08:55 2022.
