 Entering Gaussian System, Link 0=g16
 Input=000025.com
 Output=000025.log
 Initial command:
 /home/sabyasachi/g16/l1.exe "/scratch/sabyasachi/PBS_7976159.helios/Gau-31747.inp" -scrdir="/scratch/sabyasachi/PBS_7976159.helios/"
 Entering Link 1 = /home/sabyasachi/g16/l1.exe PID=     31748.
  
 Copyright (c) 1988-2019, Gaussian, Inc.  All Rights Reserved.
  
 This is part of the Gaussian(R) 16 program.  It is based on
 the Gaussian(R) 09 system (copyright 2009, Gaussian, Inc.),
 the Gaussian(R) 03 system (copyright 2003, Gaussian, Inc.),
 the Gaussian(R) 98 system (copyright 1998, Gaussian, Inc.),
 the Gaussian(R) 94 system (copyright 1995, Gaussian, Inc.),
 the Gaussian 92(TM) system (copyright 1992, Gaussian, Inc.),
 the Gaussian 90(TM) system (copyright 1990, Gaussian, Inc.),
 the Gaussian 88(TM) system (copyright 1988, Gaussian, Inc.),
 the Gaussian 86(TM) system (copyright 1986, Carnegie Mellon
 University), and the Gaussian 82(TM) system (copyright 1983,
 Carnegie Mellon University). Gaussian is a federally registered
 trademark of Gaussian, Inc.
  
 This software contains proprietary and confidential information,
 including trade secrets, belonging to Gaussian, Inc.
  
 This software is provided under written license and may be
 used, copied, transmitted, or stored only in accord with that
 written license.
  
 The following legend is applicable only to US Government
 contracts under FAR:
  
                    RESTRICTED RIGHTS LEGEND
  
 Use, reproduction and disclosure by the US Government is
 subject to restrictions as set forth in subparagraphs (a)
 and (c) of the Commercial Computer Software - Restricted
 Rights clause in FAR 52.227-19.
  
 Gaussian, Inc.
 340 Quinnipiac St., Bldg. 40, Wallingford CT 06492
  
  
 ---------------------------------------------------------------
 Warning -- This program may not be used in any manner that
 competes with the business of Gaussian, Inc. or will provide
 assistance to any competitor of Gaussian, Inc.  The licensee
 of this program is prohibited from giving any competitor of
 Gaussian, Inc. access to this program.  By using this program,
 the user acknowledges that Gaussian, Inc. is engaged in the
 business of creating and licensing software in the field of
 computational chemistry and represents and warrants to the
 licensee that it is not a competitor of Gaussian, Inc. and that
 it will not use this program in any manner prohibited above.
 ---------------------------------------------------------------
  

 Cite this work as:
 Gaussian 16, Revision C.01,
 M. J. Frisch, G. W. Trucks, H. B. Schlegel, G. E. Scuseria, 
 M. A. Robb, J. R. Cheeseman, G. Scalmani, V. Barone, 
 G. A. Petersson, H. Nakatsuji, X. Li, M. Caricato, A. V. Marenich, 
 J. Bloino, B. G. Janesko, R. Gomperts, B. Mennucci, H. P. Hratchian, 
 J. V. Ortiz, A. F. Izmaylov, J. L. Sonnenberg, D. Williams-Young, 
 F. Ding, F. Lipparini, F. Egidi, J. Goings, B. Peng, A. Petrone, 
 T. Henderson, D. Ranasinghe, V. G. Zakrzewski, J. Gao, N. Rega, 
 G. Zheng, W. Liang, M. Hada, M. Ehara, K. Toyota, R. Fukuda, 
 J. Hasegawa, M. Ishida, T. Nakajima, Y. Honda, O. Kitao, H. Nakai, 
 T. Vreven, K. Throssell, J. A. Montgomery, Jr., J. E. Peralta, 
 F. Ogliaro, M. J. Bearpark, J. J. Heyd, E. N. Brothers, K. N. Kudin, 
 V. N. Staroverov, T. A. Keith, R. Kobayashi, J. Normand, 
 K. Raghavachari, A. P. Rendell, J. C. Burant, S. S. Iyengar, 
 J. Tomasi, M. Cossi, J. M. Millam, M. Klene, C. Adamo, R. Cammi, 
 J. W. Ochterski, R. L. Martin, K. Morokuma, O. Farkas, 
 J. B. Foresman, and D. J. Fox, Gaussian, Inc., Wallingford CT, 2019.
 
 ******************************************
 Gaussian 16:  EM64L-G16RevC.01  3-Jul-2019
                21-Mar-2022 
 ******************************************
 %mem=64gb
 %nproc=8
 Will use up to    8 processors via shared memory.
 -------------------------------------------------------------------
 #P TD(Nstates=10000) m11/Gen SCF(maxcycles=100) Int(Grid=ultrafine)
 -------------------------------------------------------------------
 1/38=1,172=1/1;
 2/12=2,17=6,18=5,40=1/2;
 3/5=7,11=9,25=1,30=1,74=-64,75=-5/1,2,3,8;
 4//1;
 5/5=2,7=100,38=5/2;
 8/6=1,10=1,108=10000/1;
 9/41=10000,42=1,70=2/14;
 6/7=2,8=2,9=2,10=2/1;
 99/5=1,9=1/99;
 Leave Link    1 at Mon Mar 21 20:13:14 2022, MaxMem=  8589934592 cpu:               0.3 elap:               0.0
 (Enter /home/sabyasachi/g16/l101.exe)
 ---------------------
 xGDB7_00001_tier4.com
 ---------------------
 Symbolic Z-matrix:
 Charge =  0 Multiplicity = 1
 7                    -1.07847  -0.1569    0. 
 6                     0.16196   0.38494   0. 
 8                     1.18917  -0.24546  0. 
 1                    -1.89843   0.41943  0. 
 1                    -1.17812  -1.15707  -0.00001 
 1                     0.14071   1.48995  -0.00001 
 
 ITRead=  0  0  0  0  0  0
 MicOpt= -1 -1 -1 -1 -1 -1
 NAtoms=      6 NQM=        6 NQMF=       0 NMMI=      0 NMMIF=      0
                NMic=       0 NMicF=      0.
                    Isotopes and Nuclear Properties:
 (Nuclear quadrupole moments (NQMom) in fm**2, nuclear magnetic moments (NMagM)
  in nuclear magnetons)

  Atom         1           2           3           4           5           6
 IAtWgt=          14          12          16           1           1           1
 AtmWgt=  14.0030740  12.0000000  15.9949146   1.0078250   1.0078250   1.0078250
 NucSpn=           2           0           0           1           1           1
 AtZEff=  -0.0000000  -0.0000000  -0.0000000  -0.0000000  -0.0000000  -0.0000000
 NQMom=    2.0440000   0.0000000   0.0000000   0.0000000   0.0000000   0.0000000
 NMagM=    0.4037610   0.0000000   0.0000000   2.7928460   2.7928460   2.7928460
 AtZNuc=   7.0000000   6.0000000   8.0000000   1.0000000   1.0000000   1.0000000
 Leave Link  101 at Mon Mar 21 20:13:15 2022, MaxMem=  8589934592 cpu:               0.7 elap:               0.1
 (Enter /home/sabyasachi/g16/l202.exe)
                          Input orientation:                          
 ---------------------------------------------------------------------
 Center     Atomic      Atomic             Coordinates (Angstroms)
 Number     Number       Type             X           Y           Z
 ---------------------------------------------------------------------
      1          7           0       -1.078471   -0.156900    0.000001
      2          6           0        0.161963    0.384944    0.000002
      3          8           0        1.189170   -0.245458   -0.000001
      4          1           0       -1.898427    0.419427   -0.000004
      5          1           0       -1.178124   -1.157073   -0.000005
      6          1           0        0.140706    1.489948   -0.000007
 ---------------------------------------------------------------------
                    Distance matrix (angstroms):
                    1          2          3          4          5
     1  N    0.000000
     2  C    1.353614   0.000000
     3  O    2.269370   1.205222   0.000000
     4  H    1.002238   2.060679   3.158374   0.000000
     5  H    1.005125   2.042951   2.536754   1.733260   0.000000
     6  H    2.049024   1.105208   2.027538   2.303059   2.957369
                    6
     6  H    0.000000
 Stoichiometry    CH3NO
 Framework group  C1[X(CH3NO)]
 Deg. of freedom    12
 Full point group                 C1      NOp   1
 Largest Abelian subgroup         C1      NOp   1
 Largest concise Abelian subgroup C1      NOp   1
                         Standard orientation:                         
 ---------------------------------------------------------------------
 Center     Atomic      Atomic             Coordinates (Angstroms)
 Number     Number       Type             X           Y           Z
 ---------------------------------------------------------------------
      1          7           0        1.078471   -0.156900   -0.000001
      2          6           0       -0.161963    0.384944   -0.000002
      3          8           0       -1.189170   -0.245458    0.000001
      4          1           0        1.898427    0.419427    0.000004
      5          1           0        1.178124   -1.157073    0.000005
      6          1           0       -0.140706    1.489948    0.000007
 ---------------------------------------------------------------------
 Rotational constants (GHZ):          74.0566602          11.4602930           9.9244769
 Leave Link  202 at Mon Mar 21 20:13:15 2022, MaxMem=  8589934592 cpu:               0.1 elap:               0.0
 (Enter /home/sabyasachi/g16/l301.exe)
 General basis read from cards:  (5D, 7F)
 Centers:       4      5      6
 S 3 1.00
     Exponent=  1.3010701000D+01 Coefficients=  1.9682158000D-02
     Exponent=  1.9622572000D+00 Coefficients=  1.3796524000D-01
     Exponent=  4.4453796000D-01 Coefficients=  4.7831935000D-01
 S 1 1.00
     Exponent=  1.2194962000D-01 Coefficients=  1.0000000000D+00
 P 1 1.00
     Exponent=  8.0000000000D-01 Coefficients=  1.0000000000D+00
 P 1 1.00
     Exponent=  1.1704099050D-01 Coefficients=  1.0000000000D+00
 ****
 Centers:       2
 S 5 1.00
     Exponent=  1.2384016938D+03 Coefficients=  5.4568832082D-03
     Exponent=  1.8629004992D+02 Coefficients=  4.0638409211D-02
     Exponent=  4.2251176346D+01 Coefficients=  1.8025593888D-01
     Exponent=  1.1676557932D+01 Coefficients=  4.6315121755D-01
     Exponent=  3.5930506482D+00 Coefficients=  4.4087173314D-01
 S 1 1.00
     Exponent=  4.0245147363D-01 Coefficients=  1.0000000000D+00
 S 1 1.00
     Exponent=  1.3090182668D-01 Coefficients=  1.0000000000D+00
 S 1 1.00
     Exponent=  6.7053540256D-02 Coefficients=  1.0000000000D+00
 P 3 1.00
     Exponent=  9.4680970621D+00 Coefficients=  3.8387871728D-02
     Exponent=  2.0103545142D+00 Coefficients=  2.1117025112D-01
     Exponent=  5.4771004707D-01 Coefficients=  5.1328172114D-01
 P 1 1.00
     Exponent=  1.5268613795D-01 Coefficients=  1.0000000000D+00
 D 1 1.00
     Exponent=  8.0000000000D-01 Coefficients=  1.0000000000D+00
 D 1 1.00
     Exponent=  1.1713185140D-01 Coefficients=  1.0000000000D+00
 ****
 Centers:       1
 S 5 1.00
     Exponent=  1.7128415853D+03 Coefficients= -5.3934125305D-03
     Exponent=  2.5764812677D+02 Coefficients= -4.0221581118D-02
     Exponent=  5.8458245853D+01 Coefficients= -1.7931144990D-01
     Exponent=  1.6198367905D+01 Coefficients= -4.6376317823D-01
     Exponent=  5.0052600809D+00 Coefficients= -4.4171422662D-01
 S 1 1.00
     Exponent=  5.8731856571D-01 Coefficients=  1.0000000000D+00
 S 1 1.00
     Exponent=  1.8764592253D-01 Coefficients=  1.0000000000D+00
 S 1 1.00
     Exponent=  9.6171241529D-02 Coefficients=  1.0000000000D+00
 P 3 1.00
     Exponent=  1.3571470233D+01 Coefficients= -4.0072398852D-02
     Exponent=  2.9257372874D+00 Coefficients= -2.1807045028D-01
     Exponent=  7.9927750754D-01 Coefficients= -5.1294466049D-01
 P 1 1.00
     Exponent=  2.1954348034D-01 Coefficients=  1.0000000000D+00
 D 1 1.00
     Exponent=  1.0000000000D+00 Coefficients=  1.0000000000D+00
 D 1 1.00
     Exponent=  1.6697708112D-01 Coefficients=  1.0000000000D+00
 ****
 Centers:       3
 S 5 1.00
     Exponent=  2.2661767785D+03 Coefficients= -5.3431809926D-03
     Exponent=  3.4087010191D+02 Coefficients= -3.9890039230D-02
     Exponent=  7.7363135167D+01 Coefficients= -1.7853911985D-01
     Exponent=  2.1479644940D+01 Coefficients= -4.6427684959D-01
     Exponent=  6.6589433124D+00 Coefficients= -4.4309745172D-01
 S 1 1.00
     Exponent=  8.0975975668D-01 Coefficients=  1.0000000000D+00
 S 1 1.00
     Exponent=  2.5530772234D-01 Coefficients=  1.0000000000D+00
 S 1 1.00
     Exponent=  7.6572453250D-02 Coefficients=  1.0000000000D+00
 P 3 1.00
     Exponent=  1.7721504317D+01 Coefficients=  4.3394573193D-02
     Exponent=  3.8635505440D+00 Coefficients=  2.3094120765D-01
     Exponent=  1.0480920883D+00 Coefficients=  5.1375311064D-01
 P 1 1.00
     Exponent=  2.7641544411D-01 Coefficients=  1.0000000000D+00
 P 1 1.00
     Exponent=  6.9002276350D-02 Coefficients=  1.0000000000D+00
 D 1 1.00
     Exponent=  1.2000000000D+00 Coefficients=  1.0000000000D+00
 D 1 1.00
     Exponent=  1.7992024323D-01 Coefficients=  1.0000000000D+00
 ****
 Ernie: Thresh=  0.10000D-02 Tol=  0.10000D-05 Strict=F.
 There are    93 symmetry adapted cartesian basis functions of A   symmetry.
 There are    87 symmetry adapted basis functions of A   symmetry.
    87 basis functions,   129 primitive gaussians,    93 cartesian basis functions
    12 alpha electrons       12 beta electrons
       nuclear repulsion energy        71.5209938297 Hartrees.
 IExCor= 5042 DFT=T Ex+Corr=M11 ExCW=0 ScaHFX=  1.000000
 ScaDFX=  1.000000  1.000000  1.000000  1.000000 ScalE2=  1.000000  1.000000
 IRadAn=      5 IRanWt=     -1 IRanGd=            0 ICorTp=0 IEmpDi=  4
 HFx  wShort=  0.000000 wLong=  0.250000 cFull=  0.428000 cShort=  0.000000 cLong=  0.572000
 DFx  wShort=  0.000000 wLong=  0.250000 cFull=  0.000000 cShort=  0.000000 cLong=  1.000000
 NAtoms=    6 NActive=    6 NUniq=    6 SFac= 1.00D+00 NAtFMM=   60 NAOKFM=F Big=F
 Integral buffers will be    131072 words long.
 Raffenetti 1 integral format.
 Two-electron integral symmetry is turned on.
 Leave Link  301 at Mon Mar 21 20:13:15 2022, MaxMem=  8589934592 cpu:               0.5 elap:               0.1
 (Enter /home/sabyasachi/g16/l302.exe)
 NPDir=0 NMtPBC=     1 NCelOv=     1 NCel=       1 NClECP=     1 NCelD=      1
         NCelK=      1 NCelE2=     1 NClLst=     1 CellRange=     0.0.
 One-electron integrals computed using PRISM.
 One-electron integral symmetry used in STVInt
 NBasis=    87 RedAO= T EigKep=  2.36D-04  NBF=    87
 NBsUse=    87 1.00D-06 EigRej= -1.00D+00 NBFU=    87
 Precomputing XC quadrature grid using
 IXCGrd= 4 IRadAn=           5 IRanWt=          -1 IRanGd=           0 AccXCQ= 0.00D+00.
 Generated NRdTot=       0 NPtTot=           0 NUsed=           0 NTot=          32
 NSgBfM=    93    93    93    93    93 MxSgAt=     6 MxSgA2=     6.
 Leave Link  302 at Mon Mar 21 20:13:15 2022, MaxMem=  8589934592 cpu:               0.9 elap:               0.1
 (Enter /home/sabyasachi/g16/l303.exe)
 DipDrv:  MaxL=1.
 Leave Link  303 at Mon Mar 21 20:13:15 2022, MaxMem=  8589934592 cpu:               0.2 elap:               0.0
 (Enter /home/sabyasachi/g16/l308.exe)
 Leave Link  308 at Mon Mar 21 20:13:15 2022, MaxMem=  8589934592 cpu:               0.2 elap:               0.0
 (Enter /home/sabyasachi/g16/l401.exe)
 ExpMin= 6.71D-02 ExpMax= 2.27D+03 ExpMxC= 3.41D+02 IAcc=3 IRadAn=         5 AccDes= 0.00D+00
 Harris functional with IExCor= 1009 and IRadAn=       5 diagonalized for initial guess.
 HarFok:  IExCor= 1009 AccDes= 0.00D+00 IRadAn=         5 IDoV= 1 UseB2=F ITyADJ=14
 ICtDFT=  3500011 ScaDFX=  1.000000  1.000000  1.000000  1.000000
 FoFCou: FMM=F IPFlag=           0 FMFlag=      100000 FMFlg1=           0
         NFxFlg=           0 DoJE=T BraDBF=F KetDBF=T FulRan=T
         wScrn=  0.000000 ICntrl=       500 IOpCl=  0 I1Cent=   200000004 NGrid=           0
         NMat0=    1 NMatS0=      1 NMatT0=    0 NMatD0=    1 NMtDS0=    0 NMtDT0=    0
 Petite list used in FoFCou.
 Harris En= -166.155946418317    
 JPrj=0 DoOrth=F DoCkMO=F.
 Leave Link  401 at Mon Mar 21 20:13:15 2022, MaxMem=  8589934592 cpu:               2.3 elap:               0.3
 (Enter /home/sabyasachi/g16/l502.exe)
 Keep R1 ints in memory in canonical form, NReq=22351556.
 FoFCou: FMM=F IPFlag=           0 FMFlag=           0 FMFlg1=           0
         NFxFlg=           0 DoJE=F BraDBF=F KetDBF=F FulRan=T
         wScrn=  0.000000 ICntrl=       600 IOpCl=  0 I1Cent=           0 NGrid=           0
         NMat0=    1 NMatS0=   3828 NMatT0=    0 NMatD0=    1 NMtDS0=    0 NMtDT0=    0
 Symmetry not used in FoFCou.
 Two-electron integral symmetry not used.
 Closed shell SCF:
 Using DIIS extrapolation, IDIIS=  1040.
 NGot=  8589934592 LenX=  8575257978 LenY=  8575248888
 Requested convergence on RMS density matrix=1.00D-08 within 100 cycles.
 Requested convergence on MAX density matrix=1.00D-06.
 Requested convergence on             energy=1.00D-06.
 No special actions if energy rises.
 Integral accuracy reduced to 1.0D-05 until final iterations.

 Cycle   1  Pass 0  IDiag  1:
 E= -169.642406575841    
 DIIS: error= 2.50D-02 at cycle   1 NSaved=   1.
 NSaved= 1 IEnMin= 1 EnMin= -169.642406575841     IErMin= 1 ErrMin= 2.50D-02
 ErrMax= 2.50D-02  0.00D+00 EMaxC= 1.00D-01 BMatC= 6.87D-02 BMatP= 6.87D-02
 IDIUse=3 WtCom= 7.50D-01 WtEn= 2.50D-01
 Coeff-Com:  0.100D+01
 Coeff-En:   0.100D+01
 Coeff:      0.100D+01
 Gap=     0.417 Goal=   None    Shift=    0.000
 GapD=    0.417 DampG=2.000 DampE=0.500 DampFc=1.0000 IDamp=-1.
 RMSDP=5.99D-03 MaxDP=1.13D-01              OVMax= 1.47D-01

 Cycle   2  Pass 0  IDiag  1:
 E= -169.636482674595     Delta-E=        0.005923901246 Rises=F Damp=F
 DIIS: error= 2.47D-02 at cycle   2 NSaved=   2.
 NSaved= 2 IEnMin= 1 EnMin= -169.642406575841     IErMin= 2 ErrMin= 2.47D-02
 ErrMax= 2.47D-02  0.00D+00 EMaxC= 1.00D-01 BMatC= 8.90D-02 BMatP= 6.87D-02
 IDIUse=2 WtCom= 0.00D+00 WtEn= 1.00D+00
 Coeff-En:   0.526D+00 0.474D+00
 Coeff:      0.526D+00 0.474D+00
 Gap=     0.426 Goal=   None    Shift=    0.000
 RMSDP=4.02D-03 MaxDP=8.45D-02 DE= 5.92D-03 OVMax= 6.94D-02

 Cycle   3  Pass 0  IDiag  1:
 E= -169.698056033154     Delta-E=       -0.061573358560 Rises=F Damp=F
 DIIS: error= 4.21D-03 at cycle   3 NSaved=   3.
 NSaved= 3 IEnMin= 3 EnMin= -169.698056033154     IErMin= 3 ErrMin= 4.21D-03
 ErrMax= 4.21D-03  0.00D+00 EMaxC= 1.00D-01 BMatC= 1.92D-03 BMatP= 6.87D-02
 IDIUse=3 WtCom= 9.58D-01 WtEn= 4.21D-02
 Coeff-Com:  0.156D+00 0.182D+00 0.662D+00
 Coeff-En:   0.000D+00 0.000D+00 0.100D+01
 Coeff:      0.150D+00 0.174D+00 0.676D+00
 Gap=     0.424 Goal=   None    Shift=    0.000
 RMSDP=6.72D-04 MaxDP=1.15D-02 DE=-6.16D-02 OVMax= 1.95D-02

 Cycle   4  Pass 0  IDiag  1:
 E= -169.699395257339     Delta-E=       -0.001339224184 Rises=F Damp=F
 DIIS: error= 1.48D-03 at cycle   4 NSaved=   4.
 NSaved= 4 IEnMin= 4 EnMin= -169.699395257339     IErMin= 4 ErrMin= 1.48D-03
 ErrMax= 1.48D-03  0.00D+00 EMaxC= 1.00D-01 BMatC= 2.75D-04 BMatP= 1.92D-03
 IDIUse=3 WtCom= 9.85D-01 WtEn= 1.48D-02
 Coeff-Com: -0.151D-01-0.241D-02 0.275D+00 0.743D+00
 Coeff-En:   0.000D+00 0.000D+00 0.129D-01 0.987D+00
 Coeff:     -0.149D-01-0.238D-02 0.271D+00 0.746D+00
 Gap=     0.428 Goal=   None    Shift=    0.000
 RMSDP=2.26D-04 MaxDP=4.47D-03 DE=-1.34D-03 OVMax= 4.21D-03

 Cycle   5  Pass 0  IDiag  1:
 E= -169.699625997748     Delta-E=       -0.000230740410 Rises=F Damp=F
 DIIS: error= 3.12D-04 at cycle   5 NSaved=   5.
 NSaved= 5 IEnMin= 5 EnMin= -169.699625997748     IErMin= 5 ErrMin= 3.12D-04
 ErrMax= 3.12D-04  0.00D+00 EMaxC= 1.00D-01 BMatC= 8.65D-06 BMatP= 2.75D-04
 IDIUse=3 WtCom= 9.97D-01 WtEn= 3.12D-03
 Coeff-Com: -0.902D-02-0.750D-02 0.394D-01 0.185D+00 0.792D+00
 Coeff-En:   0.000D+00 0.000D+00 0.000D+00 0.000D+00 0.100D+01
 Coeff:     -0.899D-02-0.748D-02 0.392D-01 0.184D+00 0.793D+00
 Gap=     0.427 Goal=   None    Shift=    0.000
 RMSDP=8.28D-05 MaxDP=1.04D-03 DE=-2.31D-04 OVMax= 2.35D-03

 Cycle   6  Pass 0  IDiag  1:
 E= -169.699640321086     Delta-E=       -0.000014323337 Rises=F Damp=F
 DIIS: error= 8.11D-05 at cycle   6 NSaved=   6.
 NSaved= 6 IEnMin= 6 EnMin= -169.699640321086     IErMin= 6 ErrMin= 8.11D-05
 ErrMax= 8.11D-05  0.00D+00 EMaxC= 1.00D-01 BMatC= 1.52D-06 BMatP= 8.65D-06
 IDIUse=1 WtCom= 1.00D+00 WtEn= 0.00D+00
 Coeff-Com:  0.488D-03-0.126D-02-0.347D-01-0.102D+00 0.139D+00 0.999D+00
 Coeff:      0.488D-03-0.126D-02-0.347D-01-0.102D+00 0.139D+00 0.999D+00
 Gap=     0.428 Goal=   None    Shift=    0.000
 RMSDP=5.63D-05 MaxDP=1.01D-03 DE=-1.43D-05 OVMax= 1.16D-03

 Cycle   7  Pass 0  IDiag  1:
 E= -169.699643789797     Delta-E=       -0.000003468711 Rises=F Damp=F
 DIIS: error= 3.31D-05 at cycle   7 NSaved=   7.
 NSaved= 7 IEnMin= 7 EnMin= -169.699643789797     IErMin= 7 ErrMin= 3.31D-05
 ErrMax= 3.31D-05  0.00D+00 EMaxC= 1.00D-01 BMatC= 1.18D-07 BMatP= 1.52D-06
 IDIUse=1 WtCom= 1.00D+00 WtEn= 0.00D+00
 Coeff-Com:  0.829D-03 0.426D-03 0.101D-02-0.149D-01-0.566D-01-0.111D+00
 Coeff-Com:  0.118D+01
 Coeff:      0.829D-03 0.426D-03 0.101D-02-0.149D-01-0.566D-01-0.111D+00
 Coeff:      0.118D+01
 Gap=     0.428 Goal=   None    Shift=    0.000
 RMSDP=1.71D-05 MaxDP=3.16D-04 DE=-3.47D-06 OVMax= 4.39D-04

 Cycle   8  Pass 0  IDiag  1:
 E= -169.699644105616     Delta-E=       -0.000000315820 Rises=F Damp=F
 DIIS: error= 5.63D-06 at cycle   8 NSaved=   8.
 NSaved= 8 IEnMin= 8 EnMin= -169.699644105616     IErMin= 8 ErrMin= 5.63D-06
 ErrMax= 5.63D-06  0.00D+00 EMaxC= 1.00D-01 BMatC= 6.39D-09 BMatP= 1.18D-07
 IDIUse=1 WtCom= 1.00D+00 WtEn= 0.00D+00
 Coeff-Com: -0.799D-04-0.308D-04 0.294D-02 0.701D-02-0.339D-02-0.686D-01
 Coeff-Com: -0.682D-01 0.113D+01
 Coeff:     -0.799D-04-0.308D-04 0.294D-02 0.701D-02-0.339D-02-0.686D-01
 Coeff:     -0.682D-01 0.113D+01
 Gap=     0.428 Goal=   None    Shift=    0.000
 RMSDP=2.91D-06 MaxDP=3.08D-05 DE=-3.16D-07 OVMax= 8.56D-05

 Initial convergence to 1.0D-05 achieved.  Increase integral accuracy.
 Cycle   9  Pass 1  IDiag  1:
 E= -169.699656536087     Delta-E=       -0.000012430471 Rises=F Damp=F
 DIIS: error= 3.06D-05 at cycle   1 NSaved=   1.
 NSaved= 1 IEnMin= 1 EnMin= -169.699656536087     IErMin= 1 ErrMin= 3.06D-05
 ErrMax= 3.06D-05  0.00D+00 EMaxC= 1.00D-01 BMatC= 1.35D-07 BMatP= 1.35D-07
 IDIUse=1 WtCom= 1.00D+00 WtEn= 0.00D+00
 Coeff-Com:  0.100D+01
 Coeff:      0.100D+01
 Gap=     0.428 Goal=   None    Shift=    0.000
 RMSDP=2.91D-06 MaxDP=3.08D-05 DE=-1.24D-05 OVMax= 7.90D-05

 Cycle  10  Pass 1  IDiag  1:
 E= -169.699656655849     Delta-E=       -0.000000119762 Rises=F Damp=F
 DIIS: error= 4.88D-06 at cycle   2 NSaved=   2.
 NSaved= 2 IEnMin= 2 EnMin= -169.699656655849     IErMin= 2 ErrMin= 4.88D-06
 ErrMax= 4.88D-06  0.00D+00 EMaxC= 1.00D-01 BMatC= 2.82D-09 BMatP= 1.35D-07
 IDIUse=1 WtCom= 1.00D+00 WtEn= 0.00D+00
 Coeff-Com: -0.691D-01 0.107D+01
 Coeff:     -0.691D-01 0.107D+01
 Gap=     0.428 Goal=   None    Shift=    0.000
 RMSDP=2.41D-06 MaxDP=3.56D-05 DE=-1.20D-07 OVMax= 2.43D-05

 Cycle  11  Pass 1  IDiag  1:
 E= -169.699656657884     Delta-E=       -0.000000002035 Rises=F Damp=F
 DIIS: error= 3.31D-06 at cycle   3 NSaved=   3.
 NSaved= 3 IEnMin= 3 EnMin= -169.699656657884     IErMin= 3 ErrMin= 3.31D-06
 ErrMax= 3.31D-06  0.00D+00 EMaxC= 1.00D-01 BMatC= 1.42D-09 BMatP= 2.82D-09
 IDIUse=1 WtCom= 1.00D+00 WtEn= 0.00D+00
 Coeff-Com: -0.459D-01 0.469D+00 0.577D+00
 Coeff:     -0.459D-01 0.469D+00 0.577D+00
 Gap=     0.428 Goal=   None    Shift=    0.000
 RMSDP=4.87D-07 MaxDP=1.02D-05 DE=-2.04D-09 OVMax= 1.19D-05

 Cycle  12  Pass 1  IDiag  1:
 E= -169.699656658947     Delta-E=       -0.000000001063 Rises=F Damp=F
 DIIS: error= 9.59D-07 at cycle   4 NSaved=   4.
 NSaved= 4 IEnMin= 4 EnMin= -169.699656658947     IErMin= 4 ErrMin= 9.59D-07
 ErrMax= 9.59D-07  0.00D+00 EMaxC= 1.00D-01 BMatC= 9.94D-11 BMatP= 1.42D-09
 IDIUse=1 WtCom= 1.00D+00 WtEn= 0.00D+00
 Coeff-Com: -0.117D-01 0.910D-01 0.221D+00 0.699D+00
 Coeff:     -0.117D-01 0.910D-01 0.221D+00 0.699D+00
 Gap=     0.428 Goal=   None    Shift=    0.000
 RMSDP=1.82D-07 MaxDP=3.38D-06 DE=-1.06D-09 OVMax= 3.86D-06

 Cycle  13  Pass 1  IDiag  1:
 E= -169.699656659022     Delta-E=       -0.000000000075 Rises=F Damp=F
 DIIS: error= 3.68D-07 at cycle   5 NSaved=   5.
 NSaved= 5 IEnMin= 5 EnMin= -169.699656659022     IErMin= 5 ErrMin= 3.68D-07
 ErrMax= 3.68D-07  0.00D+00 EMaxC= 1.00D-01 BMatC= 1.71D-11 BMatP= 9.94D-11
 IDIUse=1 WtCom= 1.00D+00 WtEn= 0.00D+00
 Coeff-Com:  0.103D-02-0.276D-01 0.745D-02 0.303D+00 0.716D+00
 Coeff:      0.103D-02-0.276D-01 0.745D-02 0.303D+00 0.716D+00
 Gap=     0.428 Goal=   None    Shift=    0.000
 RMSDP=7.19D-08 MaxDP=1.05D-06 DE=-7.46D-11 OVMax= 1.12D-06

 Cycle  14  Pass 1  IDiag  1:
 E= -169.699656659035     Delta-E=       -0.000000000013 Rises=F Damp=F
 DIIS: error= 9.09D-08 at cycle   6 NSaved=   6.
 NSaved= 6 IEnMin= 6 EnMin= -169.699656659035     IErMin= 6 ErrMin= 9.09D-08
 ErrMax= 9.09D-08  0.00D+00 EMaxC= 1.00D-01 BMatC= 8.37D-13 BMatP= 1.71D-11
 IDIUse=1 WtCom= 1.00D+00 WtEn= 0.00D+00
 Coeff-Com:  0.141D-02-0.160D-01-0.190D-01 0.324D-01 0.199D+00 0.803D+00
 Coeff:      0.141D-02-0.160D-01-0.190D-01 0.324D-01 0.199D+00 0.803D+00
 Gap=     0.428 Goal=   None    Shift=    0.000
 RMSDP=2.21D-08 MaxDP=2.87D-07 DE=-1.34D-11 OVMax= 4.41D-07

 Cycle  15  Pass 1  IDiag  1:
 E= -169.699656659034     Delta-E=        0.000000000002 Rises=F Damp=F
 DIIS: error= 2.66D-08 at cycle   7 NSaved=   7.
 NSaved= 7 IEnMin= 6 EnMin= -169.699656659035     IErMin= 7 ErrMin= 2.66D-08
 ErrMax= 2.66D-08  0.00D+00 EMaxC= 1.00D-01 BMatC= 1.11D-13 BMatP= 8.37D-13
 IDIUse=1 WtCom= 1.00D+00 WtEn= 0.00D+00
 Coeff-Com:  0.378D-03-0.239D-02-0.715D-02-0.194D-01-0.278D-01 0.235D+00
 Coeff-Com:  0.821D+00
 Coeff:      0.378D-03-0.239D-02-0.715D-02-0.194D-01-0.278D-01 0.235D+00
 Coeff:      0.821D+00
 Gap=     0.428 Goal=   None    Shift=    0.000
 RMSDP=8.06D-09 MaxDP=1.31D-07 DE= 1.82D-12 OVMax= 1.33D-07

 SCF Done:  E(RM11) =  -169.699656659     A.U. after   15 cycles
            NFock= 15  Conv=0.81D-08     -V/T= 2.0104
 KE= 1.679574961856D+02 PE=-5.400121418319D+02 EE= 1.308339951575D+02
 Leave Link  502 at Mon Mar 21 20:13:19 2022, MaxMem=  8589934592 cpu:              28.0 elap:               3.6
 (Enter /home/sabyasachi/g16/l801.exe)
 DoSCS=F DFT=T ScalE2(SS,OS)=  1.000000  1.000000
 ExpMin= 6.71D-02 ExpMax= 2.27D+03 ExpMxC= 3.41D+02 IAcc=3 IRadAn=         5 AccDes= 0.00D+00
 HarFok:  IExCor=  205 AccDes= 0.00D+00 IRadAn=         5 IDoV=-2 UseB2=F ITyADJ=14
 ICtDFT= 12500011 ScaDFX=  1.000000  1.000000  1.000000  1.000000
 Largest valence mixing into a core orbital is  7.37D-05
 Largest core mixing into a valence orbital is  1.47D-05
 Range of M.O.s used for correlation:     4    87
 NBasis=    87 NAE=    12 NBE=    12 NFC=     3 NFV=     0
 NROrb=     84 NOA=     9 NOB=     9 NVA=    75 NVB=    75

 **** Warning!!: The largest alpha MO coefficient is  0.24286791D+02

 Leave Link  801 at Mon Mar 21 20:13:19 2022, MaxMem=  8589934592 cpu:               0.5 elap:               0.1
 (Enter /home/sabyasachi/g16/l914.exe)
 RHF ground state
 Keep R1, R2, and R3 ints in memory in canonical form, NReq=536009512.
 FoFCou: FMM=F IPFlag=           0 FMFlag=           0 FMFlg1=           0
         NFxFlg=           0 DoJE=F BraDBF=F KetDBF=F FulRan=T
         wScrn=  0.000000 ICntrl=       600 IOpCl=  0 I1Cent=           0 NGrid=           0
         NMat0=    1 NMatS0=   3828 NMatT0=    0 NMatD0=    1 NMtDS0=    0 NMtDT0=    0
 Symmetry not used in FoFCou.
 Two-electron integral symmetry not used.
 MDV=  8589934592 DFT=T DoStab=F Mixed=T DoRPA=T DoScal=F NonHer=T
 Making orbital integer symmetry assigments:
 Orbital symmetries:
       Occupied  (A) (A) (A) (A) (A) (A) (A) (A) (A) (A) (A) (A)
       Virtual   (A) (A) (A) (A) (A) (A) (A) (A) (A) (A) (A) (A)
                 (A) (A) (A) (A) (A) (A) (A) (A) (A) (A) (A) (A)
                 (A) (A) (A) (A) (A) (A) (A) (A) (A) (A) (A) (A)
                 (A) (A) (A) (A) (A) (A) (A) (A) (A) (A) (A) (A)
                 (A) (A) (A) (A) (A) (A) (A) (A) (A) (A) (A) (A)
                 (A) (A) (A) (A) (A) (A) (A) (A) (A) (A) (A) (A)
                 (A) (A) (A)
   675 initial guesses have been made.
 Convergence on wavefunction:    0.001000000000000
 Davidson Disk Diagonalization:  ConvIn= 1.00D-03 SkipCon=T Conv= 1.00D-03.
 Max sub-space:  4050 roots to seek:  1350 dimension of matrix:         1350
 *** WARNING: Number of orthogonal guesses is          675
 Iteration     1 Dimension   675 NMult     0 NNew    675
 CISAX will form   675 AO SS matrices at one time.
 NMat=   675 NSing=   675 JSym2X= 0.
 New state      1 was old state      5
 New state      3 was old state      1
 New state      4 was old state      6
 New state      5 was old state      4
 New state      6 was old state      3
 New state      7 was old state      8
 New state      8 was old state      7
 New state     11 was old state     14
 New state     12 was old state     28
 New state     13 was old state     11
 New state     14 was old state     13
 New state     15 was old state     12
 New state     16 was old state     15
 New state     17 was old state     16
 New state     18 was old state     29
 New state     19 was old state     18
 New state     20 was old state     24
 New state     21 was old state     26
 New state     22 was old state     17
 New state     23 was old state     19
 New state     24 was old state     21
 New state     25 was old state     22
 New state     26 was old state     20
 New state     27 was old state     46
 New state     28 was old state     25
 New state     29 was old state     23
 New state     31 was old state     27
 New state     35 was old state     31
 New state     36 was old state     43
 New state     37 was old state     38
 New state     38 was old state     39
 New state     39 was old state     35
 New state     40 was old state     41
 New state     41 was old state     37
 New state     42 was old state     47
 New state     43 was old state     36
 New state     44 was old state     45
 New state     45 was old state     42
 New state     46 was old state     40
 New state     47 was old state     44
 New state     48 was old state     68
 New state     51 was old state     48
 New state     52 was old state     55
 New state     53 was old state     51
 New state     54 was old state     53
 New state     55 was old state     63
 New state     56 was old state     52
 New state     57 was old state     60
 New state     58 was old state     66
 New state     59 was old state     56
 New state     60 was old state     74
 New state     61 was old state     59
 New state     62 was old state     72
 New state     63 was old state     61
 New state     64 was old state     65
 New state     65 was old state     69
 New state     66 was old state     57
 New state     67 was old state     62
 New state     68 was old state     54
 New state     69 was old state     77
 New state     70 was old state     67
 New state     71 was old state     58
 New state     72 was old state     71
 New state     73 was old state     64
 New state     74 was old state     70
 New state     75 was old state     73
 New state     76 was old state     82
 New state     77 was old state     91
 New state     79 was old state     76
 New state     80 was old state     75
 New state     81 was old state     80
 New state     82 was old state     88
 New state     83 was old state     86
 New state     84 was old state     81
 New state     85 was old state     79
 New state     86 was old state     98
 New state     87 was old state     95
 New state     88 was old state     85
 New state     89 was old state     94
 New state     90 was old state     97
 New state     91 was old state     93
 New state     92 was old state     90
 New state     93 was old state     92
 New state     94 was old state     89
 New state     95 was old state     99
 New state     96 was old state     87
 New state     97 was old state     84
 New state     98 was old state    106
 New state     99 was old state    103
 New state    100 was old state    101
 New state    101 was old state     96
 New state    102 was old state     83
 New state    103 was old state    119
 New state    104 was old state    108
 New state    105 was old state    107
 New state    106 was old state    100
 New state    107 was old state    115
 New state    108 was old state    104
 New state    109 was old state    105
 New state    110 was old state    109
 New state    111 was old state    113
 New state    112 was old state    111
 New state    113 was old state    123
 New state    114 was old state    117
 New state    115 was old state    121
 New state    116 was old state    114
 New state    117 was old state    110
 New state    118 was old state    124
 New state    119 was old state    125
 No map to state    120
 New state    121 was old state    102
 New state    122 was old state    118
 New state    123 was old state    133
 New state    124 was old state    141
 New state    125 was old state    120
 New state    126 was old state    129
 New state    127 was old state    116
 New state    128 was old state    135
 New state    129 was old state    127
 New state    130 was old state    140
 New state    132 was old state    126
 New state    133 was old state    128
 New state    134 was old state    139
 New state    135 was old state    132
 New state    136 was old state    134
 New state    137 was old state    136
 New state    138 was old state    145
 New state    139 was old state    151
 New state    140 was old state    149
 New state    141 was old state    148
 New state    142 was old state    130
 New state    143 was old state    142
 New state    145 was old state    146
 New state    146 was old state    150
 New state    147 was old state    138
 New state    148 was old state    152
 New state    149 was old state    147
 New state    150 was old state    143
 New state    151 was old state    137
 New state    152 was old state    153
 New state    153 was old state    158
 New state    155 was old state    157
 New state    156 was old state    155
 New state    157 was old state    160
 New state    158 was old state    161
 New state    159 was old state    171
 New state    160 was old state    166
 New state    161 was old state    159
 New state    162 was old state    165
 New state    163 was old state    170
 New state    164 was old state    156
 New state    165 was old state    169
 New state    166 was old state    167
 New state    167 was old state    162
 New state    168 was old state    181
 New state    169 was old state    163
 New state    170 was old state    175
 New state    171 was old state    187
 New state    172 was old state    174
 New state    173 was old state    164
 New state    174 was old state    172
 New state    175 was old state    176
 New state    176 was old state    196
 New state    178 was old state    173
 New state    179 was old state    168
 New state    180 was old state    184
 New state    181 was old state    180
 New state    182 was old state    188
 New state    183 was old state    182
 New state    184 was old state    178
 New state    185 was old state    190
 New state    186 was old state    179
 New state    187 was old state    193
 New state    188 was old state    185
 New state    189 was old state    183
 New state    190 was old state    202
 New state    191 was old state    186
 New state    192 was old state    206
 New state    193 was old state    198
 New state    194 was old state    195
 New state    195 was old state    191
 New state    196 was old state    197
 New state    197 was old state    189
 New state    198 was old state    199
 New state    199 was old state    211
 New state    201 was old state    194
 New state    202 was old state    192
 New state    203 was old state    208
 New state    205 was old state    214
 New state    206 was old state    207
 New state    207 was old state    209
 New state    208 was old state    210
 New state    209 was old state    212
 New state    210 was old state    213
 New state    211 was old state    222
 New state    212 was old state    205
 New state    213 was old state    234
 New state    214 was old state    215
 New state    215 was old state    201
 New state    216 was old state    217
 New state    217 was old state    218
 New state    218 was old state    223
 New state    219 was old state    203
 New state    220 was old state    224
 New state    221 was old state    220
 New state    222 was old state    226
 New state    223 was old state    231
 New state    224 was old state    221
 New state    225 was old state    236
 New state    226 was old state    230
 New state    228 was old state    232
 New state    229 was old state    219
 New state    230 was old state    216
 New state    231 was old state    233
 New state    232 was old state    228
 New state    233 was old state    237
 New state    234 was old state    238
 New state    236 was old state    242
 New state    237 was old state    245
 New state    238 was old state    229
 New state    239 was old state    225
 New state    240 was old state    241
 New state    241 was old state    243
 New state    242 was old state    250
 New state    243 was old state    251
 New state    244 was old state    239
 New state    245 was old state    254
 New state    246 was old state    261
 New state    247 was old state    258
 New state    248 was old state    260
 New state    250 was old state    240
 New state    251 was old state    267
 New state    252 was old state    244
 New state    254 was old state    246
 New state    255 was old state    248
 New state    256 was old state    255
 New state    257 was old state    265
 New state    258 was old state    262
 New state    259 was old state    270
 New state    260 was old state    256
 New state    261 was old state    247
 New state    262 was old state    263
 New state    263 was old state    252
 New state    264 was old state    259
 New state    265 was old state    266
 New state    266 was old state    268
 New state    267 was old state    257
 New state    268 was old state    264
 New state    269 was old state    275
 New state    270 was old state    280
 New state    272 was old state    274
 New state    273 was old state    269
 New state    274 was old state    286
 New state    275 was old state    289
 New state    276 was old state    277
 New state    277 was old state    281
 New state    278 was old state    276
 New state    279 was old state    278
 New state    280 was old state    273
 New state    281 was old state    272
 New state    283 was old state    279
 New state    285 was old state    298
 New state    286 was old state    287
 New state    287 was old state    288
 New state    288 was old state    303
 New state    289 was old state    285
 New state    291 was old state    283
 New state    292 was old state    296
 New state    293 was old state    294
 New state    294 was old state    299
 New state    295 was old state    293
 New state    296 was old state    291
 New state    297 was old state    308
 New state    298 was old state    295
 New state    299 was old state    292
 New state    300 was old state    302
 New state    301 was old state    310
 New state    302 was old state    307
 New state    303 was old state    300
 New state    304 was old state    297
 New state    305 was old state    301
 New state    307 was old state    314
 New state    308 was old state    305
 New state    309 was old state    304
 New state    310 was old state    315
 New state    311 was old state    312
 New state    312 was old state    322
 New state    313 was old state    317
 New state    314 was old state    309
 New state    315 was old state    323
 New state    316 was old state    313
 New state    317 was old state    324
 New state    318 was old state    319
 New state    319 was old state    318
 New state    321 was old state    341
 New state    322 was old state    321
 New state    323 was old state    326
 New state    324 was old state    316
 New state    325 was old state    328
 New state    326 was old state    325
 New state    328 was old state    330
 New state    330 was old state    335
 New state    331 was old state    332
 New state    332 was old state    344
 New state    334 was old state    331
 New state    335 was old state    334
 New state    336 was old state    338
 New state    337 was old state    346
 New state    338 was old state    345
 New state    339 was old state    343
 New state    341 was old state    339
 New state    342 was old state    337
 New state    343 was old state    336
 New state    344 was old state    342
 New state    345 was old state    347
 New state    346 was old state    351
 New state    347 was old state    348
 New state    348 was old state    354
 New state    349 was old state    350
 New state    350 was old state    352
 New state    351 was old state    359
 New state    352 was old state    349
 New state    353 was old state    363
 New state    354 was old state    353
 New state    355 was old state    357
 New state    356 was old state    373
 New state    357 was old state    367
 New state    358 was old state    356
 New state    359 was old state    355
 New state    360 was old state    362
 New state    361 was old state    358
 New state    362 was old state    365
 New state    363 was old state    360
 New state    364 was old state    366
 New state    365 was old state    361
 New state    366 was old state    369
 New state    367 was old state    364
 New state    368 was old state    372
 New state    369 was old state    374
 New state    370 was old state    368
 New state    372 was old state    370
 New state    373 was old state    381
 New state    374 was old state    376
 New state    376 was old state    382
 New state    378 was old state    379
 New state    379 was old state    380
 New state    380 was old state    378
 New state    381 was old state    383
 New state    382 was old state    387
 New state    383 was old state    385
 New state    384 was old state    399
 New state    385 was old state    396
 New state    386 was old state    384
 New state    387 was old state    388
 New state    388 was old state    390
 New state    390 was old state    397
 New state    392 was old state    393
 New state    393 was old state    386
 New state    396 was old state    392
 New state    397 was old state    398
 New state    398 was old state    400
 New state    399 was old state    403
 New state    400 was old state    404
 New state    401 was old state    402
 New state    402 was old state    405
 New state    403 was old state    401
 New state    404 was old state    409
 New state    405 was old state    406
 New state    406 was old state    422
 New state    408 was old state    413
 New state    409 was old state    411
 New state    410 was old state    421
 New state    411 was old state    414
 New state    412 was old state    408
 New state    413 was old state    416
 New state    414 was old state    420
 New state    415 was old state    412
 New state    416 was old state    410
 New state    417 was old state    418
 New state    418 was old state    415
 New state    419 was old state    426
 New state    420 was old state    419
 New state    421 was old state    424
 New state    422 was old state    417
 New state    424 was old state    427
 New state    426 was old state    432
 New state    427 was old state    429
 New state    428 was old state    459
 New state    429 was old state    438
 New state    430 was old state    431
 New state    431 was old state    430
 New state    432 was old state    439
 New state    433 was old state    428
 New state    436 was old state    441
 New state    438 was old state    440
 New state    439 was old state    433
 New state    440 was old state    443
 New state    441 was old state    436
 New state    442 was old state    447
 New state    443 was old state    445
 New state    445 was old state    442
 New state    446 was old state    455
 New state    447 was old state    446
 New state    448 was old state    450
 New state    449 was old state    452
 New state    450 was old state    453
 New state    451 was old state    448
 New state    452 was old state    451
 New state    453 was old state    454
 New state    454 was old state    449
 New state    455 was old state    468
 New state    456 was old state    458
 New state    457 was old state    460
 New state    458 was old state    457
 New state    459 was old state    467
 New state    460 was old state    466
 New state    461 was old state    465
 New state    462 was old state    456
 New state    464 was old state    461
 New state    465 was old state    464
 New state    466 was old state    462
 New state    467 was old state    474
 New state    468 was old state    471
 New state    469 was old state    470
 New state    470 was old state    469
 New state    471 was old state    472
 New state    472 was old state    473
 New state    473 was old state    489
 New state    474 was old state    477
 New state    475 was old state    481
 New state    476 was old state    478
 New state    477 was old state    475
 New state    478 was old state    479
 New state    479 was old state    476
 New state    480 was old state    483
 New state    481 was old state    480
 New state    482 was old state    484
 New state    483 was old state    482
 New state    484 was old state    485
 New state    485 was old state    487
 New state    486 was old state    488
 New state    487 was old state    486
 New state    488 was old state    491
 New state    489 was old state    492
 New state    490 was old state    501
 New state    491 was old state    504
 New state    492 was old state    490
 New state    493 was old state    497
 New state    494 was old state    498
 New state    495 was old state    496
 New state    496 was old state    494
 No map to state    497
 New state    498 was old state    493
 New state    499 was old state    502
 New state    500 was old state    495
 New state    501 was old state    503
 New state    502 was old state    499
 New state    503 was old state    500
 New state    504 was old state    508
 New state    505 was old state    507
 New state    506 was old state    512
 New state    507 was old state    505
 New state    508 was old state    506
 New state    510 was old state    513
 New state    511 was old state    510
 New state    512 was old state    511
 New state    513 was old state    514
 New state    514 was old state    520
 New state    516 was old state    519
 New state    517 was old state    518
 New state    518 was old state    521
 New state    519 was old state    522
 New state    520 was old state    517
 New state    521 was old state    516
 New state    522 was old state    525
 New state    524 was old state    536
 New state    525 was old state    524
 New state    526 was old state    529
 New state    528 was old state    531
 New state    529 was old state    528
 New state    530 was old state    534
 New state    531 was old state    526
 New state    533 was old state    530
 New state    534 was old state    537
 New state    536 was old state    533
 New state    537 was old state    539
 New state    539 was old state    559
 New state    541 was old state    542
 New state    542 was old state    541
 New state    543 was old state    547
 New state    545 was old state    548
 New state    546 was old state    545
 New state    547 was old state    549
 New state    548 was old state    543
 New state    549 was old state    546
 New state    551 was old state    552
 New state    552 was old state    553
 New state    553 was old state    551
 New state    554 was old state    556
 New state    555 was old state    554
 New state    556 was old state    558
 New state    558 was old state    555
 New state    559 was old state    560
 New state    560 was old state    563
 New state    563 was old state    564
 New state    564 was old state    570
 New state    567 was old state    573
 New state    568 was old state    567
 New state    569 was old state    572
 New state    570 was old state    574
 New state    571 was old state    575
 New state    572 was old state    571
 New state    573 was old state    568
 New state    574 was old state    569
 New state    575 was old state    578
 New state    578 was old state    579
 New state    579 was old state    581
 New state    580 was old state    589
 New state    581 was old state    583
 New state    582 was old state    580
 New state    583 was old state    582
 New state    585 was old state    587
 New state    587 was old state    590
 New state    589 was old state    585
 New state    590 was old state    600
 New state    591 was old state    599
 New state    592 was old state    591
 New state    593 was old state    594
 New state    594 was old state    593
 New state    595 was old state    596
 New state    596 was old state    592
 New state    597 was old state    595
 New state    598 was old state    597
 New state    599 was old state    598
 New state    600 was old state    601
 New state    601 was old state    602
 New state    602 was old state    603
 New state    603 was old state    608
 New state    604 was old state    613
 New state    606 was old state    604
 New state    607 was old state    606
 New state    608 was old state    610
 New state    610 was old state    607
 New state    611 was old state    616
 New state    612 was old state    611
 New state    613 was old state    615
 New state    615 was old state    620
 New state    616 was old state    612
 New state    617 was old state    619
 New state    618 was old state    617
 New state    619 was old state    621
 No map to state    620
 New state    621 was old state    618
 New state    625 was old state    627
 New state    626 was old state    625
 New state    627 was old state    631
 New state    628 was old state    626
 New state    629 was old state    633
 New state    630 was old state    629
 New state    631 was old state    630
 New state    632 was old state    628
 New state    633 was old state    632
 New state    636 was old state    637
 New state    637 was old state    636
 New state    638 was old state    641
 New state    639 was old state    643
 New state    641 was old state    639
 New state    642 was old state    645
 New state    643 was old state    638
 New state    645 was old state    642
 New state    647 was old state    649
 New state    648 was old state    647
 New state    649 was old state    648
 New state    650 was old state    652
 New state    651 was old state    650
 New state    652 was old state    651
 New state    654 was old state    655
 New state    655 was old state    654
 New state    661 was old state    662
 New state    662 was old state    661
 New state    663 was old state    665
 New state    664 was old state    663
 New state    665 was old state    664
 New state    668 was old state    669
 New state    669 was old state    668
 New state    673 was old state    674
 New state    674 was old state    673
 Excitation Energies [eV] at current iteration:
 Root      1 :     5.442635538995101
 Root      2 :     7.209325498388594
 Root      3 :     7.364848834495566
 Root      4 :     7.822197477759150
 Root      5 :     8.088539547025581
 Root      6 :     8.404979086117297
 Root      7 :     8.884805226018154
 Root      8 :     8.924301632064481
 Root      9 :     9.109113643018038
 Root     10 :     9.814567557483590
 Root     11 :     9.869858495928410
 Root     12 :     9.925604097294800
 Root     13 :     9.931171719531720
 Root     14 :    10.072362782796710
 Root     15 :    10.288680328223620
 Root     16 :    10.440847703750990
 Root     17 :    10.555591668737210
 Root     18 :    11.367713276582170
 Root     19 :    11.494276114230430
 Root     20 :    11.509369792369940
 Root     21 :    11.557607032233430
 Root     22 :    11.609647160321210
 Root     23 :    11.730870921977270
 Root     24 :    11.778449368362060
 Root     25 :    11.865174031422730
 Root     26 :    12.034673845558600
 Root     27 :    12.039898481966780
 Root     28 :    12.327749194476980
 Root     29 :    12.410741438362680
 Root     30 :    12.583178872535830
 Root     31 :    12.629991882719790
 Root     32 :    13.029739150311150
 Root     33 :    13.225940926870270
 Root     34 :    13.459359266090160
 Root     35 :    13.492821108172100
 Root     36 :    13.596792096825100
 Root     37 :    13.672318688836310
 Root     38 :    13.827066287230800
 Root     39 :    13.932162453713300
 Root     40 :    14.000775039007920
 Root     41 :    14.104704093299360
 Root     42 :    14.112303912301530
 Root     43 :    14.149382499416980
 Root     44 :    14.158633501709790
 Root     45 :    14.301040501108310
 Root     46 :    14.330688492150250
 Root     47 :    14.417902101157390
 Root     48 :    14.536554156739570
 Root     49 :    14.751126882665990
 Root     50 :    14.771665580309050
 Root     51 :    14.953671821065820
 Root     52 :    15.158308279732430
 Root     53 :    15.195432571524760
 Root     54 :    15.378543544400740
 Root     55 :    15.446055557029620
 Root     56 :    15.491718533585380
 Root     57 :    15.641263960202140
 Root     58 :    15.647635676354910
 Root     59 :    15.708890567694480
 Root     60 :    15.809247839598910
 Root     61 :    15.828570004616230
 Root     62 :    15.857438937608860
 Root     63 :    15.892461539586470
 Root     64 :    15.931445922752830
 Root     65 :    15.989012858002180
 Root     66 :    16.006968725918220
 Root     67 :    16.172415791333710
 Root     68 :    16.226133071314510
 Root     69 :    16.271936641570210
 Root     70 :    16.417348072507070
 Root     71 :    16.426276551222780
 Root     72 :    16.509376491144430
 Root     73 :    16.642394203021670
 Root     74 :    16.709984977843210
 Root     75 :    16.721679414476460
 Root     76 :    16.820053993084230
 Root     77 :    16.948336534833860
 Root     78 :    17.103959928125940
 Root     79 :    17.151062900036000
 Root     80 :    17.306041494528290
 Root     81 :    17.379514529774860
 Root     82 :    17.450953457691600
 Root     83 :    17.699675425160720
 Root     84 :    17.802170226629380
 Root     85 :    17.808795969849940
 Root     86 :    17.829353116056420
 Root     87 :    17.890370515892530
 Root     88 :    17.971578810098900
 Root     89 :    18.097017354383460
 Root     90 :    18.113995899158120
 Root     91 :    18.153034666726620
 Root     92 :    18.189834406981570
 Root     93 :    18.257174124062850
 Root     94 :    18.293453334600510
 Root     95 :    18.357385146055130
 Root     96 :    18.364103472030680
 Root     97 :    18.463127280393190
 Root     98 :    18.519879555724660
 Root     99 :    18.650829128678550
 Root    100 :    18.690511870134310
 Root    101 :    18.932623667417370
 Root    102 :    18.976684462742790
 Root    103 :    19.211065621743230
 Root    104 :    19.322989161630980
 Root    105 :    19.385248328841690
 Root    106 :    19.567435396256380
 Root    107 :    19.577758414434010
 Root    108 :    19.674404407444790
 Root    109 :    19.695473621192010
 Root    110 :    19.844163577762270
 Root    111 :    19.864317409755790
 Root    112 :    19.865816804696890
 Root    113 :    19.961079129925270
 Root    114 :    19.969511399743830
 Root    115 :    20.005038171775170
 Root    116 :    20.034808694117740
 Root    117 :    20.134693678480520
 Root    118 :    20.152700249342190
 Root    119 :    20.162904889996980
 Root    120 :    20.321118142391300
 Root    121 :    20.382030055995890
 Root    122 :    20.453528580232770
 Root    123 :    20.503288816911070
 Root    124 :    20.563949033565210
 Root    125 :    20.681969785352140
 Root    126 :    20.833848308620270
 Root    127 :    20.861219216359290
 Root    128 :    21.061468858121180
 Root    129 :    21.086391889639480
 Root    130 :    21.160017616232600
 Root    131 :    21.212488517056440
 Root    132 :    21.230915829864240
 Root    133 :    21.311380661026990
 Root    134 :    21.363982824732470
 Root    135 :    21.404965223981680
 Root    136 :    21.479715078156370
 Root    137 :    21.575764204174640
 Root    138 :    21.595777177432740
 Root    139 :    21.701669990108020
 Root    140 :    21.708708449270240
 Root    141 :    21.847723159329380
 Root    142 :    21.861652015618780
 Root    143 :    21.999040661385950
 Root    144 :    22.051254529064610
 Root    145 :    22.079538856146790
 Root    146 :    22.159026328843770
 Root    147 :    22.226421882159430
 Root    148 :    22.293810151981230
 Root    149 :    22.319835309665430
 Root    150 :    22.385194773258710
 Root    151 :    22.484131074467570
 Root    152 :    22.632609479503540
 Root    153 :    22.683045394603930
 Root    154 :    22.698826751979680
 Root    155 :    22.808265329250890
 Root    156 :    23.001729318967540
 Root    157 :    23.066375407309810
 Root    158 :    23.170124937071730
 Root    159 :    23.449995822070220
 Root    160 :    23.492367464095610
 Root    161 :    23.502412840035840
 Root    162 :    23.640434593551520
 Root    163 :    23.696638883493890
 Root    164 :    23.723672085756470
 Root    165 :    23.734440546698790
 Root    166 :    23.755386664964820
 Root    167 :    23.842355538847930
 Root    168 :    23.906424099186420
 Root    169 :    24.003467555651700
 Root    170 :    24.141417088785950
 Root    171 :    24.152856689769800
 Root    172 :    24.211169007193950
 Root    173 :    24.271708027507260
 Root    174 :    24.295232510833300
 Root    175 :    24.363103677553310
 Root    176 :    24.410811283073090
 Root    177 :    24.536806073454900
 Root    178 :    24.634447555966420
 Root    179 :    24.642485433818210
 Root    180 :    24.746278419736520
 Root    181 :    24.784406178180530
 Root    182 :    24.811027762232840
 Root    183 :    25.001947690939990
 Root    184 :    25.205735992476100
 Root    185 :    25.216150563455410
 Root    186 :    25.339573187529290
 Root    187 :    25.358723618110800
 Root    188 :    25.433977475518260
 Root    189 :    25.575796120212800
 Root    190 :    25.678809251317070
 Root    191 :    25.702481564486090
 Root    192 :    25.763153777408900
 Root    193 :    25.885391921462060
 Root    194 :    25.930658900477870
 Root    195 :    26.008367672433330
 Root    196 :    26.070994164665820
 Root    197 :    26.104798606522170
 Root    198 :    26.244546100519740
 Root    199 :    26.250112419730940
 Root    200 :    26.408215784136930
 Root    201 :    26.440702352938070
 Root    202 :    26.473353395596350
 Root    203 :    26.584518464785710
 Root    204 :    26.664644074572900
 Root    205 :    26.712157986572320
 Root    206 :    26.761840113217060
 Root    207 :    26.814746673798270
 Root    208 :    26.969768019028720
 Root    209 :    27.096785025108770
 Root    210 :    27.102143637391540
 Root    211 :    27.279106273870840
 Root    212 :    27.320540948736280
 Root    213 :    27.374807914944440
 Root    214 :    27.462898173432230
 Root    215 :    27.485183886715540
 Root    216 :    27.555187372057930
 Root    217 :    27.555880142950130
 Root    218 :    27.823314886054310
 Root    219 :    27.841837407224720
 Root    220 :    27.949776889132230
 Root    221 :    28.008824915472630
 Root    222 :    28.132941245628920
 Root    223 :    28.232726927460540
 Root    224 :    28.279750232611100
 Root    225 :    28.295392161585060
 Root    226 :    28.514347745921010
 Root    227 :    28.534231560411960
 Root    228 :    28.560690182965830
 Root    229 :    28.628457860570180
 Root    230 :    28.770124545620160
 Root    231 :    28.834381459130440
 Root    232 :    28.885569952401760
 Root    233 :    28.919256167716000
 Root    234 :    29.032204545368740
 Root    235 :    29.069769360862170
 Root    236 :    29.267238071589000
 Root    237 :    29.281528995931290
 Root    238 :    29.352394110982940
 Root    239 :    29.603679005723120
 Root    240 :    29.630813848685400
 Root    241 :    29.684877003881000
 Root    242 :    29.693420272837540
 Root    243 :    29.773982845886740
 Root    244 :    29.853342218218300
 Root    245 :    29.916440506280280
 Root    246 :    30.022583942341690
 Root    247 :    30.053581688795020
 Root    248 :    30.200318169159350
 Root    249 :    30.381861574480420
 Root    250 :    30.396236299529750
 Root    251 :    30.453550421121340
 Root    252 :    30.480999105379440
 Root    253 :    30.580944105109350
 Root    254 :    30.632965707916520
 Root    255 :    30.853385001063980
 Root    256 :    30.867520142082070
 Root    257 :    31.009460915268420
 Root    258 :    31.058907362969650
 Root    259 :    31.126731869096570
 Root    260 :    31.152655621296080
 Root    261 :    31.268975155695700
 Root    262 :    31.365524590533330
 Root    263 :    31.426728074730840
 Root    264 :    31.581178488719160
 Root    265 :    31.596529910292160
 Root    266 :    31.614014957807310
 Root    267 :    31.716521182551020
 Root    268 :    31.865744154453210
 Root    269 :    31.930577484455020
 Root    270 :    32.027042980122980
 Root    271 :    32.050184000391340
 Root    272 :    32.349825837517660
 Root    273 :    32.481519516079170
 Root    274 :    32.499662332170250
 Root    275 :    32.606030676167090
 Root    276 :    32.732767803601860
 Root    277 :    32.944985133736860
 Root    278 :    32.980830299209500
 Root    279 :    33.038998015589410
 Root    280 :    33.094347465558390
 Root    281 :    33.154918686967570
 Root    282 :    33.188138634172180
 Root    283 :    33.222909262490870
 Root    284 :    33.329121365489980
 Root    285 :    33.475407037524050
 Root    286 :    33.721229548788630
 Root    287 :    33.756324194995950
 Root    288 :    33.805861501718870
 Root    289 :    33.878044994184090
 Root    290 :    33.924691098008380
 Root    291 :    34.090988935571580
 Root    292 :    34.177700178475190
 Root    293 :    34.244299847984430
 Root    294 :    34.298421816717640
 Root    295 :    34.455198267505100
 Root    296 :    34.560866375176470
 Root    297 :    34.727714658020770
 Root    298 :    34.872997390529460
 Root    299 :    34.930140667732430
 Root    300 :    35.062165337754220
 Root    301 :    35.109099063963970
 Root    302 :    35.132247168949430
 Root    303 :    35.199768032693660
 Root    304 :    35.421031425002960
 Root    305 :    35.426245443972860
 Root    306 :    35.511468720365710
 Root    307 :    35.673207548871500
 Root    308 :    35.719669115984650
 Root    309 :    35.898127310325890
 Root    310 :    36.123505025739500
 Root    311 :    36.152940954826800
 Root    312 :    36.364752331757690
 Root    313 :    36.404494558726930
 Root    314 :    36.678276635986400
 Root    315 :    36.713236636069900
 Root    316 :    36.783493382224560
 Root    317 :    36.831999907047350
 Root    318 :    36.906385420570960
 Root    319 :    37.149216544730290
 Root    320 :    37.175168610985750
 Root    321 :    37.245901594534180
 Root    322 :    37.539848063685410
 Root    323 :    37.676604506537950
 Root    324 :    37.841675141737750
 Root    325 :    37.861827311604480
 Root    326 :    38.413206139454340
 Root    327 :    38.488575134893910
 Root    328 :    38.608469558088570
 Root    329 :    38.677779921162300
 Root    330 :    38.893580210842050
 Root    331 :    38.902679253807610
 Root    332 :    38.955243450258760
 Root    333 :    39.067856604465940
 Root    334 :    39.136861059909980
 Root    335 :    39.178946105520660
 Root    336 :    39.321055147219600
 Root    337 :    39.328529161355740
 Root    338 :    39.587893136570450
 Root    339 :    39.610713446931330
 Root    340 :    39.777672762673080
 Root    341 :    39.879488038317510
 Root    342 :    39.940863479757350
 Root    343 :    40.045433892414480
 Root    344 :    40.127043999523600
 Root    345 :    40.219015348167460
 Root    346 :    40.730619589757650
 Root    347 :    40.828295206448380
 Root    348 :    40.854713445295300
 Root    349 :    40.916785754494960
 Root    350 :    41.127240676299240
 Root    351 :    41.348962741579850
 Root    352 :    41.527315648671990
 Root    353 :    41.864618026846340
 Root    354 :    42.013536378170350
 Root    355 :    42.043825406064530
 Root    356 :    42.143997273549420
 Root    357 :    42.342873207311270
 Root    358 :    42.416596195892780
 Root    359 :    42.471731862355770
 Root    360 :    42.689181239125280
 Root    361 :    42.708822756439820
 Root    362 :    42.922323716493390
 Root    363 :    42.956662516792250
 Root    364 :    43.144031004572330
 Root    365 :    43.296043807699340
 Root    366 :    43.378446451141160
 Root    367 :    43.524711228698900
 Root    368 :    43.731340218032190
 Root    369 :    43.965615513518460
 Root    370 :    44.054365322490880
 Root    371 :    44.159857413235570
 Root    372 :    44.225575507563380
 Root    373 :    44.638838195167210
 Root    374 :    44.645528531347300
 Root    375 :    44.717173957236560
 Root    376 :    44.800091966250720
 Root    377 :    44.861563567767640
 Root    378 :    45.071349982549820
 Root    379 :    45.437712105702530
 Root    380 :    45.460498637683360
 Root    381 :    45.635384361891760
 Root    382 :    46.028857813955980
 Root    383 :    46.292288361193810
 Root    384 :    46.321284250335180
 Root    385 :    46.738802779330240
 Root    386 :    46.924261905420100
 Root    387 :    46.925073196300470
 Root    388 :    47.067848045381980
 Root    389 :    47.665513038884510
 Root    390 :    47.810255009827380
 Root    391 :    47.911447340956850
 Root    392 :    48.048194592953700
 Root    393 :    48.165267878795140
 Root    394 :    48.441680190202980
 Root    395 :    48.473135955504230
 Root    396 :    48.567574730745370
 Root    397 :    48.968043124858270
 Root    398 :    49.037339746832170
 Root    399 :    49.079977038669450
 Root    400 :    49.633499885775670
 Root    401 :    50.088019496486270
 Root    402 :    50.207862366630170
 Root    403 :    50.280875933145880
 Root    404 :    50.506867447029210
 Root    405 :    50.977665204965230
 Root    406 :    51.282736631199230
 Root    407 :    51.555110866969920
 Root    408 :    51.708838210566810
 Root    409 :    51.759639949024700
 Root    410 :    51.885620978065180
 Root    411 :    51.977292457731950
 Root    412 :    51.999512254799230
 Root    413 :    52.087212340743710
 Root    414 :    52.269093603089470
 Root    415 :    52.326502226092430
 Root    416 :    52.463074333975140
 Root    417 :    52.520057796906930
 Root    418 :    52.707408240119640
 Root    419 :    52.746934682382760
 Root    420 :    52.996029755900980
 Root    421 :    53.159551762495150
 Root    422 :    53.221923605403600
 Root    423 :    53.616814415414520
 Root    424 :    53.774690547764270
 Root    425 :    54.070978348528570
 Root    426 :    54.087029145484410
 Root    427 :    54.176714218451880
 Root    428 :    54.355079422260340
 Root    429 :    54.479335053759480
 Root    430 :    54.533854386302980
 Root    431 :    54.807322553908110
 Root    432 :    55.086887211737740
 Root    433 :    55.264542709038980
 Root    434 :    55.310773684281530
 Root    435 :    55.343143459400590
 Root    436 :    55.612407639428770
 Root    437 :    55.623714268083150
 Root    438 :    55.771131588328420
 Root    439 :    55.778754502627820
 Root    440 :    56.104129970487170
 Root    441 :    56.287062804336980
 Root    442 :    56.462277893332750
 Root    443 :    56.960477742095210
 Root    444 :    57.034713512579300
 Root    445 :    57.126959515529440
 Root    446 :    57.260776231442290
 Root    447 :    57.343898599590690
 Root    448 :    57.495303243902120
 Root    449 :    57.550363284117140
 Root    450 :    57.733810013278810
 Root    451 :    57.947359676687150
 Root    452 :    58.061478287291270
 Root    453 :    58.256016121582670
 Root    454 :    58.302540396368080
 Root    455 :    58.398268344783010
 Root    456 :    58.398337812838320
 Root    457 :    58.714549700076890
 Root    458 :    58.904845875644110
 Root    459 :    59.166133106172160
 Root    460 :    59.216842354869260
 Root    461 :    59.283526417876470
 Root    462 :    59.525530650327930
 Root    463 :    59.576618375094890
 Root    464 :    59.712749206571210
 Root    465 :    60.081468224951700
 Root    466 :    60.186417726699780
 Root    467 :    60.328709240892550
 Root    468 :    60.381846197673280
 Root    469 :    60.439272179110930
 Root    470 :    60.607861481516910
 Root    471 :    60.987731222110370
 Root    472 :    61.045666691682630
 Root    473 :    61.378416962971980
 Root    474 :    61.867052142570750
 Root    475 :    61.946473054617980
 Root    476 :    62.075570378833890
 Root    477 :    62.143618084232600
 Root    478 :    62.166872882996690
 Root    479 :    62.319385074150720
 Root    480 :    62.644949606330730
 Root    481 :    62.792252492904630
 Root    482 :    62.879420942775710
 Root    483 :    63.003876639801920
 Root    484 :    63.121991067815840
 Root    485 :    63.642837645986430
 Root    486 :    63.856775769238130
 Root    487 :    63.915983569459600
 Root    488 :    64.017398201895830
 Root    489 :    64.299074440485230
 Root    490 :    64.490057956823750
 Root    491 :    64.492078862659940
 Root    492 :    64.611035811005440
 Root    493 :    64.670523093786780
 Root    494 :    64.694264236663220
 Root    495 :    64.735542139844910
 Root    496 :    64.831909889842650
 Root    497 :    64.921139419912660
 Root    498 :    65.136753218925250
 Root    499 :    65.512711612888490
 Root    500 :    65.655923472397890
 Root    501 :    65.796551430565860
 Root    502 :    65.802413532967900
 Root    503 :    66.000689394500980
 Root    504 :    66.212007063743390
 Root    505 :    66.324703707149040
 Root    506 :    66.389783630250800
 Root    507 :    66.795604419095570
 Root    508 :    67.062460562787040
 Root    509 :    67.132539268369770
 Root    510 :    67.396433727605140
 Root    511 :    67.567476394883780
 Root    512 :    67.700395909730660
 Root    513 :    67.930294849820580
 Root    514 :    67.969347354284990
 Root    515 :    68.261046008664610
 Root    516 :    68.815492750232420
 Root    517 :    68.843166740166820
 Root    518 :    69.108478473102390
 Root    519 :    69.134424569300900
 Root    520 :    69.137505582811500
 Root    521 :    69.250802306304080
 Root    522 :    69.383347108012330
 Root    523 :    69.511766322413390
 Root    524 :    69.975243845223550
 Root    525 :    70.093593472607180
 Root    526 :    70.405579463385010
 Root    527 :    70.685244141166510
 Root    528 :    71.066208778891310
 Root    529 :    71.122674900343130
 Root    530 :    71.314005712302960
 Root    531 :    71.402381753775640
 Root    532 :    71.940509455356500
 Root    533 :    71.974191327925870
 Root    534 :    72.343718462620440
 Root    535 :    72.528406124657980
 Root    536 :    72.851400833440050
 Root    537 :    73.127188546328580
 Root    538 :    73.136481266050350
 Root    539 :    73.502085133325340
 Root    540 :    74.004407415197750
 Root    541 :    74.288225241060030
 Root    542 :    74.589769795731400
 Root    543 :    75.466547868184990
 Root    544 :    75.813885951918150
 Root    545 :    75.945394136255630
 Root    546 :    75.998211339169770
 Root    547 :    76.172245712218550
 Root    548 :    76.309845228846680
 Root    549 :    76.600913584831130
 Root    550 :    76.753538918447590
 Root    551 :    76.884734254652500
 Root    552 :    77.400573120579310
 Root    553 :    77.463153683399580
 Root    554 :    77.632332083842640
 Root    555 :    77.830803285608280
 Root    556 :    77.836358482693170
 Root    557 :    78.273033791526590
 Root    558 :    78.393208947141990
 Root    559 :    78.610642775513100
 Root    560 :    79.213145478614610
 Root    561 :    79.327962040621060
 Root    562 :    79.643124149857270
 Root    563 :    80.980817738020680
 Root    564 :    81.029182469920020
 Root    565 :    81.090706381479550
 Root    566 :    81.284392721468240
 Root    567 :    81.492173125385790
 Root    568 :    81.511499763769460
 Root    569 :    81.691134463504770
 Root    570 :    81.848213652980150
 Root    571 :    82.228520385381300
 Root    572 :    82.240269058046010
 Root    573 :    82.319526442292220
 Root    574 :    82.362658472329200
 Root    575 :    82.796779469437230
 Root    576 :    82.965557896380790
 Root    577 :    83.055336793639540
 Root    578 :    83.739364727213400
 Root    579 :    83.808277316263120
 Root    580 :    83.810636881336220
 Root    581 :    84.141856478854630
 Root    582 :    84.243420196408660
 Root    583 :    84.516313286272380
 Root    584 :    84.940863465847630
 Root    585 :    85.545720781473830
 Root    586 :    85.937490927506600
 Root    587 :    86.030308414340350
 Root    588 :    86.186861580966000
 Root    589 :    86.334572292035290
 Root    590 :    86.540751714576740
 Root    591 :    86.750501341347160
 Root    592 :    87.130667267694590
 Root    593 :    87.854349621927140
 Root    594 :    87.885086866486230
 Root    595 :    88.192356800773030
 Root    596 :    88.342590774975780
 Root    597 :    88.482715564388310
 Root    598 :    88.591346222080830
 Root    599 :    89.009098626917280
 Root    600 :    89.502977795513430
 Root    601 :    89.862842403014180
 Root    602 :    90.320553216423580
 Root    603 :    90.634932193653090
 Root    604 :    91.096390520220780
 Root    605 :    91.439975908010370
 Root    606 :    91.715990616147710
 Root    607 :    92.419575202080030
 Root    608 :    92.956835977366640
 Root    609 :    93.315596958351830
 Root    610 :    93.390273218847800
 Root    611 :    93.751178447676920
 Root    612 :    93.774863749050200
 Root    613 :    94.025892396346420
 Root    614 :    94.085057218123480
 Root    615 :    94.426466522199830
 Root    616 :    94.955220300889000
 Root    617 :    95.050875530024470
 Root    618 :    95.298563838332870
 Root    619 :    95.617127847339760
 Root    620 :    96.015101484081090
 Root    621 :    96.263376980836040
 Root    622 :    96.972453396008290
 Root    623 :    97.090830751584260
 Root    624 :    97.359374761679010
 Root    625 :    98.194375844992850
 Root    626 :    98.603284710749730
 Root    627 :    98.745317108304700
 Root    628 :    99.020014643117900
 Root    629 :    99.027099746759260
 Root    630 :    99.139661212562540
 Root    631 :    99.283580165961370
 Root    632 :    99.512240605323460
 Root    633 :    99.698227935630070
 Root    634 :   100.153001540877400
 Root    635 :   100.330755082095700
 Root    636 :   102.092186623707400
 Root    637 :   102.315012231870100
 Root    638 :   102.348388779992500
 Root    639 :   103.241847303880900
 Root    640 :   103.376979918543800
 Root    641 :   103.535361479048200
 Root    642 :   103.683931144047200
 Root    643 :   103.955423079013500
 Root    644 :   104.012967258132400
 Root    645 :   104.564542152322700
 Root    646 :   104.794265594383300
 Root    647 :   105.392492990479000
 Root    648 :   105.665925860723200
 Root    649 :   105.765128005518600
 Root    650 :   106.468908624531000
 Root    651 :   106.768905351240300
 Root    652 :   107.368204100518500
 Root    653 :   107.433556007268500
 Root    654 :   108.770050732636400
 Root    655 :   109.166032344289700
 Root    656 :   109.355916088648300
 Root    657 :   110.283253033804200
 Root    658 :   110.802659452599900
 Root    659 :   111.147784462971900
 Root    660 :   111.258980006126900
 Root    661 :   111.643420872692900
 Root    662 :   111.923140324388300
 Root    663 :   113.365158917456000
 Root    664 :   113.460493729028600
 Root    665 :   113.917503480670800
 Root    666 :   115.030503882209100
 Root    667 :   115.722318509658700
 Root    668 :   116.300585861585000
 Root    669 :   117.075277247030900
 Root    670 :   118.516992877421400
 Root    671 :   120.777023527888900
 Root    672 :   122.588459030976800
 Root    673 :   124.859597607449200
 Root    674 :   126.303351814025300
 Root    675 :   128.232621696463600
 Convergence achieved for final wavefunctions.
 ***********************************************************************
 Excited states from <AA,BB:AA,BB> singles matrix:
 ***********************************************************************
 
 1PDM for each excited state written to RWF  633
 Ground to excited state transition densities written to RWF  633
 Ground to excited state transition electric dipole moments (Au):
       state          X           Y           Z        Dip. S.      Osc.
         1         0.0000      0.0000      0.0692      0.0048      0.0006
         2         0.0000     -0.0000      0.2667      0.0711      0.0126
         3        -0.1874      0.1394      0.0000      0.0546      0.0098
         4        -1.0276     -0.1544     -0.0000      1.0797      0.2069
         5        -0.0000      0.0000      0.1342      0.0180      0.0036
         6         0.6572     -0.5182     -0.0000      0.7005      0.1442
         7         0.0000      0.0001     -0.1704      0.0291      0.0063
         8        -0.2920     -0.5196     -0.0000      0.3553      0.0777
         9        -0.0000     -0.0000      0.1099      0.0121      0.0027
        10         0.1809      0.1017      0.0000      0.0431      0.0104
        11        -0.0000      0.0000     -0.0694      0.0048      0.0012
        12         0.0000     -0.0000     -0.1325      0.0176      0.0043
        13        -0.0078      0.1196     -0.0000      0.0144      0.0035
        14        -0.0000     -0.0000      0.0721      0.0052      0.0013
        15         0.1021     -0.1372     -0.0000      0.0293      0.0074
        16        -0.2291     -0.1799     -0.0000      0.0848      0.0217
        17        -0.0000     -0.0000      0.2747      0.0755      0.0195
        18         0.2053     -0.4909      0.0000      0.2831      0.0789
        19         0.0000     -0.0000     -0.3378      0.1141      0.0321
        20        -0.0049      0.1761     -0.0000      0.0311      0.0088
        21         0.0000     -0.0000      0.2276      0.0518      0.0147
        22         0.0490     -0.1151      0.0000      0.0156      0.0044
        23        -0.0001     -0.0001      0.3405      0.1159      0.0333
        24         0.5699      0.4471      0.0001      0.5247      0.1514
        25        -0.0000     -0.0000     -0.0126      0.0002      0.0000
        26        -0.1606      0.2778      0.0000      0.1030      0.0304
        27         0.0000     -0.0000      0.0216      0.0005      0.0001
        28         0.0000     -0.0000     -0.0720      0.0052      0.0016
        29         0.0929     -0.5708      0.0000      0.3344      0.1017
        30        -0.1643     -0.1772     -0.0000      0.0584      0.0180
        31        -0.0000     -0.0000      0.1315      0.0173      0.0053
        32        -0.0506      0.0277     -0.0000      0.0033      0.0011
        33         0.0000     -0.0000     -0.1715      0.0294      0.0095
        34         0.0000      0.0000      0.3445      0.1187      0.0391
        35        -0.2948     -0.1554      0.0000      0.1110      0.0367
        36        -0.0000     -0.0000      0.6480      0.4199      0.1399
        37         0.2185      0.5573      0.0000      0.3584      0.1200
        38        -0.2173     -0.2775      0.0000      0.1242      0.0421
        39         0.6798      0.1709      0.0000      0.4913      0.1677
        40        -0.0000      0.0000      0.2036      0.0414      0.0142
        41         0.0000      0.0000     -0.2812      0.0791      0.0273
        42         0.0000      0.0000     -0.2887      0.0834      0.0288
        43        -0.3130      0.1842      0.0000      0.1319      0.0457
        44         0.4466      0.2915      0.0000      0.2844      0.0987
        45        -0.0000      0.0001     -0.2599      0.0675      0.0237
        46        -0.2788      0.3773      0.0000      0.2201      0.0773
        47         0.2143     -0.4028     -0.0000      0.2082      0.0735
        48        -0.0000      0.0000     -0.0411      0.0017      0.0006
        49         0.1118     -0.0532     -0.0001      0.0153      0.0055
        50        -0.0000      0.0000     -0.3383      0.1145      0.0414
        51        -0.0476     -0.0034     -0.0000      0.0023      0.0008
        52         0.0000      0.0000     -0.3459      0.1197      0.0444
        53         0.3747      0.3142      0.0000      0.2391      0.0890
[...]
     15  -0.598934D+00 -0.184332D-04 -0.293762D+00 -0.549169D-05 -0.156489D-04
     16  -0.248706D-01  0.000000D+00 -0.572548D-01 -0.335390D-05  0.754178D-05
               606           607           608           609           610 
      1  -0.166329D+03 -0.166303D+03 -0.166284D+03 -0.166270D+03 -0.166268D+03
      2  -0.409672D-05  0.242044D-01 -0.336127D-05  0.909992D-01 -0.100681D+00
      3  -0.226912D-05  0.724483D-01 -0.101335D-05  0.167373D-01 -0.954017D-01
      4   0.712798D-01  0.000000D+00  0.262893D-01  0.000000D+00  0.125571D-05
      5   0.121543D-04 -0.697626D-01  0.102624D-04 -0.279459D+00  0.303740D+00
      6   0.638368D-05 -0.210028D+00  0.274951D-05 -0.418949D-01  0.275382D+00
      7  -0.205174D+00  0.000000D+00 -0.679918D-01 -0.271529D-05 -0.367118D-05
      8   0.118519D+00  0.000000D+00  0.169063D+00  0.438253D-05  0.000000D+00
      9   0.338210D+00 -0.113702D-05 -0.134341D+00  0.472561D-05  0.217977D-05
     10   0.272806D-04 -0.385254D+00  0.537685D-05 -0.232424D+00  0.406457D+00
     11   0.579619D-05 -0.369339D+00  0.451707D-04 -0.131424D+01  0.802574D+00
     12  -0.148641D-04  0.144923D+00 -0.832316D-05  0.290438D+00 -0.378295D-02
     13   0.333471D-05  0.948330D-01  0.197748D-05  0.952311D-01 -0.754485D-01
     14   0.288459D-04 -0.331598D+00 -0.193473D-05  0.184512D-01  0.226478D+00
     15  -0.195736D+00  0.450621D-05  0.249657D+00 -0.127318D-05 -0.371909D-05
     16   0.197876D+00  0.000000D+00  0.168063D+00  0.298301D-05 -0.492430D-05
               611           612           613           614           615 
      1  -0.166254D+03 -0.166253D+03 -0.166244D+03 -0.166242D+03 -0.166230D+03
      2   0.987789D-05  0.735586D-01 -0.272638D-05 -0.453424D-01  0.000000D+00
      3  -0.150511D-04 -0.105950D+00 -0.141452D-05 -0.613671D-01 -0.200412D-05
      4   0.334813D-01 -0.547647D-05  0.161053D+00 -0.435426D-05  0.470308D-01
      5  -0.312572D-04 -0.235714D+00  0.880661D-05  0.138125D+00  0.000000D+00
      6   0.493713D-04  0.354713D+00  0.436779D-05  0.186762D+00  0.584605D-05
      7  -0.956008D-01  0.156927D-04 -0.500572D+00  0.137151D-04 -0.145593D+00
      8   0.718918D-01 -0.855105D-05  0.143550D+00 -0.386164D-05  0.391796D-01
      9  -0.135071D+00  0.162163D-04 -0.111193D+01  0.113678D-04 -0.191389D+00
     10   0.233712D-04  0.403749D+00  0.887479D-05  0.408145D+00 -0.757579D-05
     11  -0.110136D-03 -0.117154D+01  0.757128D-05  0.578883D+00  0.160537D-04
     12  -0.566786D-04 -0.567205D+00 -0.684240D-05 -0.248819D+00  0.000000D+00
     13  -0.660472D-05  0.421204D-01  0.000000D+00  0.492299D-01 -0.384669D-05
     14   0.331984D-04  0.532685D+00  0.687016D-05  0.519108D+00 -0.156928D-04
     15   0.901776D-01 -0.106745D-04  0.103583D+01 -0.108224D-04  0.296782D+00
     16  -0.121912D+00  0.149214D-04  0.193341D+00 -0.125994D-04 -0.130128D+00
               616           617           618           619           620 
      1  -0.166210D+03 -0.166207D+03 -0.166197D+03 -0.166186D+03 -0.166171D+03
      2  -0.258456D-05  0.759691D-01 -0.796059D-01 -0.254069D-01  0.842327D-02
      3  -0.247476D-05 -0.952787D-01 -0.258490D-01 -0.474694D-01  0.904905D-01
      4  -0.429427D-01 -0.116911D-05  0.000000D+00 -0.150913D-05  0.000000D+00
      5   0.851179D-05 -0.278240D+00  0.271609D+00  0.900671D-01 -0.604334D-02
      6   0.694107D-05  0.325878D+00  0.939764D-01  0.133476D+00 -0.285917D+00
      7   0.132997D+00  0.362998D-05  0.000000D+00  0.440038D-05 -0.297251D-05
      8  -0.744536D-01 -0.180730D-05  0.000000D+00 -0.180794D-05  0.178329D-05
      9   0.221231D+00 -0.127651D-04 -0.632497D-05 -0.437708D-05  0.168186D-04
     10  -0.618490D-05  0.576493D+00 -0.242824D+00 -0.291464D+00 -0.112498D+00
     11   0.339946D-04 -0.218006D+01 -0.168345D+01  0.576017D+00 -0.315029D-01
     12   0.824810D-05 -0.194610D+00  0.123592D+00  0.221109D+00  0.228562D+00
     13  -0.864421D-05 -0.571338D-01 -0.148874D+00 -0.207767D+00  0.108962D-01
     14  -0.115945D-04  0.917485D+00 -0.234561D+00 -0.446052D+00 -0.383453D+00
     15  -0.125849D+00  0.152507D-04  0.794545D-05  0.281698D-05 -0.158789D-04
     16  -0.887649D-01 -0.459582D-05 -0.516108D-05  0.148615D-04  0.572730D-05
               621           622           623           624           625 
      1  -0.166162D+03 -0.166136D+03 -0.166132D+03 -0.166122D+03 -0.166091D+03
      2   0.000000D+00  0.304977D-05 -0.410485D-01  0.117384D+00  0.000000D+00
      3  -0.305566D-05 -0.217239D-05  0.478216D-01 -0.627656D-01  0.000000D+00
      4  -0.538381D-01  0.251236D+00  0.805168D-05 -0.208310D-05 -0.128201D+00
      5   0.000000D+00 -0.994543D-05  0.131509D+00 -0.406473D+00 -0.120302D-05
      6   0.959300D-05  0.722522D-05 -0.161045D+00  0.197405D+00  0.230226D-05
      7   0.170857D+00 -0.807681D+00 -0.261165D-04  0.648166D-05  0.417183D+00
      8  -0.722619D-01  0.436692D+00  0.158808D-04  0.000000D+00 -0.194396D+00
      9   0.101069D+00  0.208712D+01  0.724920D-04 -0.129271D-04  0.224027D-01
     10   0.691481D-05 -0.189363D-04  0.490028D+00  0.614319D+00  0.579584D-05
     11   0.207328D-04 -0.538130D-04  0.438597D+00 -0.107382D+01  0.273789D-04
     12  -0.858142D-05  0.168654D-05  0.157469D-01 -0.796912D-01 -0.611704D-05
     13  -0.110586D-05  0.112118D-04 -0.152755D+00 -0.167173D+00  0.268794D-05
     14   0.196046D-04 -0.130087D-04  0.558657D+00  0.801638D+00  0.523089D-05
     15   0.257167D-01 -0.264899D+01 -0.891299D-04  0.145330D-04  0.896468D-01
     16   0.713966D-01  0.856821D+00  0.266967D-04 -0.318781D-05 -0.213727D+00
               626           627           628           629           630 
      1  -0.166076D+03 -0.166071D+03 -0.166061D+03 -0.166060D+03 -0.166056D+03
      2   0.250453D-04  0.641611D-01 -0.475121D-01 -0.349166D-05 -0.266338D-05
      3   0.407413D-05  0.634743D-02 -0.442623D-01 -0.304878D-05 -0.290361D-05
      4   0.814399D-01 -0.224327D-04  0.594085D-05 -0.182425D-01  0.105150D+00
      5  -0.934217D-04 -0.242781D+00  0.170345D+00  0.121254D-04  0.101761D-04
      6  -0.528283D-05 -0.274926D-03  0.134346D+00  0.952219D-05  0.890619D-05
      7  -0.246852D+00  0.673746D-04 -0.186762D-04  0.607245D-01 -0.338305D+00
      8   0.405442D-01 -0.423718D-05  0.475746D-05 -0.434524D-01  0.141936D+00
      9   0.385492D+00 -0.957145D-04  0.330096D-04 -0.339518D+00  0.460304D+00
     10  -0.130617D-04  0.485658D-01  0.521519D+00  0.337185D-04  0.131663D-05
     11  -0.795841D-04  0.166286D+00  0.161904D+01  0.115002D-03 -0.974769D-05
     12  -0.521374D-04 -0.205103D+00 -0.340763D+00 -0.268846D-04 -0.518979D-05
     13  -0.709601D-04 -0.234229D+00  0.145704D-01 -0.135154D-05  0.129447D-04
     14   0.164244D-03  0.572501D+00  0.418107D+00  0.300162D-04 -0.180321D-04
     15  -0.529918D+00  0.144769D-03 -0.594061D-04  0.437731D+00 -0.469557D+00
     16  -0.240535D+00  0.962956D-04 -0.356396D-04  0.126312D+00  0.211160D+00
               631           632           633           634           635 
      1  -0.166051D+03 -0.166043D+03 -0.166036D+03 -0.166019D+03 -0.166013D+03
      2   0.525699D-01  0.000000D+00  0.439369D-01  0.235552D-01 -0.442342D-01
      3   0.854665D-01  0.000000D+00  0.344009D-01  0.163834D-02 -0.720367D-01
      4   0.179319D-05  0.915659D-02 -0.357055D-05 -0.202123D-05  0.000000D+00
      5  -0.191887D+00  0.000000D+00 -0.140136D+00 -0.960609D-01  0.145354D+00
      6  -0.278277D+00  0.000000D+00 -0.733252D-01  0.414671D-02  0.249293D+00
      7  -0.564207D-05 -0.279392D-01  0.115042D-04  0.626509D-05 -0.298997D-05
      8   0.189780D-05  0.200972D-01 -0.471294D-05 -0.218441D-05  0.249145D-05
      9   0.253528D-05  0.136042D+00 -0.268775D-04 -0.155664D-04  0.497648D-05
     10   0.334473D-01  0.578940D-04  0.103292D+00  0.955685D-01  0.691419D+00
     11  -0.306414D+00 -0.229878D-03 -0.254820D+01 -0.324397D+00  0.100998D+00
     12   0.422889D+00 -0.174313D-04 -0.127525D+00 -0.731731D-01 -0.636542D+00
     13  -0.224221D+00  0.409167D-04  0.124366D+00  0.174628D+00  0.954804D-01
     14   0.434605D+00  0.460410D-04  0.212775D+00  0.176837D+00  0.611021D+00
     15  -0.421945D-05  0.321209D-01  0.144354D-04  0.109073D-04 -0.480285D-05
     16  -0.501101D-05  0.185992D+00 -0.206445D-04 -0.787371D-05  0.268686D-05
               636           637           638           639           640 
      1  -0.165948D+03 -0.165940D+03 -0.165938D+03 -0.165906D+03 -0.165901D+03
      2  -0.145272D-01  0.373352D-05 -0.432153D-01  0.000000D+00 -0.174491D-01
      3   0.229079D-01 -0.110871D-04  0.150257D+00 -0.205266D-05 -0.131600D-01
      4   0.000000D+00  0.701879D-02  0.000000D+00 -0.265313D-01  0.380308D-05
      5   0.274737D-01 -0.139393D-04  0.157645D+00  0.000000D+00  0.573952D-01
      6  -0.850822D-01  0.376320D-04 -0.511004D+00  0.697256D-05  0.547932D-01
      7   0.000000D+00 -0.268426D-01  0.000000D+00  0.960177D-01 -0.130548D-04
      8   0.000000D+00 -0.122304D-01  0.000000D+00 -0.584384D-01  0.497923D-05
      9   0.000000D+00  0.161775D-01  0.389192D-05 -0.443096D+00  0.429013D-04
     10   0.480941D+00 -0.848235D-05  0.258374D+00  0.127244D-04  0.237596D+00
     11  -0.124396D+00 -0.279864D-05  0.875626D-01 -0.810288D-05 -0.228597D+00
     12  -0.990208D-01 -0.210017D-04  0.264827D+00  0.106725D-04  0.250600D+00
     13   0.411767D+00  0.314458D-04 -0.341194D+00 -0.795144D-05 -0.133240D+00
     14   0.422066D+00  0.000000D+00  0.167538D+00  0.183151D-04  0.255895D+00
     15   0.109957D-05 -0.107945D+00 -0.113501D-04  0.670356D+00 -0.470649D-04
     16   0.000000D+00 -0.100042D+00 -0.128226D-04  0.528133D-02  0.221064D-04
               641           642           643           644           645 
      1  -0.165895D+03 -0.165889D+03 -0.165879D+03 -0.165877D+03 -0.165857D+03
      2   0.000000D+00 -0.530270D-01 -0.270708D-05  0.352165D-01  0.352119D-01
      3   0.000000D+00 -0.371758D-01  0.551289D-05 -0.556709D-01 -0.835096D-01
      4   0.549926D-01  0.000000D+00  0.677726D-02  0.000000D+00  0.000000D+00
      5  -0.264396D-05  0.188097D+00  0.932555D-05 -0.126052D+00 -0.144746D+00
      6   0.000000D+00  0.139658D+00 -0.181053D-04  0.183690D+00  0.289086D+00
      7  -0.184290D+00  0.394328D-05 -0.443874D-02  0.000000D+00  0.000000D+00
      8   0.687582D-01 -0.185080D-05 -0.105025D+00 -0.116088D-04  0.161628D-05
      9   0.397636D+00 -0.694700D-05  0.598445D-01  0.535502D-05 -0.464917D-05
     10  -0.114762D-04  0.410541D+00 -0.317602D-04  0.280169D+00  0.114373D+01
     11   0.158164D-04 -0.142433D+00 -0.617984D-04  0.704471D+00 -0.863261D-01
     12  -0.953729D-05 -0.648780D-01  0.000000D+00 -0.310251D-01 -0.808803D+00
     13   0.370503D-05 -0.142401D+00 -0.205810D-05  0.768340D-02  0.139726D+00
     14  -0.946609D-05  0.379967D+00 -0.300512D-04  0.310528D+00  0.150021D+01
     15  -0.301517D+00  0.102545D-04 -0.627265D-01 -0.979776D-05  0.587484D-05
     16   0.426624D+00 -0.587476D-05 -0.171782D+00 -0.208676D-04  0.000000D+00
               646           647           648           649           650 
      1  -0.165849D+03 -0.165827D+03 -0.165817D+03 -0.165813D+03 -0.165787D+03
      2   0.000000D+00  0.450878D-02  0.116591D+00 -0.332498D-05  0.605737D-01
      3  -0.102635D-05  0.121255D+00 -0.561735D-01 -0.295454D-05  0.982461D-01
      4   0.685354D-01  0.000000D+00  0.000000D+00 -0.430121D-02  0.000000D+00
      5  -0.273534D-05  0.255580D-01 -0.430201D+00  0.103603D-04 -0.215179D+00
      6   0.353851D-05 -0.418675D+00  0.216521D+00  0.964606D-05 -0.380066D+00
      7  -0.239419D+00  0.151020D-05  0.167018D-05  0.179449D-01 -0.216109D-05
      8   0.129764D+00  0.000000D+00  0.000000D+00 -0.153684D-01  0.000000D+00
      9   0.735259D+00  0.000000D+00  0.000000D+00 -0.355660D-01 -0.199609D-05
     10   0.133314D-04 -0.566204D+00 -0.664909D+00  0.336534D-04 -0.481621D+00
     11   0.000000D+00 -0.979996D-01 -0.489319D+00  0.679198D-05  0.125512D+00
     12  -0.916339D-05  0.660546D-01 -0.321723D+00  0.000000D+00  0.528490D+00
     13   0.391995D-05  0.246498D-01 -0.340548D-01  0.682421D-05 -0.406734D-01
     14   0.186405D-04 -0.981379D+00 -0.403841D+00  0.372546D-04 -0.374058D+00
     15  -0.866738D+00 -0.117299D-05 -0.352743D-05 -0.752407D-01 -0.150928D-05
     16   0.139771D+00 -0.424915D-05 -0.309657D-05 -0.233276D+00  0.000000D+00
               651           652           653           654           655 
      1  -0.165776D+03 -0.165754D+03 -0.165752D+03 -0.165702D+03 -0.165688D+03
      2  -0.185778D-01 -0.725768D-01 -0.122211D-05 -0.178036D-05 -0.149378D+00
      3   0.914333D-01 -0.384368D-01  0.000000D+00  0.000000D+00  0.124853D-01
      4   0.000000D+00  0.131612D-05 -0.967399D-01 -0.116997D-01  0.000000D+00
      5   0.564810D-01  0.276278D+00  0.472966D-05  0.666254D-05  0.569140D+00
      6  -0.336983D+00  0.133030D+00  0.201043D-05  0.000000D+00 -0.644588D-01
      7  -0.134884D-05 -0.452795D-05  0.337598D+00  0.586684D-01 -0.331412D-05
      8   0.188348D-05  0.285884D-05 -0.193668D+00  0.679871D-02  0.236000D-05
      9   0.246387D-05  0.230190D-04 -0.838084D+00 -0.253451D+00  0.702942D-05
     10  -0.133585D+00 -0.186261D+00 -0.325197D-05  0.801732D-05  0.106433D+01
     11  -0.358075D+00 -0.131899D+01 -0.218266D-04  0.206636D-04  0.231168D+01
     12  -0.926715D-02 -0.132695D+00 -0.131819D-05 -0.466683D-05 -0.382730D+00
     13   0.108499D+00 -0.967715D-01 -0.510075D-05  0.000000D+00 -0.576605D-01
     14  -0.246808D+00 -0.254491D+00 -0.454184D-05  0.225678D-05  0.462994D+00
     15   0.000000D+00 -0.241162D-04  0.104246D+01  0.232583D+00 -0.116466D-04
     16   0.177012D-05  0.602736D-05 -0.290736D+00 -0.437025D-01  0.000000D+00
               656           657           658           659           660 
      1  -0.165681D+03 -0.165647D+03 -0.165628D+03 -0.165615D+03 -0.165611D+03
      2   0.105727D+00 -0.503097D-01  0.551909D-02  0.000000D+00 -0.123527D-01
      3   0.353315D-01  0.704185D-02  0.202342D-02  0.000000D+00 -0.171408D-01
      4   0.000000D+00 -0.105134D-05  0.000000D+00 -0.461145D-01 -0.210821D-05
      5  -0.410471D+00  0.156253D+00 -0.269992D-01 -0.163528D-05  0.342508D-01
      6  -0.104868D+00 -0.270414D-01 -0.114113D-01  0.000000D+00  0.628092D-01
      7   0.000000D+00  0.383161D-05 -0.334791D-05  0.176201D+00  0.798981D-05
      8  -0.120388D-05  0.000000D+00  0.000000D+00 -0.132807D+00 -0.504166D-05
      9  -0.522327D-05 -0.988176D-05  0.373069D-05 -0.512149D+00 -0.120998D-04
     10   0.248836D-02  0.282130D+00  0.156639D+00  0.228891D-05 -0.111107D+00
     11  -0.289540D+01  0.410583D+00  0.143690D+01  0.229797D-04 -0.368542D+00
     12   0.237172D+00 -0.688071D-01  0.235967D+00 -0.112566D-05  0.683438D-01
     13   0.167450D+00 -0.729342D-02 -0.598311D-01  0.699943D-05 -0.258956D+00
     14   0.544942D+00  0.228725D+00 -0.228360D+00 -0.574921D-05 -0.363988D-01
     15   0.825820D-05  0.913081D-05 -0.822422D-05  0.477320D+00  0.138798D-04
     16  -0.238553D-05  0.000000D+00  0.172551D-05 -0.116169D+00 -0.354254D-05
               661           662           663           664           665 
      1  -0.165597D+03 -0.165587D+03 -0.165534D+03 -0.165530D+03 -0.165513D+03
      2   0.158418D-05  0.140897D+00  0.000000D+00  0.458103D-01  0.374580D-01
      3  -0.210195D-05 -0.126472D+00  0.000000D+00 -0.132339D-01  0.250578D-01
      4  -0.298100D-01  0.000000D+00  0.672968D-01  0.000000D+00  0.000000D+00
      5  -0.656516D-05 -0.569564D+00  0.000000D+00 -0.184394D+00 -0.159963D+00
      6   0.828984D-05  0.488034D+00  0.140390D-05  0.534135D-01 -0.914490D-01
      7   0.106672D+00  0.000000D+00 -0.233060D+00 -0.249529D-05  0.000000D+00
      8  -0.107487D+00  0.221069D-05  0.561032D-01  0.000000D+00 -0.119151D-05
      9  -0.198651D+00  0.000000D+00  0.418925D+00 -0.141337D-05 -0.160503D-05
     10   0.202011D-04  0.111002D+01 -0.135226D-05 -0.242298D+00  0.323620D+00
     11  -0.269008D-04 -0.237461D+01 -0.177201D-04  0.795489D+00 -0.130083D+01
     12  -0.138085D-04 -0.700306D+00  0.000000D+00 -0.226327D+00  0.289978D+00
     13   0.000000D+00  0.118382D+00 -0.178846D-05  0.960902D-01  0.361285D-01
     14   0.278152D-04  0.188254D+01  0.177255D-05 -0.290806D-01  0.621979D+00
     15   0.257386D+00  0.110800D-05 -0.336391D+00  0.000000D+00  0.464499D-05
     16  -0.172167D+00  0.000000D+00  0.100466D-01  0.000000D+00 -0.162746D-05
               666           667           668           669           670 
      1  -0.165472D+03 -0.165447D+03 -0.165426D+03 -0.165397D+03 -0.165344D+03
      2  -0.388532D-02 -0.228651D-01 -0.143591D-01  0.209292D-01 -0.377669D-01
      3  -0.349787D-01 -0.473128D-01  0.564455D-01 -0.266163D-01 -0.182985D-01
      4   0.000000D+00  0.000000D+00  0.000000D+00  0.000000D+00  0.000000D+00
      5   0.237480D-01  0.879719D-01  0.582244D-01 -0.967407D-01  0.138718D+00
      6   0.147892D+00  0.185276D+00 -0.208746D+00  0.101131D+00  0.847154D-01
      7   0.000000D+00  0.000000D+00 -0.174650D-05  0.000000D+00  0.000000D+00
      8   0.000000D+00  0.000000D+00  0.000000D+00  0.000000D+00  0.000000D+00
      9   0.000000D+00  0.445326D-05  0.000000D+00 -0.140155D-05  0.121419D-05
     10  -0.598333D-01  0.194375D+00  0.458213D+00 -0.110951D+00 -0.364856D+00
     11  -0.578837D+00 -0.478196D-01  0.417273D+00  0.404820D+00 -0.263299D+00
     12  -0.589894D-02 -0.160279D+00  0.182495D-01 -0.255573D+00 -0.206089D+00
     13   0.339479D-01 -0.100676D+00  0.345613D-01  0.740428D-01  0.120078D+00
     14  -0.161263D-01  0.482157D-01  0.463305D+00  0.391563D-01 -0.798511D-01
     15   0.108286D-05 -0.385323D-05  0.000000D+00  0.000000D+00  0.118849D-05
     16   0.000000D+00  0.000000D+00 -0.228822D-05  0.000000D+00  0.000000D+00
               671           672           673           674           675 
      1  -0.165261D+03 -0.165195D+03 -0.165111D+03 -0.165058D+03 -0.164987D+03
      2   0.164533D-01  0.243251D-01  0.103683D-01 -0.707983D-02 -0.131714D-01
      3   0.112693D-01 -0.558618D-02 -0.120114D-02  0.921250D-03  0.683569D-02
      4   0.000000D+00  0.000000D+00  0.000000D+00  0.000000D+00  0.000000D+00
      5  -0.804316D-01 -0.105207D+00  0.121156D-02  0.344677D-01  0.269009D-01
      6  -0.188897D-01  0.271607D-01 -0.435246D-02 -0.878849D-02 -0.330045D-02
      7   0.000000D+00  0.000000D+00  0.000000D+00  0.000000D+00  0.000000D+00
      8   0.000000D+00  0.000000D+00  0.103442D-05  0.000000D+00  0.000000D+00
      9   0.000000D+00 -0.109445D-05  0.000000D+00  0.000000D+00  0.000000D+00
     10   0.260844D+00 -0.155892D+00  0.365388D-01 -0.123082D+00 -0.705036D-01
     11  -0.619528D+00  0.248965D+00  0.738446D+00 -0.121974D+00 -0.754057D-02
     12  -0.225409D+00 -0.153909D-01 -0.710885D-01  0.614187D-01 -0.231427D+00
     13   0.364879D-01 -0.274367D-01  0.404099D-01  0.421519D-01 -0.239796D-01
     14   0.382894D+00  0.837839D-01 -0.126431D+00  0.133920D-01  0.697417D-01
     15   0.000000D+00  0.000000D+00 -0.203138D-05  0.000000D+00  0.000000D+00
     16  -0.152828D-05  0.000000D+00  0.000000D+00  0.000000D+00  0.000000D+00
 Unable to Open any file for archive entry.
 1\1\GINC-HEL22\SP\RM11 TD-FC\Gen\C1H3N1O1\SABYASACHI\21-Mar-2022\0\\#P
  TD(Nstates=10000) m11/Gen SCF(maxcycles=100) Int(Grid=ultrafine)\\xGD
 B7_00001_tier4.com\\0,1\N,0,-1.078471,-0.1569,0.000001\C,0,0.161963,0.
 384944,0.000002\O,0,1.18917,-0.245458,-0.000001\H,0,-1.898427,0.419427
 ,-0.000004\H,0,-1.178124,-1.157073,-0.000005\H,0,0.140706,1.489948,-0.
 000007\\Version=EM64L-G16RevC.01\State=1-A\HF=-169.6996567\RMSD=8.060e
 -09\PG=C01 [X(C1H3N1O1)]\\@
 The archive entry for this job was punched.


 "THE TIME HAS COME", THE WALRUS SAID,
 "TO TALK OF MANY THINGS,
 OF SHOES AND SHIPS AND SEALING WAX,
 OF CABBAGES AND KINGS,
 AND WHY THE SEA IS BOILING HOT,
 AND WHETHER PIGS HAVE WINGS."
 Job cpu time:       0 days  0 hours 17 minutes 19.0 seconds.
 Elapsed time:       0 days  0 hours  2 minutes 10.2 seconds.
 File lengths (MBytes):  RWF=    584 Int=      0 D2E=      0 Chk=    127 Scr=      1
 Normal termination of Gaussian 16 at Mon Mar 21 20:15:25 2022.
