 Entering Gaussian System, Link 0=g16
 Input=000012.com
 Output=000012.log
 Initial command:
 /home/sabyasachi/g16/l1.exe "/scratch/sabyasachi/PBS_7976146.helios/Gau-108346.inp" -scrdir="/scratch/sabyasachi/PBS_7976146.helios/"
 Entering Link 1 = /home/sabyasachi/g16/l1.exe PID=    108347.
  
 Copyright (c) 1988-2019, Gaussian, Inc.  All Rights Reserved.
  
 This is part of the Gaussian(R) 16 program.  It is based on
 the Gaussian(R) 09 system (copyright 2009, Gaussian, Inc.),
 the Gaussian(R) 03 system (copyright 2003, Gaussian, Inc.),
 the Gaussian(R) 98 system (copyright 1998, Gaussian, Inc.),
 the Gaussian(R) 94 system (copyright 1995, Gaussian, Inc.),
 the Gaussian 92(TM) system (copyright 1992, Gaussian, Inc.),
 the Gaussian 90(TM) system (copyright 1990, Gaussian, Inc.),
 the Gaussian 88(TM) system (copyright 1988, Gaussian, Inc.),
 the Gaussian 86(TM) system (copyright 1986, Carnegie Mellon
 University), and the Gaussian 82(TM) system (copyright 1983,
 Carnegie Mellon University). Gaussian is a federally registered
 trademark of Gaussian, Inc.
  
 This software contains proprietary and confidential information,
 including trade secrets, belonging to Gaussian, Inc.
  
 This software is provided under written license and may be
 used, copied, transmitted, or stored only in accord with that
 written license.
  
 The following legend is applicable only to US Government
 contracts under FAR:
  
                    RESTRICTED RIGHTS LEGEND
  
 Use, reproduction and disclosure by the US Government is
 subject to restrictions as set forth in subparagraphs (a)
 and (c) of the Commercial Computer Software - Restricted
 Rights clause in FAR 52.227-19.
  
 Gaussian, Inc.
 340 Quinnipiac St., Bldg. 40, Wallingford CT 06492
  
  
 ---------------------------------------------------------------
 Warning -- This program may not be used in any manner that
 competes with the business of Gaussian, Inc. or will provide
 assistance to any competitor of Gaussian, Inc.  The licensee
 of this program is prohibited from giving any competitor of
 Gaussian, Inc. access to this program.  By using this program,
 the user acknowledges that Gaussian, Inc. is engaged in the
 business of creating and licensing software in the field of
 computational chemistry and represents and warrants to the
 licensee that it is not a competitor of Gaussian, Inc. and that
 it will not use this program in any manner prohibited above.
 ---------------------------------------------------------------
  

 Cite this work as:
 Gaussian 16, Revision C.01,
 M. J. Frisch, G. W. Trucks, H. B. Schlegel, G. E. Scuseria, 
 M. A. Robb, J. R. Cheeseman, G. Scalmani, V. Barone, 
 G. A. Petersson, H. Nakatsuji, X. Li, M. Caricato, A. V. Marenich, 
 J. Bloino, B. G. Janesko, R. Gomperts, B. Mennucci, H. P. Hratchian, 
 J. V. Ortiz, A. F. Izmaylov, J. L. Sonnenberg, D. Williams-Young, 
 F. Ding, F. Lipparini, F. Egidi, J. Goings, B. Peng, A. Petrone, 
 T. Henderson, D. Ranasinghe, V. G. Zakrzewski, J. Gao, N. Rega, 
 G. Zheng, W. Liang, M. Hada, M. Ehara, K. Toyota, R. Fukuda, 
 J. Hasegawa, M. Ishida, T. Nakajima, Y. Honda, O. Kitao, H. Nakai, 
 T. Vreven, K. Throssell, J. A. Montgomery, Jr., J. E. Peralta, 
 F. Ogliaro, M. J. Bearpark, J. J. Heyd, E. N. Brothers, K. N. Kudin, 
 V. N. Staroverov, T. A. Keith, R. Kobayashi, J. Normand, 
 K. Raghavachari, A. P. Rendell, J. C. Burant, S. S. Iyengar, 
 J. Tomasi, M. Cossi, J. M. Millam, M. Klene, C. Adamo, R. Cammi, 
 J. W. Ochterski, R. L. Martin, K. Morokuma, O. Farkas, 
 J. B. Foresman, and D. J. Fox, Gaussian, Inc., Wallingford CT, 2019.
 
 ******************************************
 Gaussian 16:  EM64L-G16RevC.01  3-Jul-2019
                21-Mar-2022 
 ******************************************
 %mem=64gb
 %nproc=8
 Will use up to    8 processors via shared memory.
 -------------------------------------------------------------------
 #P TD(Nstates=10000) m11/Gen SCF(maxcycles=100) Int(Grid=ultrafine)
 -------------------------------------------------------------------
 1/38=1,172=1/1;
 2/12=2,17=6,18=5,40=1/2;
 3/5=7,11=9,25=1,30=1,74=-64,75=-5/1,2,3,8;
 4//1;
 5/5=2,7=100,38=5/2;
 8/6=1,10=1,108=10000/1;
 9/41=10000,42=1,70=2/14;
 6/7=2,8=2,9=2,10=2/1;
 99/5=1,9=1/99;
 Leave Link    1 at Mon Mar 21 20:04:50 2022, MaxMem=  8589934592 cpu:               0.4 elap:               0.1
 (Enter /home/sabyasachi/g16/l101.exe)
 ---------------------
 xGDB7_00001_tier4.com
 ---------------------
 Symbolic Z-matrix:
 Charge =  0 Multiplicity = 1
 8                     0.        0.        0.5969 
 8                     0.        0.       -0.5969 
 
 ITRead=  0  0
 MicOpt= -1 -1
 NAtoms=      2 NQM=        2 NQMF=       0 NMMI=      0 NMMIF=      0
                NMic=       0 NMicF=      0.
                    Isotopes and Nuclear Properties:
 (Nuclear quadrupole moments (NQMom) in fm**2, nuclear magnetic moments (NMagM)
  in nuclear magnetons)

  Atom         1           2
 IAtWgt=          16          16
 AtmWgt=  15.9949146  15.9949146
 NucSpn=           0           0
 AtZEff=  -0.0000000  -0.0000000
 NQMom=    0.0000000   0.0000000
 NMagM=    0.0000000   0.0000000
 AtZNuc=   8.0000000   8.0000000
 Leave Link  101 at Mon Mar 21 20:04:50 2022, MaxMem=  8589934592 cpu:               0.6 elap:               0.1
 (Enter /home/sabyasachi/g16/l202.exe)
                          Input orientation:                          
 ---------------------------------------------------------------------
 Center     Atomic      Atomic             Coordinates (Angstroms)
 Number     Number       Type             X           Y           Z
 ---------------------------------------------------------------------
      1          8           0        0.000000    0.000000    0.596896
      2          8           0        0.000000    0.000000   -0.596896
 ---------------------------------------------------------------------
 Stoichiometry    O2
 Framework group  D*H[C*(O.O)]
 Deg. of freedom     1
 Full point group                 D*H     NOp   8
 Largest Abelian subgroup         D2H     NOp   8
 Largest concise Abelian subgroup C2      NOp   2
                         Standard orientation:                         
 ---------------------------------------------------------------------
 Center     Atomic      Atomic             Coordinates (Angstroms)
 Number     Number       Type             X           Y           Z
 ---------------------------------------------------------------------
      1          8           0        0.000000    0.000000    0.596896
      2          8           0        0.000000    0.000000   -0.596896
 ---------------------------------------------------------------------
 Rotational constants (GHZ):           0.0000000          44.3412508          44.3412508
 Leave Link  202 at Mon Mar 21 20:04:50 2022, MaxMem=  8589934592 cpu:               0.1 elap:               0.0
 (Enter /home/sabyasachi/g16/l301.exe)
 General basis read from cards:  (5D, 7F)
 Centers:       1      2
 S 5 1.00
     Exponent=  2.2661767785D+03 Coefficients= -5.3431809926D-03
     Exponent=  3.4087010191D+02 Coefficients= -3.9890039230D-02
     Exponent=  7.7363135167D+01 Coefficients= -1.7853911985D-01
     Exponent=  2.1479644940D+01 Coefficients= -4.6427684959D-01
     Exponent=  6.6589433124D+00 Coefficients= -4.4309745172D-01
 S 1 1.00
     Exponent=  8.0975975668D-01 Coefficients=  1.0000000000D+00
 S 1 1.00
     Exponent=  2.5530772234D-01 Coefficients=  1.0000000000D+00
 S 1 1.00
     Exponent=  7.6572453250D-02 Coefficients=  1.0000000000D+00
 P 3 1.00
     Exponent=  1.7721504317D+01 Coefficients=  4.3394573193D-02
     Exponent=  3.8635505440D+00 Coefficients=  2.3094120765D-01
     Exponent=  1.0480920883D+00 Coefficients=  5.1375311064D-01
 P 1 1.00
     Exponent=  2.7641544411D-01 Coefficients=  1.0000000000D+00
 P 1 1.00
     Exponent=  6.9002276350D-02 Coefficients=  1.0000000000D+00
 D 1 1.00
     Exponent=  1.2000000000D+00 Coefficients=  1.0000000000D+00
 D 1 1.00
     Exponent=  1.7992024323D-01 Coefficients=  1.0000000000D+00
 ****
 Ernie: Thresh=  0.10000D-02 Tol=  0.10000D-05 Strict=F.
 There are    13 symmetry adapted cartesian basis functions of AG  symmetry.
 There are     2 symmetry adapted cartesian basis functions of B1G symmetry.
 There are     5 symmetry adapted cartesian basis functions of B2G symmetry.
 There are     5 symmetry adapted cartesian basis functions of B3G symmetry.
 There are     2 symmetry adapted cartesian basis functions of AU  symmetry.
 There are    13 symmetry adapted cartesian basis functions of B1U symmetry.
 There are     5 symmetry adapted cartesian basis functions of B2U symmetry.
 There are     5 symmetry adapted cartesian basis functions of B3U symmetry.
 There are    11 symmetry adapted basis functions of AG  symmetry.
 There are     2 symmetry adapted basis functions of B1G symmetry.
 There are     5 symmetry adapted basis functions of B2G symmetry.
 There are     5 symmetry adapted basis functions of B3G symmetry.
 There are     2 symmetry adapted basis functions of AU  symmetry.
 There are    11 symmetry adapted basis functions of B1U symmetry.
 There are     5 symmetry adapted basis functions of B2U symmetry.
 There are     5 symmetry adapted basis functions of B3U symmetry.
    46 basis functions,    70 primitive gaussians,    50 cartesian basis functions
     8 alpha electrons        8 beta electrons
       nuclear repulsion energy        28.3695497196 Hartrees.
 IExCor= 5042 DFT=T Ex+Corr=M11 ExCW=0 ScaHFX=  1.000000
 ScaDFX=  1.000000  1.000000  1.000000  1.000000 ScalE2=  1.000000  1.000000
 IRadAn=      5 IRanWt=     -1 IRanGd=            0 ICorTp=0 IEmpDi=  4
 HFx  wShort=  0.000000 wLong=  0.250000 cFull=  0.428000 cShort=  0.000000 cLong=  0.572000
 DFx  wShort=  0.000000 wLong=  0.250000 cFull=  0.000000 cShort=  0.000000 cLong=  1.000000
 NAtoms=    2 NActive=    2 NUniq=    1 SFac= 4.00D+00 NAtFMM=   60 NAOKFM=F Big=F
 Integral buffers will be    131072 words long.
 Raffenetti 1 integral format.
 Two-electron integral symmetry is turned on.
 Leave Link  301 at Mon Mar 21 20:04:50 2022, MaxMem=  8589934592 cpu:               0.5 elap:               0.1
 (Enter /home/sabyasachi/g16/l302.exe)
 NPDir=0 NMtPBC=     1 NCelOv=     1 NCel=       1 NClECP=     1 NCelD=      1
         NCelK=      1 NCelE2=     1 NClLst=     1 CellRange=     0.0.
 One-electron integrals computed using PRISM.
 One-electron integral symmetry used in STVInt
 NBasis=    46 RedAO= T EigKep=  7.94D-04  NBF=    11     2     5     5     2    11     5     5
 NBsUse=    46 1.00D-06 EigRej= -1.00D+00 NBFU=    11     2     5     5     2    11     5     5
 Precomputing XC quadrature grid using
 IXCGrd= 4 IRadAn=           5 IRanWt=          -1 IRanGd=           0 AccXCQ= 0.00D+00.
 Generated NRdTot=       0 NPtTot=           0 NUsed=           0 NTot=          32
 NSgBfM=    50    50    50    50    50 MxSgAt=     2 MxSgA2=     2.
 Leave Link  302 at Mon Mar 21 20:04:50 2022, MaxMem=  8589934592 cpu:               0.9 elap:               0.1
 (Enter /home/sabyasachi/g16/l303.exe)
 DipDrv:  MaxL=1.
 Leave Link  303 at Mon Mar 21 20:04:50 2022, MaxMem=  8589934592 cpu:               0.2 elap:               0.0
 (Enter /home/sabyasachi/g16/l308.exe)
 Leave Link  308 at Mon Mar 21 20:04:50 2022, MaxMem=  8589934592 cpu:               0.2 elap:               0.0
 (Enter /home/sabyasachi/g16/l401.exe)
 ExpMin= 6.90D-02 ExpMax= 2.27D+03 ExpMxC= 3.41D+02 IAcc=3 IRadAn=         5 AccDes= 0.00D+00
 Harris functional with IExCor= 1009 and IRadAn=       5 diagonalized for initial guess.
 HarFok:  IExCor= 1009 AccDes= 0.00D+00 IRadAn=         5 IDoV= 1 UseB2=F ITyADJ=14
 ICtDFT=  3500011 ScaDFX=  1.000000  1.000000  1.000000  1.000000
 FoFCou: FMM=F IPFlag=           0 FMFlag=      100000 FMFlg1=           0
         NFxFlg=           0 DoJE=T BraDBF=F KetDBF=T FulRan=T
         wScrn=  0.000000 ICntrl=       500 IOpCl=  0 I1Cent=   200000004 NGrid=           0
         NMat0=    1 NMatS0=      1 NMatT0=    0 NMatD0=    1 NMtDS0=    0 NMtDT0=    0
 Petite list used in FoFCou.
 Harris En= -147.666043479298    
 JPrj=0 DoOrth=F DoCkMO=F.
 Initial guess orbital symmetries:
       Occupied  (SGU) (SGG) (SGG) (SGU) (SGG) (PIU) (PIU) (PIG)
       Virtual   (PIG) (SGU) (SGG) (PIU) (PIU) (SGG) (PIG) (PIG)
                 (SGU) (SGU) (DLTG) (DLTG) (SGG) (PIU) (PIU) (DLTU)
                 (DLTU) (PIG) (PIG) (SGU) (PIU) (PIU) (SGG) (SGU)
                 (SGG) (PIG) (PIG) (SGU) (PIU) (PIU) (DLTG) (DLTG)
                 (DLTU) (DLTU) (SGG) (PIG) (PIG) (SGU)
 Leave Link  401 at Mon Mar 21 20:04:50 2022, MaxMem=  8589934592 cpu:               1.1 elap:               0.2
 (Enter /home/sabyasachi/g16/l502.exe)
 Keep R1 ints in memory in symmetry-blocked form, NReq=8214840.
 FoFCou: FMM=F IPFlag=           0 FMFlag=           0 FMFlg1=           0
         NFxFlg=           0 DoJE=F BraDBF=F KetDBF=F FulRan=T
         wScrn=  0.000000 ICntrl=       600 IOpCl=  0 I1Cent=           0 NGrid=           0
         NMat0=    1 NMatS0=   1081 NMatT0=    0 NMatD0=    1 NMtDS0=    0 NMtDT0=    0
 Petite list used in FoFCou.
 Closed shell SCF:
 Using DIIS extrapolation, IDIIS=  1040.
 NGot=  8589934592 LenX=  8589844957 LenY=  8589842016
 Requested convergence on RMS density matrix=1.00D-08 within 100 cycles.
 Requested convergence on MAX density matrix=1.00D-06.
 Requested convergence on             energy=1.00D-06.
 No special actions if energy rises.
 Integral accuracy reduced to 1.0D-05 until final iterations.

 Cycle   1  Pass 0  IDiag  1:
 E= -150.081447025700    
 DIIS: error= 2.87D-02 at cycle   1 NSaved=   1.
 NSaved= 1 IEnMin= 1 EnMin= -150.081447025700     IErMin= 1 ErrMin= 2.87D-02
 ErrMax= 2.87D-02  0.00D+00 EMaxC= 1.00D-01 BMatC= 2.33D-02 BMatP= 2.33D-02
 IDIUse=3 WtCom= 7.13D-01 WtEn= 2.87D-01
 Coeff-Com:  0.100D+01
 Coeff-En:   0.100D+01
 Coeff:      0.100D+01
 Gap=     0.300 Goal=   None    Shift=    0.000
 GapD=    0.300 DampG=1.000 DampE=0.500 DampFc=0.5000 IDamp=-1.
 Damping current iteration by 5.00D-01
 RMSDP=4.29D-03 MaxDP=4.67D-02              OVMax= 5.94D-02

 Cycle   2  Pass 0  IDiag  1:
 E= -150.091739064120     Delta-E=       -0.010292038420 Rises=F Damp=T
 DIIS: error= 1.04D-02 at cycle   2 NSaved=   2.
 NSaved= 2 IEnMin= 2 EnMin= -150.091739064120     IErMin= 2 ErrMin= 1.04D-02
 ErrMax= 1.04D-02  0.00D+00 EMaxC= 1.00D-01 BMatC= 2.64D-03 BMatP= 2.33D-02
 IDIUse=3 WtCom= 8.96D-01 WtEn= 1.04D-01
 Coeff-Com: -0.393D+00 0.139D+01
 Coeff-En:   0.000D+00 0.100D+01
 Coeff:     -0.352D+00 0.135D+01
 Gap=     0.307 Goal=   None    Shift=    0.000
 RMSDP=1.94D-03 MaxDP=2.04D-02 DE=-1.03D-02 OVMax= 1.26D-02

 Cycle   3  Pass 0  IDiag  1:
 E= -150.100524613939     Delta-E=       -0.008785549819 Rises=F Damp=F
 DIIS: error= 1.16D-03 at cycle   3 NSaved=   3.
 NSaved= 3 IEnMin= 3 EnMin= -150.100524613939     IErMin= 3 ErrMin= 1.16D-03
 ErrMax= 1.16D-03  0.00D+00 EMaxC= 1.00D-01 BMatC= 2.23D-05 BMatP= 2.64D-03
 IDIUse=3 WtCom= 9.88D-01 WtEn= 1.16D-02
 Coeff-Com: -0.278D-02 0.402D-02 0.999D+00
 Coeff-En:   0.000D+00 0.000D+00 0.100D+01
 Coeff:     -0.275D-02 0.397D-02 0.999D+00
 Gap=     0.308 Goal=   None    Shift=    0.000
 RMSDP=1.98D-04 MaxDP=2.15D-03 DE=-8.79D-03 OVMax= 2.42D-03

 Cycle   4  Pass 0  IDiag  1:
 E= -150.100552931121     Delta-E=       -0.000028317182 Rises=F Damp=F
 DIIS: error= 2.70D-04 at cycle   4 NSaved=   4.
 NSaved= 4 IEnMin= 4 EnMin= -150.100552931121     IErMin= 4 ErrMin= 2.70D-04
 ErrMax= 2.70D-04  0.00D+00 EMaxC= 1.00D-01 BMatC= 1.97D-06 BMatP= 2.23D-05
 IDIUse=3 WtCom= 9.97D-01 WtEn= 2.70D-03
 Coeff-Com:  0.160D-01-0.499D-01 0.680D-01 0.966D+00
 Coeff-En:   0.000D+00 0.000D+00 0.000D+00 0.100D+01
 Coeff:      0.160D-01-0.498D-01 0.679D-01 0.966D+00
 Gap=     0.308 Goal=   None    Shift=    0.000
 RMSDP=3.83D-05 MaxDP=4.81D-04 DE=-2.83D-05 OVMax= 5.56D-04

 Cycle   5  Pass 0  IDiag  1:
 E= -150.100555201892     Delta-E=       -0.000002270771 Rises=F Damp=F
 DIIS: error= 6.05D-05 at cycle   5 NSaved=   5.
 NSaved= 5 IEnMin= 5 EnMin= -150.100555201892     IErMin= 5 ErrMin= 6.05D-05
 ErrMax= 6.05D-05  0.00D+00 EMaxC= 1.00D-01 BMatC= 4.58D-08 BMatP= 1.97D-06
 IDIUse=1 WtCom= 1.00D+00 WtEn= 0.00D+00
 Coeff-Com: -0.270D-02 0.790D-02-0.457D-01-0.131D+00 0.117D+01
 Coeff:     -0.270D-02 0.790D-02-0.457D-01-0.131D+00 0.117D+01
 Gap=     0.308 Goal=   None    Shift=    0.000
 RMSDP=1.08D-05 MaxDP=1.17D-04 DE=-2.27D-06 OVMax= 1.79D-04

 Cycle   6  Pass 0  IDiag  1:
 E= -150.100555302013     Delta-E=       -0.000000100121 Rises=F Damp=F
 DIIS: error= 4.68D-06 at cycle   6 NSaved=   6.
 NSaved= 6 IEnMin= 6 EnMin= -150.100555302013     IErMin= 6 ErrMin= 4.68D-06
 ErrMax= 4.68D-06  0.00D+00 EMaxC= 1.00D-01 BMatC= 4.11D-10 BMatP= 4.58D-08
 IDIUse=1 WtCom= 1.00D+00 WtEn= 0.00D+00
 Coeff-Com:  0.605D-03-0.163D-02 0.961D-02 0.227D-01-0.276D+00 0.125D+01
 Coeff:      0.605D-03-0.163D-02 0.961D-02 0.227D-01-0.276D+00 0.125D+01
 Gap=     0.308 Goal=   None    Shift=    0.000
 RMSDP=9.83D-07 MaxDP=7.03D-06 DE=-1.00D-07 OVMax= 1.78D-05

 Initial convergence to 1.0D-05 achieved.  Increase integral accuracy.
 Cycle   7  Pass 1  IDiag  1:
 E= -150.100518740829     Delta-E=        0.000036561184 Rises=F Damp=F
 DIIS: error= 3.11D-05 at cycle   1 NSaved=   1.
 NSaved= 1 IEnMin= 1 EnMin= -150.100518740829     IErMin= 1 ErrMin= 3.11D-05
 ErrMax= 3.11D-05  0.00D+00 EMaxC= 1.00D-01 BMatC= 1.24D-08 BMatP= 1.24D-08
 IDIUse=1 WtCom= 1.00D+00 WtEn= 0.00D+00
 Coeff-Com:  0.100D+01
 Coeff:      0.100D+01
 Gap=     0.308 Goal=   None    Shift=    0.000
 RMSDP=9.83D-07 MaxDP=7.03D-06 DE= 3.66D-05 OVMax= 7.30D-05

 Cycle   8  Pass 1  IDiag  1:
 E= -150.100518761167     Delta-E=       -0.000000020338 Rises=F Damp=F
 DIIS: error= 5.45D-06 at cycle   2 NSaved=   2.
 NSaved= 2 IEnMin= 2 EnMin= -150.100518761167     IErMin= 2 ErrMin= 5.45D-06
 ErrMax= 5.45D-06  0.00D+00 EMaxC= 1.00D-01 BMatC= 4.80D-10 BMatP= 1.24D-08
 IDIUse=1 WtCom= 1.00D+00 WtEn= 0.00D+00
 Coeff-Com: -0.182D+00 0.118D+01
 Coeff:     -0.182D+00 0.118D+01
 Gap=     0.308 Goal=   None    Shift=    0.000
 RMSDP=1.47D-06 MaxDP=1.91D-05 DE=-2.03D-08 OVMax= 1.83D-05

 Cycle   9  Pass 1  IDiag  1:
 E= -150.100518762189     Delta-E=       -0.000000001022 Rises=F Damp=F
 DIIS: error= 1.04D-06 at cycle   3 NSaved=   3.
 NSaved= 3 IEnMin= 3 EnMin= -150.100518762189     IErMin= 3 ErrMin= 1.04D-06
 ErrMax= 1.04D-06  0.00D+00 EMaxC= 1.00D-01 BMatC= 3.05D-11 BMatP= 4.80D-10
 IDIUse=1 WtCom= 1.00D+00 WtEn= 0.00D+00
 Coeff-Com: -0.556D-01 0.256D+00 0.800D+00
 Coeff:     -0.556D-01 0.256D+00 0.800D+00
 Gap=     0.308 Goal=   None    Shift=    0.000
 RMSDP=1.60D-07 MaxDP=1.44D-06 DE=-1.02D-09 OVMax= 2.46D-06

 Cycle  10  Pass 1  IDiag  1:
 E= -150.100518762217     Delta-E=       -0.000000000028 Rises=F Damp=F
 DIIS: error= 3.31D-07 at cycle   4 NSaved=   4.
 NSaved= 4 IEnMin= 4 EnMin= -150.100518762217     IErMin= 4 ErrMin= 3.31D-07
 ErrMax= 3.31D-07  0.00D+00 EMaxC= 1.00D-01 BMatC= 1.14D-12 BMatP= 3.05D-11
 IDIUse=1 WtCom= 1.00D+00 WtEn= 0.00D+00
 Coeff-Com:  0.891D-02-0.660D-01 0.568D-01 0.100D+01
 Coeff:      0.891D-02-0.660D-01 0.568D-01 0.100D+01
 Gap=     0.308 Goal=   None    Shift=    0.000
 RMSDP=4.16D-08 MaxDP=4.57D-07 DE=-2.84D-11 OVMax= 7.59D-07

 Cycle  11  Pass 1  IDiag  1:
 E= -150.100518762219     Delta-E=       -0.000000000002 Rises=F Damp=F
 DIIS: error= 2.52D-08 at cycle   5 NSaved=   5.
 NSaved= 5 IEnMin= 5 EnMin= -150.100518762219     IErMin= 5 ErrMin= 2.52D-08
 ErrMax= 2.52D-08  0.00D+00 EMaxC= 1.00D-01 BMatC= 1.73D-14 BMatP= 1.14D-12
 IDIUse=1 WtCom= 1.00D+00 WtEn= 0.00D+00
 Coeff-Com:  0.212D-02-0.127D-01-0.969D-02 0.124D+00 0.897D+00
 Coeff:      0.212D-02-0.127D-01-0.969D-02 0.124D+00 0.897D+00
 Gap=     0.308 Goal=   None    Shift=    0.000
 RMSDP=4.44D-09 MaxDP=4.68D-08 DE=-1.88D-12 OVMax= 4.88D-08

 SCF Done:  E(RM11) =  -150.100518762     A.U. after   11 cycles
            NFock= 11  Conv=0.44D-08     -V/T= 2.0067
 KE= 1.491074346522D+02 PE=-4.110168895583D+02 EE= 8.343938642431D+01
 Leave Link  502 at Mon Mar 21 20:04:51 2022, MaxMem=  8589934592 cpu:               2.4 elap:               0.3
 (Enter /home/sabyasachi/g16/l801.exe)
 DoSCS=F DFT=T ScalE2(SS,OS)=  1.000000  1.000000
 ExpMin= 6.90D-02 ExpMax= 2.27D+03 ExpMxC= 3.41D+02 IAcc=3 IRadAn=         5 AccDes= 0.00D+00
 HarFok:  IExCor=  205 AccDes= 0.00D+00 IRadAn=         5 IDoV=-2 UseB2=F ITyADJ=14
 ICtDFT= 12500011 ScaDFX=  1.000000  1.000000  1.000000  1.000000
 Largest valence mixing into a core orbital is  4.17D-05
 Largest core mixing into a valence orbital is  1.64D-05
 Range of M.O.s used for correlation:     3    46
 NBasis=    46 NAE=     8 NBE=     8 NFC=     2 NFV=     0
 NROrb=     44 NOA=     6 NOB=     6 NVA=    38 NVB=    38

 **** Warning!!: The largest alpha MO coefficient is  0.12273172D+02

 Leave Link  801 at Mon Mar 21 20:04:51 2022, MaxMem=  8589934592 cpu:               0.3 elap:               0.1
 (Enter /home/sabyasachi/g16/l914.exe)
 RHF ground state
 Keep R1, R2, and R3 ints in memory in symmetry-blocked form, NReq=69408068.
 FoFCou: FMM=F IPFlag=           0 FMFlag=           0 FMFlg1=           0
         NFxFlg=           0 DoJE=F BraDBF=F KetDBF=F FulRan=T
         wScrn=  0.000000 ICntrl=       600 IOpCl=  0 I1Cent=           0 NGrid=           0
         NMat0=    1 NMatS0=   1081 NMatT0=    0 NMatD0=    1 NMtDS0=    0 NMtDT0=    0
 Petite list used in FoFCou.
 MDV=  8589934592 DFT=T DoStab=F Mixed=T DoRPA=T DoScal=F NonHer=T
 Making orbital integer symmetry assigments:
 Orbital symmetries:
       Occupied  (SGG) (SGU) (SGG) (SGU) (PIU) (SGG) (PIU) (?A)
       Virtual   (?A) (SGU) (SGG) (PIU) (PIU) (?A) (?A) (?B) (SGU)
                 (?C) (?B) (?B) (?B) (PIU) (PIU) (?C) (?C) (?C)
                 (PIG) (PIG) (PIU) (PIU) (SGG) (SGU) (SGG) (PIG)
                 (PIG) (SGU) (PIU) (PIU) (?D) (?D) (DLTU) (?D)
                 (DLTU) (PIG) (PIG) (SGU)
   228 initial guesses have been made.
 Convergence on wavefunction:    0.001000000000000
 Davidson Disk Diagonalization:  ConvIn= 1.00D-03 SkipCon=T Conv= 1.00D-03.
 Max sub-space:  1368 roots to seek:   456 dimension of matrix:          456
 *** WARNING: Number of orthogonal guesses is          228
 Iteration     1 Dimension   228 NMult     0 NNew    228
 CISAX will form   228 AO SS matrices at one time.
 NMat=   228 NSing=   228 JSym2X=-1.
 New state      2 was old state     11
 New state      3 was old state     10
 New state      4 was old state      2
 New state      5 was old state      3
 New state      6 was old state      4
 New state      7 was old state      5
 New state      9 was old state      6
 New state     10 was old state      9
 New state     11 was old state      7
 New state     12 was old state     13
 New state     13 was old state     12
 New state     14 was old state     23
 New state     16 was old state     14
 New state     17 was old state     16
 New state     18 was old state     31
 New state     19 was old state     34
 New state     20 was old state     19
 New state     22 was old state     18
 New state     23 was old state     20
 New state     24 was old state     22
 New state     25 was old state     35
 New state     26 was old state     25
 New state     27 was old state     24
 New state     28 was old state     36
 New state     29 was old state     33
 New state     30 was old state     26
 New state     31 was old state     37
 New state     32 was old state     28
 New state     33 was old state     17
 New state     34 was old state     27
 New state     35 was old state     29
 New state     36 was old state     30
 New state     37 was old state     32
 New state     38 was old state     40
 New state     39 was old state     42
 New state     40 was old state     44
 New state     41 was old state     39
 New state     42 was old state     43
 New state     43 was old state     41
 New state     44 was old state     46
 New state     45 was old state     48
 New state     46 was old state     38
 New state     47 was old state     50
 New state     48 was old state     51
 New state     49 was old state     53
 New state     50 was old state     47
 New state     51 was old state     56
 New state     53 was old state     45
 New state     54 was old state     60
 New state     55 was old state     49
 New state     56 was old state     59
 New state     57 was old state     62
 New state     58 was old state     61
 New state     59 was old state     63
 New state     60 was old state     64
 New state     61 was old state     58
 New state     62 was old state     54
 New state     63 was old state     55
 New state     64 was old state     57
 New state     67 was old state     69
 New state     68 was old state     71
 New state     69 was old state     68
 New state     70 was old state     67
 New state     71 was old state     72
 New state     72 was old state     79
 New state     73 was old state     77
 New state     74 was old state     70
 New state     75 was old state     91
 New state     76 was old state     74
 New state     77 was old state     73
 New state     78 was old state     76
 New state     79 was old state     75
 New state     80 was old state     78
 New state     81 was old state     80
 New state     82 was old state     85
 New state     83 was old state     86
 New state     84 was old state     89
 New state     85 was old state     88
 New state     86 was old state     82
 New state     87 was old state     83
 New state     88 was old state     87
 New state     89 was old state     84
 New state     90 was old state     81
 New state     91 was old state     92
 New state     92 was old state     93
 New state     93 was old state     90
 New state     95 was old state    100
 New state     99 was old state    101
 New state    100 was old state    103
 New state    101 was old state    104
 New state    102 was old state    107
 New state    103 was old state     95
 New state    104 was old state     99
 New state    105 was old state    108
 New state    107 was old state    102
 New state    108 was old state    105
 New state    109 was old state    111
 New state    110 was old state    109
 New state    111 was old state    110
 New state    112 was old state    113
 New state    113 was old state    117
 New state    114 was old state    116
 New state    115 was old state    112
 New state    116 was old state    115
 New state    117 was old state    118
 New state    118 was old state    120
 New state    119 was old state    121
 New state    120 was old state    122
 New state    121 was old state    114
 New state    122 was old state    126
 New state    123 was old state    128
 New state    124 was old state    123
 New state    125 was old state    124
 New state    126 was old state    125
 New state    128 was old state    129
 New state    129 was old state    132
 New state    130 was old state    145
 New state    131 was old state    130
 New state    132 was old state    133
 New state    133 was old state    131
 New state    134 was old state    135
 New state    135 was old state    134
 New state    140 was old state    143
 New state    141 was old state    144
 New state    142 was old state    141
 New state    143 was old state    142
 New state    144 was old state    140
 New state    145 was old state    146
 New state    146 was old state    152
 New state    147 was old state    150
 New state    148 was old state    149
 New state    149 was old state    148
 New state    150 was old state    151
 New state    151 was old state    153
 New state    152 was old state    155
 New state    153 was old state    162
 New state    155 was old state    156
 New state    156 was old state    157
 New state    157 was old state    158
 New state    158 was old state    147
 New state    162 was old state    163
 New state    163 was old state    164
 New state    164 was old state    167
 New state    167 was old state    172
 New state    168 was old state    175
 New state    169 was old state    168
 New state    170 was old state    169
 New state    171 was old state    174
 New state    172 was old state    170
 New state    174 was old state    176
 New state    175 was old state    171
 New state    176 was old state    177
 New state    177 was old state    195
 New state    179 was old state    181
 New state    180 was old state    183
 New state    181 was old state    179
 New state    182 was old state    184
 New state    183 was old state    180
 New state    184 was old state    182
 New state    185 was old state    188
 New state    186 was old state    185
 New state    187 was old state    189
 New state    188 was old state    187
 New state    189 was old state    194
 New state    190 was old state    191
 New state    191 was old state    198
 New state    192 was old state    190
 New state    193 was old state    192
 New state    194 was old state    186
 New state    195 was old state    196
 New state    196 was old state    193
 New state    197 was old state    205
 New state    198 was old state    199
 New state    199 was old state    200
 New state    200 was old state    197
 New state    202 was old state    203
 New state    203 was old state    202
 New state    204 was old state    206
 New state    205 was old state    204
 New state    206 was old state    207
 No map to state    207
 New state    208 was old state    210
 New state    209 was old state    214
 New state    210 was old state    212
 New state    212 was old state    213
 New state    213 was old state    209
 New state    214 was old state    215
 New state    215 was old state    208
 New state    216 was old state    217
 New state    217 was old state    218
 New state    218 was old state    219
 New state    219 was old state    216
 New state    223 was old state    226
 New state    225 was old state    223
 New state    226 was old state    225
 Excitation Energies [eV] at current iteration:
 Root      1 :    -0.016718623273519
 Root      2 :     6.555043573313053
 Root      3 :     7.169057297079761
 Root      4 :     7.690204110533929
 Root      5 :     8.007350870177891
 Root      6 :     8.244487343016122
 Root      7 :     8.775155750626171
 Root      8 :     9.795226538622019
 Root      9 :     9.994559229446827
 Root     10 :    10.555041977163940
 Root     11 :    10.973937971680540
 Root     12 :    11.375858489466590
 Root     13 :    14.869289630817860
 Root     14 :    14.950996407136230
 Root     15 :    15.147734486099180
 Root     16 :    15.196879914207180
 Root     17 :    15.277803560812800
 Root     18 :    15.524960536755170
 Root     19 :    15.551592990066210
 Root     20 :    15.735500055133950
 Root     21 :    15.738037905281740
 Root     22 :    15.871242558504540
 Root     23 :    15.878707224685170
 Root     24 :    16.022444741961670
 Root     25 :    16.065583718534480
 Root     26 :    16.067427930075160
 Root     27 :    16.199453113655680
 Root     28 :    17.015320878553590
 Root     29 :    17.164009122235220
 Root     30 :    17.404208165515580
 Root     31 :    17.407277590892090
 Root     32 :    17.433615898216240
 Root     33 :    17.500373127855580
 Root     34 :    17.540404627581900
 Root     35 :    17.594317118299450
 Root     36 :    17.851189196713160
 Root     37 :    17.935187840044940
 Root     38 :    18.753317349760310
 Root     39 :    18.930255048271190
 Root     40 :    20.156670127524460
 Root     41 :    20.352818030831160
 Root     42 :    20.459129686797720
 Root     43 :    21.350108467288570
 Root     44 :    21.383377649534550
 Root     45 :    21.466852442709430
 Root     46 :    21.989811115652230
 Root     47 :    22.005374038849460
 Root     48 :    22.103194854948140
 Root     49 :    22.544228917975000
 Root     50 :    22.621521655930650
 Root     51 :    22.692733911991700
 Root     52 :    22.857265691699350
 Root     53 :    22.905096897167020
 Root     54 :    22.979431165476710
 Root     55 :    22.983766660484990
 Root     56 :    22.990821773754240
 Root     57 :    23.234268285208940
 Root     58 :    23.251043292482660
 Root     59 :    23.760060649784990
 Root     60 :    23.794830097477420
 Root     61 :    24.123237245697680
 Root     62 :    24.379362665876760
 Root     63 :    24.643544377603170
 Root     64 :    24.645707744126740
 Root     65 :    26.812520483084350
 Root     66 :    27.756326120390640
 Root     67 :    27.814188707253610
 Root     68 :    28.016022315186460
 Root     69 :    28.042555974683490
 Root     70 :    28.131168691004070
 Root     71 :    28.164126976044270
 Root     72 :    28.478799699436270
 Root     73 :    28.507734884081430
 Root     74 :    28.527244923482040
 Root     75 :    28.556364262788040
 Root     76 :    28.631156670437490
 Root     77 :    28.765225490390560
 Root     78 :    28.770998828201880
 Root     79 :    28.792314388297020
 Root     80 :    29.074788931111900
 Root     81 :    29.128050385352490
 Root     82 :    29.388320396425450
 Root     83 :    29.548852051115090
 Root     84 :    29.549843530616960
 Root     85 :    29.605662715263130
 Root     86 :    29.674014707232370
 Root     87 :    29.682407940930280
 Root     88 :    29.693787044357690
 Root     89 :    29.751768317389910
 Root     90 :    30.136226849718990
 Root     91 :    30.366691265255940
 Root     92 :    30.411468522077640
 Root     93 :    30.953404193325290
 Root     94 :    32.199135495658400
 Root     95 :    34.157044026550420
 Root     96 :    34.180622602128170
 Root     97 :    34.971997102274710
 Root     98 :    35.105212293739060
 Root     99 :    35.355294856252430
 Root    100 :    35.796411844192460
 Root    101 :    35.847422438952940
 Root    102 :    36.351192275676790
 Root    103 :    36.361063373101850
 Root    104 :    36.368422846922340
 Root    105 :    36.406178239881800
 Root    106 :    36.644234978190080
 Root    107 :    36.724277860206810
 Root    108 :    37.114785718566890
 Root    109 :    38.256561257995020
 Root    110 :    38.417082364237480
 Root    111 :    38.742292471587450
 Root    112 :    39.024172732474800
 Root    113 :    39.192923511420370
 Root    114 :    39.365273372955920
 Root    115 :    39.438291342580390
 Root    116 :    39.787612787366610
 Root    117 :    40.132356387249100
 Root    118 :    41.464957765968350
 Root    119 :    41.470955750787160
 Root    120 :    42.313012194845610
 Root    121 :    42.607677499242250
 Root    122 :    43.001161402486690
 Root    123 :    43.384665137424330
 Root    124 :    43.625072476383640
 Root    125 :    43.927134445450860
 Root    126 :    43.967861990728250
 Root    127 :    44.705436721702470
 Root    128 :    46.491611355067160
 Root    129 :    46.842770735909920
 Root    130 :    46.955207862785080
 Root    131 :    47.247413298277130
 Root    132 :    47.829643773189250
 Root    133 :    48.698368968254220
 Root    134 :    48.907492573659580
 Root    135 :    49.258422687604480
 Root    136 :    49.260100169375040
 Root    137 :    49.459088035404090
 Root    138 :    49.816043438449310
 Root    139 :    49.860812049141200
 Root    140 :    50.121796714040920
 Root    141 :    50.583611551938460
 Root    142 :    50.946384140165250
 Root    143 :    51.027828407340460
 Root    144 :    51.028189059510170
 Root    145 :    51.065072721949040
 Root    146 :    51.875166980697480
 Root    147 :    51.958940557338370
 Root    148 :    52.001685493772260
 Root    149 :    52.331643780106840
 Root    150 :    52.665852631519070
 Root    151 :    52.961683725726980
 Root    152 :    56.246567052733080
 Root    153 :    56.702809367223490
 Root    154 :    57.140638246628050
 Root    155 :    57.612089999985800
 Root    156 :    57.987433504208530
 Root    157 :    58.993789669430410
 Root    158 :    59.202818718352690
 Root    159 :    59.450779638585520
 Root    160 :    60.490326599520420
 Root    161 :    60.799448333180700
 Root    162 :    63.048469773393670
 Root    163 :    65.300625531394060
 Root    164 :    65.467568030648890
 Root    165 :    67.397801107703700
 Root    166 :    68.475588307456660
 Root    167 :    72.451360843685090
 Root    168 :    72.523622521760790
 Root    169 :    72.652902796850280
 Root    170 :    73.075707001626750
 Root    171 :    73.557728875858260
 Root    172 :    73.569211936161340
 Root    173 :    73.762227300585650
 Root    174 :    74.486502026340160
 Root    175 :    74.679761460662050
 Root    176 :    75.244144694901070
 Root    177 :    76.716199397301710
 Root    178 :    79.478071989815490
 Root    179 :    79.680143561823810
 Root    180 :    80.745754901382240
 Root    181 :    81.256007849789750
 Root    182 :    81.320354420538820
 Root    183 :    81.497350289322090
 Root    184 :    81.628725386794140
 Root    185 :    82.203966849810950
 Root    186 :    82.572990328615890
 Root    187 :    83.311496583250350
 Root    188 :    84.906075421562970
 Root    189 :    85.191148981687060
 Root    190 :    86.697105011466180
 Root    191 :    87.623073091996290
 Root    192 :    88.360578197801540
 Root    193 :    88.613519938113800
 Root    194 :    89.070041017746550
 Root    195 :    89.341872108627110
 Root    196 :    89.655809204865060
 Root    197 :    89.829406314506370
 Root    198 :    90.387616505333140
 Root    199 :    90.754135821163080
 Root    200 :    90.915119707948450
 Root    201 :    93.696600755967270
 Root    202 :    95.450253130131970
 Root    203 :    95.742416322019170
 Root    204 :    95.925191549964110
 Root    205 :    96.193989417674770
 Root    206 :    96.445378506318240
 Root    207 :    96.723680853376460
 Root    208 :   101.079542797796300
 Root    209 :   101.950349875152800
 Root    210 :   102.222690745775000
 Root    211 :   102.718288179669400
 Root    212 :   103.435273327718100
 Root    213 :   103.637799400444500
 Root    214 :   103.897347666790200
 Root    215 :   103.908955257405600
 Root    216 :   108.891842161758400
 Root    217 :   109.426978737535200
 Root    218 :   109.648001886057600
 Root    219 :   109.692630708068300
 Root    220 :   110.152067493854600
 Root    221 :   116.000746488662200
 Root    222 :   122.841871885779000
 Root    223 :   123.252364936487700
 Root    224 :   123.543353452392500
 Root    225 :   123.851843475522400
 Root    226 :   124.990804235810000
 Root    227 :   130.806447704534400
 Root    228 :   144.401706041072300
 Convergence achieved for final wavefunctions.
 ***********************************************************************
 Excited states from <AA,BB:AA,BB> singles matrix:
 ***********************************************************************
 
 1PDM for each excited state written to RWF  633
 Ground to excited state transition densities written to RWF  633
 Ground to excited state transition electric dipole moments (Au):
       state          X           Y           Z        Dip. S.      Osc.
         1         0.0000      0.0000     -0.0000      0.0000     -0.0000
         2         0.0000     -0.0000      0.0000      0.0000      0.0000
         3         0.0000     -0.0000      0.0000      0.0000      0.0000
         4         0.2925      0.0000      0.0000      0.0856      0.0161
         5         0.0000      0.0000     -0.0000      0.0000      0.0000
         6        -0.0000     -0.0000      0.0000      0.0000      0.0000
         7         0.0000     -0.0000     -0.6256      0.3914      0.0841
         8        -0.0000      0.0000      0.0000      0.0000      0.0000
         9         0.0000     -0.0000      0.0000      0.0000      0.0000
        10         0.0000     -0.0000     -0.6404      0.4101      0.1061
        11        -0.0000     -0.0000      0.0000      0.0000      0.0000
        12         0.1786      0.0000      0.0000      0.0319      0.0089
        13         0.0000      0.0000     -0.0000      0.0000      0.0000
        14        -0.6228      0.0000      0.0000      0.3879      0.1421
        15         0.0000      0.0000      0.0000      0.0000      0.0000
        16         0.0000      0.0000      0.7307      0.5339      0.1988
        17        -0.0000     -0.5104     -0.0000      0.2605      0.0975
        18         0.0000      0.0000      0.0000      0.0000      0.0000
        19        -0.0000     -0.0000      0.0000      0.0000      0.0000
        20        -0.0000      0.0000      0.0000      0.0000      0.0000
        21        -0.0000      0.0000     -0.0000      0.0000      0.0000
        22        -0.0993     -0.0000     -0.0000      0.0099      0.0038
        23         0.0000     -0.3571      0.0000      0.1275      0.0496
        24        -0.0000     -0.0000     -0.0000      0.0000      0.0000
        25        -0.0000     -0.3438     -0.0000      0.1182      0.0465
        26         0.0000      0.0000     -0.0000      0.0000      0.0000
        27        -0.3774     -0.0000      0.0000      0.1425      0.0565
        28        -0.0000     -0.0000      0.0000      0.0000      0.0000
        29        -0.0000      0.4594      0.0000      0.2111      0.0888
        30        -0.0000      0.0000     -0.1047      0.0110      0.0047
        31         0.3272      0.0000      0.0000      0.1071      0.0457
        32         0.0000     -0.0000     -0.0000      0.0000      0.0000
        33         0.0000      0.0000     -0.0000      0.0000      0.0000
        34         0.0000      0.0000     -0.0000      0.0000      0.0000
        35        -0.0000     -0.0000     -0.0000      0.0000      0.0000
        36        -0.0000     -0.0000     -0.0000      0.0000      0.0000
        37        -0.0000      0.0000     -0.3133      0.0982      0.0431
        38         0.0000     -0.0000      0.0000      0.0000      0.0000
        39         0.0000     -0.0000     -0.0000      0.0000      0.0000
        40         0.0000     -0.0000     -0.2154      0.0464      0.0229
        41        -0.0000     -0.0000     -0.0000      0.0000      0.0000
        42         0.0000      0.0000     -0.0000      0.0000      0.0000
        43         0.0000      0.0000     -1.2019      1.4446      0.7556
        44        -0.5767      0.0000     -0.0000      0.3326      0.1743
        45        -0.0000     -0.5971     -0.0000      0.3565      0.1875
        46        -0.0000     -0.0000     -0.0000      0.0000      0.0000
        47         0.3780     -0.0000      0.0000      0.1429      0.0770
        48        -0.0000     -0.0000      0.0000      0.0000      0.0000
        49        -0.0000      0.0000      0.0000      0.0000      0.0000
        50         0.0000     -0.0000     -0.0000      0.0000      0.0000
        51         0.0000      0.0000      0.0000      0.0000      0.0000
        52         0.0000     -0.0000      0.0000      0.0000      0.0000
        53         0.0000      0.0000      0.2480      0.0615      0.0345
        54        -0.4273      0.0000     -0.0000      0.1825      0.1028
        55        -0.0000     -0.0000      0.0000      0.0000      0.0000
        56         0.0000      0.4566     -0.0000      0.2085      0.1174
        57        -0.0000     -0.0000     -0.0000      0.0000      0.0000
        58        -0.0000      0.0000     -0.0000      0.0000      0.0000
        59        -0.8900      0.0000     -0.0000      0.7922      0.4611
        60        -0.0000     -0.9331     -0.0000      0.8706      0.5075
        61        -0.0000      0.0000     -0.1568      0.0246      0.0145
        62         0.0000      0.1675     -0.0000      0.0281      0.0168
        63        -0.0000      0.0000      1.0310      1.0629      0.6417
        64         0.0577      0.0000     -0.0000      0.0033      0.0020
        65         0.0000      0.0000     -0.0000      0.0000      0.0000
        66        -0.0000     -0.0702     -0.0000      0.0049      0.0034
        67        -0.0000      0.0000     -0.0000      0.0000      0.0000
        68        -0.0000      0.0000     -0.0000      0.0000      0.0000
        69         0.0426      0.0000      0.0000      0.0018      0.0012
        70        -0.0000     -0.0000     -0.0000      0.0000      0.0000
        71        -0.0000     -0.0000      0.0000      0.0000      0.0000
        72        -0.0000     -0.0000      0.0000      0.0000      0.0000
        73        -0.0000     -0.0000      0.0866      0.0075      0.0052
        74        -0.0000     -0.6778     -0.0000      0.4595      0.3211
        75         0.0000     -0.0000      0.0000      0.0000      0.0000
        76        -0.0000      0.0000     -0.0000      0.0000      0.0000
        77        -0.6559      0.0000      0.0000      0.4302      0.3032
        78        -0.0000     -0.0000     -0.0000      0.0000      0.0000
        79        -0.0000     -0.0000     -0.0000      0.0000      0.0000
        80         0.0000     -0.0000      0.0000      0.0000      0.0000
        81        -0.0000      0.0000      0.0000      0.0000      0.0000
        82         0.0000     -0.0000      0.0205      0.0004      0.0003
        83         0.0000     -0.0000     -0.0000      0.0000      0.0000
        84         0.0000     -0.0000      0.0000      0.0000      0.0000
        85        -0.0000      0.0000      0.0000      0.0000      0.0000
        86         0.0000      0.0000     -0.0000      0.0000      0.0000
        87         0.0000     -0.0000      0.1180      0.0139      0.0101
        88        -0.0000     -0.0000     -0.0000      0.0000      0.0000
        89        -0.0000      0.0000     -0.0000      0.0000      0.0000
        90         0.0000     -0.0000      0.0000      0.0000      0.0000
        91         0.0000      0.0000     -0.0365      0.0013      0.0010
        92         0.0000      0.0000     -0.0000      0.0000      0.0000
        93         0.0000     -0.0000      0.0811      0.0066      0.0050
        94         0.0000      0.0000      0.0000      0.0000      0.0000
        95         0.0000     -0.0000     -0.0000      0.0000      0.0000
        96         0.0000     -0.0000      0.1275      0.0162      0.0136
        97        -0.0000      0.0000      0.2836      0.0804      0.0689
        98         0.0000      0.0000     -0.0000      0.0000      0.0000
        99        -0.0000     -0.0000      0.0000      0.0000      0.0000
       100         0.0000     -0.0000     -0.0000      0.0000      0.0000
       101        -0.0000      0.0000     -0.0000      0.0000      0.0000
       102         0.0000      0.2653     -0.0000      0.0704      0.0627
       103         0.0000     -0.0000     -0.0983      0.0097      0.0086
       104         0.0000      0.0000      0.0000      0.0000      0.0000
       105         0.2425     -0.0000     -0.0000      0.0588      0.0525
       106        -0.0000      0.0000     -0.0000      0.0000      0.0000
       107         0.0000      0.0700      0.0000      0.0049      0.0044
       108         0.0605      0.0000      0.0000      0.0037      0.0033
       109         0.0000     -0.0000     -0.0000      0.0000      0.0000
       110        -0.0000     -0.0000     -0.0000      0.0000      0.0000
       111        -0.0000      0.0000      0.0000      0.0000      0.0000
       112         0.0000      0.0000      0.0000      0.0000      0.0000
       113        -0.0000     -0.0000      0.0000      0.0000      0.0000
       114         0.0000     -0.0000     -0.0000      0.0000      0.0000
       115         0.2158     -0.0000      0.0000      0.0466      0.0450
       116         0.0000     -0.1967     -0.0000      0.0387      0.0377
       117        -0.2651     -0.0000     -0.0000      0.0703      0.0691
       118         0.0000     -0.3272     -0.0000      0.1071      0.1088
       119        -0.0000     -0.0000      0.0000      0.0000      0.0000
       120        -0.2283     -0.0000      0.0000      0.0521      0.0540
       121         0.0000      0.0000      0.4973      0.2473      0.2582
       122         0.0000      0.0000      0.0000      0.0000      0.0000
       123        -0.0000      0.0000      0.0000      0.0000      0.0000
       124        -0.0000      0.0000     -0.0593      0.0035      0.0038
       125         0.0000      0.0000      0.0000      0.0000      0.0000
       126        -0.0000      0.0000      0.0000      0.0000      0.0000
       127        -0.0000     -0.0000     -0.0000      0.0000      0.0000
       128        -0.0000     -0.0000     -0.0000      0.0000      0.0000
       129         0.0000     -0.0000      0.0000      0.0000      0.0000
       130        -0.0000      0.0000     -0.0000      0.0000      0.0000
       131        -0.0000      0.0000      0.0000      0.0000      0.0000
       132        -0.0000     -0.0000      0.0000      0.0000      0.0000
       133        -0.0000      0.0000      0.1718      0.0295      0.0352
       134        -0.0000      0.1558     -0.0000      0.0243      0.0291
       135         0.0000      0.0000      0.0000      0.0000      0.0000
       136         0.1306      0.0000      0.0000      0.0171      0.0206
       137        -0.0000      0.0000     -0.0025      0.0000      0.0000
       138        -0.0000     -0.0000      0.0004      0.0000      0.0000
       139         0.0000      0.0000     -0.0000      0.0000      0.0000
       140        -0.3293     -0.0000      0.0000      0.1084      0.1332
       141         0.0000      0.1173      0.0000      0.0137      0.0170
       142        -0.0000     -0.0000      0.0000      0.0000      0.0000
       143        -0.0000      0.0000     -0.0000      0.0000      0.0000
       144         0.0000     -0.0000     -0.1864      0.0348      0.0435
       145         0.0116      0.0000      0.0000      0.0001      0.0002
       146        -0.0000     -0.0000     -0.0330      0.0011      0.0014
       147        -0.0000     -0.0000     -0.0000      0.0000      0.0000
       148         0.0000      0.0000     -0.0000      0.0000      0.0000
       149        -0.0000     -0.0000     -0.0000      0.0000      0.0000
       150         0.0000      0.0000     -0.0000      0.0000      0.0000
       151        -0.0000     -0.0000     -0.0000      0.0000      0.0000
       152         0.0000      0.0000      0.0482      0.0023      0.0032
       153        -0.0000      0.0000      0.0000      0.0000      0.0000
       154         0.0000     -0.0000     -0.0000      0.0000      0.0000
       155        -0.0000     -0.0000      0.0000      0.0000      0.0000
       156         0.0000      0.0000     -0.3960      0.1568      0.2228
       157         0.0000     -0.3975     -0.0000      0.1580      0.2284
       158        -0.0000      0.0000      0.0687      0.0047      0.0069
       159        -0.4028     -0.0000     -0.0000      0.1623      0.2364
       160        -0.0000     -0.1025     -0.0000      0.0105      0.0156
       161        -0.1305      0.0000      0.0000      0.0170      0.0254
       162         0.0000      0.0000     -0.0000      0.0000      0.0000
       163         0.0000      0.0000      0.0000      0.0000      0.0000
       164         0.0000      0.0000     -0.0000      0.0000      0.0000
       165         0.0000      0.0000     -0.6274      0.3936      0.6499
       166         0.0000     -0.0000     -0.0764      0.0058      0.0098
       167         0.0000     -0.0000     -0.0000      0.0000      0.0000
       168        -0.0000      0.0000      0.0000      0.0000      0.0000
       169        -0.0000     -0.0000      0.0000      0.0000      0.0000
       170        -0.0000      0.0000     -0.0000      0.0000      0.0000
       171        -0.1891     -0.0000      0.0000      0.0358      0.0645
       172         0.0000     -0.0000      0.0000      0.0000      0.0000
       173         0.0000      0.0000      0.0000      0.0000      0.0000
       174         0.0000     -0.0000     -0.0000      0.0000      0.0000
       175         0.0000     -0.2420     -0.0000      0.0586      0.1071
       176        -0.0000     -0.0000     -0.0000      0.0000      0.0000
       177        -0.0000     -0.0000      0.0000      0.0000      0.0000
       178         0.0000      0.0000      0.1060      0.0112      0.0219
       179        -0.0000      0.0000      0.0000      0.0000      0.0000
       180         0.0000     -0.1727      0.0000      0.0298      0.0590
       181        -0.0000      0.0000     -0.0000      0.0000      0.0000
       182        -0.0000      0.0000      0.0000      0.0000      0.0000
       183        -0.2405     -0.0000     -0.0000      0.0578      0.1154
       184         0.0000      0.0000     -0.0000      0.0000      0.0000
       185         0.0000      0.0000      0.0000      0.0000      0.0000
       186        -0.1200     -0.0000      0.0000      0.0144      0.0291
       187        -0.0000      0.1023      0.0000      0.0105      0.0213
       188        -0.5515     -0.0000      0.0000      0.3041      0.6326
       189        -0.0000      0.6660     -0.0000      0.4435      0.9257
       190        -0.0000     -0.0000     -0.0120      0.0001      0.0003
       191        -0.0000      0.0000      0.0000      0.0000      0.0000
       192        -0.0000      0.0000      0.0000      0.0000      0.0000
       193         0.0000     -0.0000      0.0000      0.0000      0.0000
       194        -0.0000      0.4556      0.0000      0.2075      0.4529
       195         0.5587      0.0000      0.0000      0.3122      0.6833
       196         0.0000      0.0000      0.0038      0.0000      0.0000
       197         0.0000      0.0000     -0.0000      0.0000      0.0000
       198         0.0000      0.0000      0.0000      0.0000      0.0000
       199        -0.0000     -0.0000     -0.0000      0.0000      0.0000
       200         0.0000     -0.0000      0.0000      0.0000      0.0000
       201         0.0000     -0.0000     -0.0000      0.0000      0.0000
       202         0.0000     -0.0000     -0.0000      0.0000      0.0000
       203         0.0000      0.3214     -0.0000      0.1033      0.2423
       204         0.0000      0.0000     -0.0003      0.0000      0.0000
       205         0.3355     -0.0000     -0.0000      0.1125      0.2652
       206         0.0000      0.0000     -0.0000      0.0000      0.0000
       207        -0.0000      0.0000      0.0000      0.0000      0.0000
       208         0.0000      0.0000      0.0000      0.0000      0.0000
       209         0.0000      0.0000     -0.0212      0.0005      0.0011
       210         0.0000     -0.0000     -0.0000      0.0000      0.0000
       211        -0.0000      0.0000      0.0000      0.0000      0.0000
       212         0.0000     -0.0000     -0.0000      0.0000      0.0000
       213         0.0000      0.0000      0.0000      0.0000      0.0000
       214         0.0000      0.0000      0.0000      0.0000      0.0000
       215        -0.0000     -0.0000     -0.3253      0.1058      0.2693
       216        -0.0000     -0.0000     -0.0093      0.0001      0.0002
       217        -0.0827     -0.0000      0.0000      0.0068      0.0183
       218        -0.0000     -0.0000     -0.0000      0.0000      0.0000
       219         0.0000     -0.0906      0.0000      0.0082      0.0221
       220         0.0000     -0.0000     -0.0000      0.0000      0.0000
       221         0.1893     -0.0000      0.0000      0.0358      0.1019
       222        -0.0000      0.0000      0.0000      0.0000      0.0000
       223        -0.0000      0.0000      0.0000      0.0000      0.0000
       224         0.0000      0.0000     -0.0000      0.0000      0.0000
       225         0.0000     -0.0000      0.0000      0.0000      0.0000
       226         0.0000      0.0000     -0.2291      0.0525      0.1607
       227        -0.0000      0.0000     -0.0000      0.0000      0.0000
       228         0.0000      0.0000      0.0051      0.0000      0.0001
 Ground to excited state transition velocity dipole moments (Au):
       state          X           Y           Z        Dip. S.      Osc.
         1         0.0000      0.0000     -0.0000      0.0000     -0.0000
         2        -0.0000      0.0000     -0.0000      0.0000      0.0000
         3        -0.0000      0.0000     -0.0000      0.0000      0.0000
         4        -0.0913      0.0000     -0.0000      0.0083      0.0197
         5        -0.0000     -0.0000     -0.0000      0.0000      0.0000
         6        -0.0000      0.0000     -0.0000      0.0000      0.0000
         7        -0.0000      0.0000      0.2014      0.0405      0.0838
         8         0.0000     -0.0000     -0.0000      0.0000      0.0000
         9        -0.0000      0.0000     -0.0000      0.0000      0.0000
        10        -0.0000     -0.0000      0.2414      0.0583      0.1002
        11        -0.0000     -0.0000     -0.0000      0.0000      0.0000
        12        -0.0500     -0.0000     -0.0000      0.0025      0.0040
        13        -0.0000     -0.0000      0.0000      0.0000      0.0000
        14         0.3727     -0.0000      0.0000      0.1389      0.1685
        15        -0.0000     -0.0000     -0.0000      0.0000      0.0000
        16         0.0000     -0.0000     -0.4303      0.1852      0.2211
        17         0.0000      0.3319     -0.0000      0.1102      0.1308
        18        -0.0000     -0.0000     -0.0000      0.0000      0.0000
        19         0.0000      0.0000     -0.0000      0.0000      0.0000
        20         0.0000     -0.0000     -0.0000      0.0000      0.0000
        21         0.0000     -0.0000      0.0000      0.0000      0.0000
        22         0.0706      0.0000     -0.0000      0.0050      0.0057
        23        -0.0000      0.2156     -0.0000      0.0465      0.0531
        24         0.0000      0.0000      0.0000      0.0000      0.0000
        25         0.0000      0.2425      0.0000      0.0588      0.0664
        26        -0.0000     -0.0000      0.0000      0.0000      0.0000
        27         0.2317     -0.0000     -0.0000      0.0537      0.0601
        28         0.0000      0.0000      0.0000      0.0000      0.0000
        29         0.0000     -0.2941      0.0000      0.0865      0.0914
        30        -0.0000      0.0000      0.1008      0.0102      0.0106
        31        -0.2106     -0.0000      0.0000      0.0444      0.0462
        32        -0.0000      0.0000      0.0000      0.0000      0.0000
        33        -0.0000     -0.0000      0.0000      0.0000      0.0000
        34        -0.0000      0.0000      0.0000      0.0000      0.0000
        35         0.0000      0.0000      0.0000      0.0000      0.0000
        36         0.0000      0.0000      0.0000      0.0000      0.0000
        37         0.0000     -0.0000      0.2411      0.0581      0.0588
        38        -0.0000     -0.0000     -0.0000      0.0000      0.0000
        39        -0.0000      0.0000      0.0000      0.0000      0.0000
        40         0.0000      0.0000      0.1659      0.0275      0.0248
        41         0.0000      0.0000      0.0000      0.0000      0.0000
        42        -0.0000      0.0000      0.0000      0.0000      0.0000
        43         0.0000     -0.0000      0.9828      0.9658      0.8207
        44         0.4805     -0.0000      0.0000      0.2309      0.1959
        45         0.0000      0.5094      0.0000      0.2595      0.2193
        46         0.0000      0.0000      0.0000      0.0000      0.0000
        47        -0.3028      0.0000      0.0000      0.0917      0.0756
        48         0.0000      0.0000     -0.0000      0.0000      0.0000
        49         0.0000     -0.0000     -0.0000      0.0000      0.0000
        50        -0.0000      0.0000      0.0000      0.0000      0.0000
        51        -0.0000     -0.0000     -0.0000      0.0000      0.0000
        52        -0.0000      0.0000     -0.0000      0.0000      0.0000
        53        -0.0000     -0.0000     -0.2265      0.0513      0.0406
        54         0.3708     -0.0000      0.0000      0.1375      0.1086
        55         0.0000      0.0000     -0.0000      0.0000      0.0000
        56        -0.0000     -0.4155      0.0000      0.1726      0.1362
        57         0.0000      0.0000      0.0000      0.0000      0.0000
        58         0.0000     -0.0000      0.0000      0.0000      0.0000
        59         0.7988     -0.0000      0.0000      0.6381      0.4872
        60         0.0000      0.8738      0.0000      0.7636      0.5822
        61        -0.0000     -0.0000      0.1461      0.0213      0.0161
        62        -0.0000     -0.1733      0.0000      0.0300      0.0223
        63         0.0000     -0.0000     -0.9817      0.9638      0.7095
        64        -0.0571     -0.0000     -0.0000      0.0033      0.0024
        65        -0.0000     -0.0000      0.0000      0.0000      0.0000
        66         0.0000      0.0470      0.0000      0.0022      0.0014
        67         0.0000     -0.0000      0.0000      0.0000      0.0000
        68         0.0000     -0.0000      0.0000      0.0000      0.0000
        69        -0.0532     -0.0000     -0.0000      0.0028      0.0018
        70         0.0000      0.0000      0.0000      0.0000      0.0000
        71         0.0000      0.0000     -0.0000      0.0000      0.0000
        72         0.0000      0.0000     -0.0000      0.0000      0.0000
        73         0.0000     -0.0000     -0.1004      0.0101      0.0064
        74         0.0000      0.7466      0.0000      0.5574      0.3545
        75        -0.0000      0.0000     -0.0000      0.0000      0.0000
        76         0.0000     -0.0000      0.0000      0.0000      0.0000
        77         0.7220     -0.0000      0.0000      0.5213      0.3287
        78         0.0000      0.0000      0.0000      0.0000      0.0000
        79         0.0000      0.0000      0.0000      0.0000      0.0000
        80        -0.0000      0.0000     -0.0000      0.0000      0.0000
        81         0.0000     -0.0000     -0.0000      0.0000      0.0000
        82        -0.0000      0.0000     -0.0102      0.0001      0.0001
        83        -0.0000      0.0000      0.0000      0.0000      0.0000
        84        -0.0000      0.0000     -0.0000      0.0000      0.0000
        85         0.0000     -0.0000     -0.0000      0.0000      0.0000
        86        -0.0000     -0.0000      0.0000      0.0000      0.0000
        87        -0.0000      0.0000     -0.1359      0.0185      0.0113
        88         0.0000      0.0000      0.0000      0.0000      0.0000
        89         0.0000     -0.0000      0.0000      0.0000      0.0000
        90        -0.0000      0.0000      0.0000      0.0000      0.0000
        91        -0.0000     -0.0000      0.0428      0.0018      0.0011
        92        -0.0000      0.0000      0.0000      0.0000      0.0000
        93        -0.0000      0.0000     -0.1134      0.0129      0.0075
        94        -0.0000     -0.0000     -0.0000      0.0000      0.0000
        95         0.0000      0.0000      0.0000      0.0000      0.0000
        96        -0.0000      0.0000     -0.1893      0.0358      0.0190
        97         0.0000     -0.0000     -0.3503      0.1227      0.0637
        98        -0.0000     -0.0000      0.0000      0.0000      0.0000
        99         0.0000      0.0000     -0.0000      0.0000      0.0000
       100        -0.0000     -0.0000      0.0000      0.0000      0.0000
       101         0.0000     -0.0000      0.0000      0.0000      0.0000
       102        -0.0000     -0.3168      0.0000      0.1003      0.0501
       103        -0.0000     -0.0000      0.1425      0.0203      0.0101
       104        -0.0000     -0.0000     -0.0000      0.0000      0.0000
       105        -0.2945      0.0000     -0.0000      0.0867      0.0432
       106         0.0000     -0.0000      0.0000      0.0000      0.0000
       107        -0.0000     -0.1089     -0.0000      0.0119      0.0059
       108        -0.0850     -0.0000     -0.0000      0.0072      0.0035
       109        -0.0000     -0.0000      0.0000      0.0000      0.0000
       110         0.0000      0.0000      0.0000      0.0000      0.0000
       111         0.0000     -0.0000     -0.0000      0.0000      0.0000
       112        -0.0000     -0.0000     -0.0000      0.0000      0.0000
       113         0.0000      0.0000     -0.0000      0.0000      0.0000
       114        -0.0000      0.0000      0.0000      0.0000      0.0000
       115        -0.3399      0.0000      0.0000      0.1155      0.0531
       116         0.0000      0.2866      0.0000      0.0821      0.0374
       117         0.3941      0.0000     -0.0000      0.1553      0.0702
       118        -0.0000      0.4853      0.0000      0.2355      0.1030
       119         0.0000      0.0000     -0.0000      0.0000      0.0000
       120         0.3562      0.0000      0.0000      0.1269      0.0544
       121         0.0000     -0.0000     -0.7999      0.6399      0.2725
       122        -0.0000     -0.0000     -0.0000      0.0000      0.0000
       123        -0.0000     -0.0000     -0.0000      0.0000      0.0000
       124         0.0000     -0.0000      0.0818      0.0067      0.0028
       125        -0.0000     -0.0000     -0.0000      0.0000      0.0000
       126         0.0000     -0.0000     -0.0000      0.0000      0.0000
       127         0.0000      0.0000      0.0000      0.0000      0.0000
       128         0.0000      0.0000      0.0000      0.0000      0.0000
       129        -0.0000     -0.0000     -0.0000      0.0000      0.0000
       130         0.0000     -0.0000     -0.0000      0.0000      0.0000
       131         0.0000      0.0000     -0.0000      0.0000      0.0000
       132        -0.0000      0.0000     -0.0000      0.0000      0.0000
       133        -0.0000     -0.0000     -0.3665      0.1343      0.0500
       134         0.0000     -0.2830      0.0000      0.0801      0.0297
       135        -0.0000     -0.0000     -0.0000      0.0000      0.0000
       136        -0.2189     -0.0000     -0.0000      0.0479      0.0176
       137        -0.0000     -0.0000      0.0392      0.0015      0.0006
       138         0.0000      0.0000      0.0012      0.0000      0.0000
       139        -0.0000     -0.0000      0.0000      0.0000      0.0000
       140         0.7074     -0.0000      0.0000      0.5005      0.1811
       141        -0.0000     -0.2551      0.0000      0.0651      0.0233
       142         0.0000      0.0000     -0.0000      0.0000      0.0000
       143         0.0000      0.0000      0.0000      0.0000      0.0000
       144        -0.0000     -0.0000      0.2746      0.0754      0.0268
       145        -0.0228     -0.0000      0.0000      0.0005      0.0002
       146         0.0000      0.0000      0.0586      0.0034      0.0012
       147         0.0000      0.0000      0.0000      0.0000      0.0000
       148        -0.0000     -0.0000      0.0000      0.0000      0.0000
       149        -0.0000      0.0000      0.0000      0.0000      0.0000
       150        -0.0000     -0.0000      0.0000      0.0000      0.0000
       151         0.0000      0.0000      0.0000      0.0000      0.0000
       152        -0.0000     -0.0000     -0.1033      0.0107      0.0034
       153         0.0000     -0.0000      0.0000      0.0000      0.0000
       154        -0.0000      0.0000      0.0000      0.0000      0.0000
       155         0.0000      0.0000     -0.0000      0.0000      0.0000
       156        -0.0000     -0.0000      0.8964      0.8035      0.2514
       157        -0.0000      0.9633      0.0000      0.9279      0.2853
       158         0.0000      0.0000     -0.0394      0.0016      0.0005
       159         0.9827      0.0000      0.0000      0.9658      0.2947
       160         0.0000      0.2526      0.0000      0.0638      0.0191
       161         0.3197     -0.0000     -0.0000      0.1022      0.0305
       162        -0.0000     -0.0000      0.0000      0.0000      0.0000
       163        -0.0000     -0.0000     -0.0000      0.0000      0.0000
       164        -0.0000     -0.0000     -0.0000      0.0000      0.0000
       165        -0.0000     -0.0000      1.3988      1.9567      0.5267
       166         0.0000     -0.0000      0.1161      0.0135      0.0036
       167        -0.0000      0.0000     -0.0000      0.0000      0.0000
       168         0.0000     -0.0000     -0.0000      0.0000      0.0000
       169         0.0000      0.0000     -0.0000      0.0000      0.0000
       170         0.0000     -0.0000      0.0000      0.0000      0.0000
       171         0.4753      0.0000      0.0000      0.2259      0.0557
       172        -0.0000      0.0000      0.0000      0.0000      0.0000
       173        -0.0000     -0.0000     -0.0000      0.0000      0.0000
       174        -0.0000      0.0000      0.0000      0.0000      0.0000
       175        -0.0000      0.6191      0.0000      0.3833      0.0931
       176         0.0000      0.0000      0.0000      0.0000      0.0000
       177         0.0000      0.0000      0.0000      0.0000      0.0000
       178        -0.0000     -0.0000     -0.3678      0.1353      0.0309
       179         0.0000     -0.0000     -0.0000      0.0000      0.0000
       180        -0.0000      0.4760     -0.0000      0.2266      0.0509
       181         0.0000     -0.0000      0.0000      0.0000      0.0000
       182         0.0000     -0.0000     -0.0000      0.0000      0.0000
       183         0.6833      0.0000      0.0000      0.4669      0.1039
       184        -0.0000     -0.0000      0.0000      0.0000      0.0000
       185        -0.0000     -0.0000     -0.0000      0.0000      0.0000
       186         0.3078      0.0000      0.0000      0.0947      0.0208
       187         0.0000     -0.3123      0.0000      0.0975      0.0212
       188         1.4599      0.0000     -0.0000      2.1314      0.4554
       189         0.0000     -1.8259      0.0000      3.3339      0.7099
       190         0.0000      0.0000      0.0310      0.0010      0.0002
       191         0.0000     -0.0000     -0.0000      0.0000      0.0000
       192         0.0000     -0.0000     -0.0000      0.0000      0.0000
       193        -0.0000      0.0000     -0.0000      0.0000      0.0000
       194         0.0000     -1.3201     -0.0000      1.7428      0.3550
       195        -1.5667     -0.0000      0.0000      2.4544      0.4984
       196        -0.0000     -0.0000     -0.0051      0.0000      0.0000
       197        -0.0000     -0.0000      0.0000      0.0000      0.0000
       198        -0.0000     -0.0000     -0.0000      0.0000      0.0000
       199         0.0000      0.0000      0.0000      0.0000      0.0000
       200        -0.0000      0.0000      0.0000      0.0000      0.0000
       201        -0.0000      0.0000      0.0000      0.0000      0.0000
       202        -0.0000      0.0000      0.0000      0.0000      0.0000
       203        -0.0000     -1.0102      0.0000      1.0204      0.1933
       204        -0.0000     -0.0000     -0.0225      0.0005      0.0001
       205        -1.0290      0.0000     -0.0000      1.0589      0.1997
       206        -0.0000     -0.0000      0.0000      0.0000      0.0000
       207         0.0000     -0.0000      0.0000      0.0000      0.0000
       208         0.0000     -0.0000     -0.0000      0.0000      0.0000
       209        -0.0000     -0.0000      0.0854      0.0073      0.0013
       210        -0.0000      0.0000      0.0000      0.0000      0.0000
       211         0.0000     -0.0000     -0.0000      0.0000      0.0000
       212        -0.0000      0.0000      0.0000      0.0000      0.0000
       213        -0.0000      0.0000     -0.0000      0.0000      0.0000
       214        -0.0000     -0.0000     -0.0000      0.0000      0.0000
       215         0.0000      0.0000      1.2535      1.5712      0.2743
       216         0.0000      0.0000      0.0483      0.0023      0.0004
       217         0.2834      0.0000     -0.0000      0.0803      0.0133
       218         0.0000      0.0000      0.0000      0.0000      0.0000
       219        -0.0000      0.3213     -0.0000      0.1032      0.0171
       220        -0.0000      0.0000      0.0000      0.0000      0.0000
       221        -0.7230      0.0000      0.0000      0.5227      0.0817
       222        -0.0000      0.0000     -0.0000      0.0000      0.0000
       223        -0.0000     -0.0000     -0.0000      0.0000      0.0000
       224         0.0000     -0.0000      0.0000      0.0000      0.0000
       225        -0.0000     -0.0000     -0.0000      0.0000      0.0000
       226        -0.0000     -0.0000      1.0512      1.1051      0.1604
       227        -0.0000     -0.0000      0.0000      0.0000      0.0000
       228        -0.0000     -0.0000     -0.1256      0.0158      0.0020
 Ground to excited state transition magnetic dipole moments (Au):
       state          X           Y           Z
         1        -0.0000     -0.0000     -0.1365
         2        -0.0000      0.0000     -0.0000
         3        -1.7714      0.0000     -0.0000
         4         0.0000     -0.0000      0.0000
         5         0.0000      0.6049      0.0000
         6        -0.0000     -0.0000      0.0000
         7         0.0000     -0.0000      0.0000
         8        -0.0000     -0.6367     -0.0000
         9        -0.0000     -0.0000      0.0000
        10         0.0000      0.0000     -0.0000
        11        -0.0000      0.0000      0.0000
        12         0.0000     -0.0000     -0.0000
        13        -0.0898      0.0000      0.0000
        14         0.0000     -0.0000      0.0000
        15        -0.0000     -0.0384      0.0000
        16        -0.0000      0.0000     -0.0000
        17         0.0000      0.0000      0.0000
        18        -0.0000      1.0046     -0.0000
        19        -1.0581     -0.0000     -0.0000
        20         0.0000      0.0000     -0.0000
        21         0.0000     -0.0000      0.0000
        22        -0.0000      0.0000     -0.0000
        23         0.0000      0.0000      0.0000
        24        -0.0000      0.0000      0.0000
        25         0.0000      0.0000      0.0000
        26         0.0000     -0.0000      0.0000
        27         0.0000      0.0000     -0.0000
        28         0.0000      0.0000     -0.0000
        29         0.0000      0.0000     -0.0000
        30         0.0000     -0.0000      0.0000
        31        -0.0000     -0.0000      0.0000
        32        -0.0000      0.0000     -0.0000
        33         0.0000      0.0000     -0.0000
        34         0.0138      0.0000     -0.0000
        35        -0.0000     -0.0000     -0.0000
        36        -0.0000      0.0057      0.0000
        37        -0.0000      0.0000      0.0000
        38         0.7388     -0.0000      0.0000
        39        -0.0000     -0.8218      0.0000
        40         0.0000     -0.0000      0.0000
        41         0.0000      0.5312      0.0000
        42        -0.0000     -0.0000      0.0000
        43        -0.0000      0.0000      0.0000
        44        -0.0000     -0.0000      0.0000
        45         0.0000     -0.0000      0.0000
        46         0.0000     -0.0000      0.0000
        47        -0.0000     -0.0000     -0.0000
        48        -0.0000      0.0000     -0.0000
        49        -0.2986     -0.0000      0.0000
        50        -0.1042     -0.0000     -0.0000
        51        -0.0000      0.3613      0.0000
        52         0.0000      0.0000      0.0000
        53         0.0000      0.0000     -0.0000
        54        -0.0000     -0.0000      0.0000
        55         0.0000      0.0356      0.0000
        56         0.0000     -0.0000     -0.0000
        57        -0.0000      0.0000      0.0000
        58        -0.0000     -0.0000     -0.0000
        59        -0.0000      0.0000     -0.0000
        60        -0.0000     -0.0000      0.0000
        61         0.0000     -0.0000     -0.0000
        62         0.0000      0.0000     -0.0000
        63         0.0000     -0.0000     -0.0000
        64        -0.0000     -0.0000      0.0000
        65        -0.0000      0.0000     -0.0000
        66        -0.0000      0.0000      0.0000
        67        -0.0000     -0.0000      0.0000
        68         0.0000      0.0000     -0.0000
        69         0.0000     -0.0000     -0.0000
        70        -0.0000     -0.0000     -0.0000
        71        -0.0000      0.0000      0.0000
        72         0.0000      0.0000      0.0000
        73        -0.0000     -0.0000     -0.0000
        74        -0.0000     -0.0000      0.0000
        75         0.2413     -0.0000     -0.0000
        76        -0.0000     -0.0000     -0.0000
        77         0.0000     -0.0000     -0.0000
        78        -0.0000      0.1879      0.0000
        79         0.0957      0.0000      0.0000
        80        -0.0000      0.6031      0.0000
        81        -0.5076     -0.0000     -0.0000
        82         0.0000     -0.0000      0.0000
        83         0.3879      0.0000     -0.0000
        84         0.0000     -0.2702      0.0000
        85        -0.0000     -0.0000     -0.0000
        86        -0.1767     -0.0000      0.0000
        87        -0.0000     -0.0000      0.0000
        88        -0.0000      0.1513      0.0000
        89        -0.0000     -0.0000     -0.0000
        90        -0.0000     -0.0000      0.0000
        91        -0.0000      0.0000     -0.0000
        92         0.0000     -0.0000     -0.0000
        93         0.0000     -0.0000      0.0000
        94         0.0000      0.0000     -0.0000
        95         0.0000      0.6985      0.0000
        96        -0.0000     -0.0000     -0.0000
        97        -0.0000      0.0000     -0.0000
        98        -0.0904      0.0000     -0.0000
        99        -0.0000      0.0037      0.0000
       100        -0.0000     -0.0000     -0.0000
       101        -0.0000     -0.0000     -0.0000
       102        -0.0000     -0.0000     -0.0000
       103        -0.0000      0.0000      0.0000
       104         0.0000     -0.0000     -0.0000
       105         0.0000      0.0000     -0.0000
       106        -0.0000     -0.0000     -0.0000
       107        -0.0000     -0.0000     -0.0000
       108         0.0000     -0.0000      0.0000
       109        -0.0000      0.0000     -0.0000
       110        -0.0577      0.0000      0.0000
       111         0.0000      0.0785     -0.0000
       112        -0.0000      0.0000      0.0000
       113        -0.0000     -0.0000      0.0000
       114        -0.0000     -0.0000      0.0000
       115        -0.0000     -0.0000     -0.0000
       116        -0.0000     -0.0000      0.0000
       117        -0.0000     -0.0000      0.0000
       118        -0.0000     -0.0000      0.0000
       119         0.0000     -0.0000      0.0000
       120         0.0000      0.0000     -0.0000
       121        -0.0000      0.0000      0.0000
       122        -0.0000     -0.4936      0.0000
       123        -0.0000     -0.0000      0.0000
       124         0.0000     -0.0000      0.0000
       125        -0.0000     -0.0000     -0.0000
       126         0.0000     -0.0000     -0.0000
       127        -0.0000      0.0000      0.0000
       128        -0.8927      0.0000     -0.0000
       129         0.0000      0.8430     -0.0000
       130         0.0000      0.0000     -0.0000
       131         0.3785      0.0000      0.0000
       132         0.0000     -0.4672     -0.0000
       133        -0.0000      0.0000      0.0000
       134         0.0000      0.0000     -0.0000
       135         0.0000     -0.0000     -0.0000
       136        -0.0000     -0.0000     -0.0000
       137         0.0000      0.0000      0.0000
       138         0.0000     -0.0000     -0.0000
       139         0.0000     -0.0000     -0.0000
       140         0.0000     -0.0000     -0.0000
       141        -0.0000      0.0000     -0.0000
[...]
      6   0.000000D+00  0.963288D+00  0.000000D+00  0.000000D+00  0.252575D+00
      7   0.896394D+00  0.000000D+00 -0.393721D-01  0.000000D+00  0.000000D+00
      8   0.000000D+00  0.000000D+00  0.000000D+00  0.000000D+00  0.000000D+00
      9   0.000000D+00  0.000000D+00  0.000000D+00  0.000000D+00  0.000000D+00
     10   0.000000D+00  0.000000D+00  0.000000D+00  0.000000D+00  0.000000D+00
     11   0.000000D+00  0.000000D+00  0.000000D+00  0.000000D+00  0.000000D+00
     12   0.000000D+00  0.000000D+00  0.000000D+00  0.000000D+00  0.000000D+00
     13   0.000000D+00  0.000000D+00  0.000000D+00  0.000000D+00  0.000000D+00
     14   0.000000D+00  0.000000D+00  0.000000D+00  0.000000D+00  0.000000D+00
     15   0.000000D+00  0.000000D+00  0.000000D+00  0.000000D+00  0.000000D+00
     16   0.000000D+00  0.000000D+00  0.000000D+00  0.000000D+00  0.000000D+00
               161           162           163           164           165 
      1  -0.147866D+03 -0.147784D+03 -0.147701D+03 -0.147695D+03 -0.147624D+03
      2  -0.130548D+00  0.000000D+00  0.000000D+00  0.000000D+00  0.000000D+00
      3   0.000000D+00  0.000000D+00  0.000000D+00  0.000000D+00  0.000000D+00
      4   0.000000D+00  0.000000D+00  0.000000D+00  0.000000D+00 -0.627367D+00
      5   0.319652D+00  0.000000D+00  0.000000D+00  0.000000D+00  0.000000D+00
      6   0.000000D+00  0.000000D+00  0.000000D+00  0.000000D+00  0.000000D+00
      7   0.000000D+00  0.000000D+00  0.000000D+00  0.000000D+00  0.139883D+01
      8   0.000000D+00  0.000000D+00  0.000000D+00  0.000000D+00  0.000000D+00
      9   0.000000D+00  0.000000D+00  0.000000D+00  0.000000D+00  0.000000D+00
     10   0.000000D+00  0.000000D+00  0.000000D+00  0.000000D+00  0.000000D+00
     11   0.000000D+00  0.802981D+00  0.000000D+00  0.139730D+01  0.000000D+00
     12   0.000000D+00  0.711483D+00  0.000000D+00  0.130908D+01  0.000000D+00
     13   0.000000D+00  0.127393D+01  0.000000D+00 -0.412507D+00  0.000000D+00
     14   0.000000D+00  0.000000D+00  0.000000D+00  0.000000D+00  0.000000D+00
     15   0.000000D+00  0.000000D+00  0.000000D+00  0.000000D+00  0.000000D+00
     16   0.000000D+00  0.000000D+00  0.000000D+00  0.000000D+00  0.000000D+00
               166           167           168           169           170 
      1  -0.147584D+03 -0.147438D+03 -0.147435D+03 -0.147431D+03 -0.147415D+03
      2   0.000000D+00  0.000000D+00  0.000000D+00  0.000000D+00  0.000000D+00
      3   0.000000D+00  0.000000D+00  0.000000D+00  0.000000D+00  0.000000D+00
      4  -0.763959D-01  0.000000D+00  0.000000D+00  0.000000D+00  0.000000D+00
      5   0.000000D+00  0.000000D+00  0.000000D+00  0.000000D+00  0.000000D+00
      6   0.000000D+00  0.000000D+00  0.000000D+00  0.000000D+00  0.000000D+00
      7   0.116106D+00  0.000000D+00  0.000000D+00  0.000000D+00  0.000000D+00
      8   0.000000D+00  0.000000D+00  0.000000D+00 -0.765915D+00  0.000000D+00
      9   0.000000D+00  0.000000D+00  0.000000D+00  0.000000D+00  0.868364D+00
     10   0.000000D+00  0.000000D+00  0.000000D+00  0.000000D+00  0.000000D+00
     11   0.000000D+00  0.000000D+00 -0.916345D+00  0.000000D+00  0.000000D+00
     12   0.000000D+00  0.000000D+00 -0.903031D+00  0.000000D+00  0.000000D+00
     13   0.000000D+00  0.000000D+00  0.131417D+01  0.000000D+00  0.000000D+00
     14   0.000000D+00 -0.303888D-02  0.000000D+00  0.000000D+00  0.000000D+00
     15   0.000000D+00  0.000000D+00  0.000000D+00  0.000000D+00  0.993247D+00
     16   0.000000D+00  0.000000D+00  0.000000D+00  0.915656D+00  0.000000D+00
               171           172           173           174           175 
      1  -0.147397D+03 -0.147397D+03 -0.147390D+03 -0.147363D+03 -0.147356D+03
      2  -0.189126D+00  0.000000D+00  0.000000D+00  0.000000D+00  0.000000D+00
      3   0.000000D+00  0.000000D+00  0.000000D+00  0.000000D+00 -0.241992D+00
      4   0.000000D+00  0.000000D+00  0.000000D+00  0.000000D+00  0.000000D+00
      5   0.475316D+00  0.000000D+00  0.000000D+00  0.000000D+00  0.000000D+00
      6   0.000000D+00  0.000000D+00  0.000000D+00  0.000000D+00  0.619147D+00
      7   0.000000D+00  0.000000D+00  0.000000D+00  0.000000D+00  0.000000D+00
      8   0.000000D+00  0.000000D+00  0.000000D+00  0.000000D+00  0.000000D+00
      9   0.000000D+00  0.000000D+00  0.000000D+00  0.107037D+01  0.000000D+00
     10   0.000000D+00  0.000000D+00  0.377517D-05  0.000000D+00  0.000000D+00
     11   0.000000D+00  0.456187D+00  0.000000D+00  0.000000D+00  0.000000D+00
     12   0.000000D+00  0.204686D+00  0.000000D+00  0.000000D+00  0.000000D+00
     13   0.000000D+00  0.372480D-02  0.000000D+00  0.000000D+00  0.000000D+00
     14   0.000000D+00  0.000000D+00  0.132015D+00  0.000000D+00  0.000000D+00
     15   0.000000D+00  0.000000D+00  0.000000D+00  0.666178D+00  0.000000D+00
     16   0.000000D+00  0.000000D+00  0.000000D+00  0.000000D+00  0.000000D+00
               176           177           178           179           180 
      1  -0.147335D+03 -0.147281D+03 -0.147180D+03 -0.147172D+03 -0.147133D+03
      2   0.000000D+00  0.000000D+00  0.000000D+00  0.000000D+00  0.000000D+00
      3   0.000000D+00  0.000000D+00  0.000000D+00  0.000000D+00 -0.172719D+00
      4   0.000000D+00  0.000000D+00  0.106045D+00  0.000000D+00  0.000000D+00
      5   0.000000D+00  0.000000D+00  0.000000D+00  0.000000D+00  0.000000D+00
      6   0.000000D+00  0.000000D+00  0.000000D+00  0.000000D+00  0.476003D+00
      7   0.000000D+00  0.000000D+00 -0.367819D+00  0.000000D+00  0.000000D+00
      8  -0.129373D+01  0.000000D+00  0.000000D+00  0.000000D+00  0.000000D+00
      9   0.000000D+00  0.000000D+00  0.000000D+00 -0.141079D+00  0.000000D+00
     10   0.000000D+00  0.000000D+00  0.000000D+00  0.000000D+00  0.000000D+00
     11   0.000000D+00  0.546864D+00  0.000000D+00  0.000000D+00  0.000000D+00
     12   0.000000D+00  0.444885D+00  0.000000D+00  0.000000D+00  0.000000D+00
     13   0.000000D+00  0.258704D+01  0.000000D+00  0.000000D+00  0.000000D+00
     14   0.000000D+00  0.000000D+00  0.000000D+00  0.000000D+00  0.000000D+00
     15   0.000000D+00  0.000000D+00  0.000000D+00  0.309495D+00  0.000000D+00
     16   0.100472D+01  0.000000D+00  0.000000D+00  0.000000D+00  0.000000D+00
               181           182           183           184           185 
      1  -0.147114D+03 -0.147112D+03 -0.147106D+03 -0.147101D+03 -0.147080D+03
      2   0.000000D+00  0.000000D+00 -0.240458D+00  0.000000D+00  0.000000D+00
      3   0.000000D+00  0.000000D+00  0.000000D+00  0.000000D+00  0.000000D+00
      4   0.000000D+00  0.000000D+00  0.000000D+00  0.000000D+00  0.000000D+00
      5   0.000000D+00  0.000000D+00  0.683318D+00  0.000000D+00  0.000000D+00
      6   0.000000D+00  0.000000D+00  0.000000D+00  0.000000D+00  0.000000D+00
      7   0.000000D+00  0.000000D+00  0.000000D+00  0.000000D+00  0.000000D+00
      8  -0.326099D+00  0.000000D+00  0.000000D+00  0.000000D+00  0.000000D+00
      9   0.000000D+00  0.000000D+00  0.000000D+00 -0.652061D+00  0.000000D+00
     10   0.000000D+00  0.000000D+00  0.000000D+00  0.000000D+00  0.232749D-05
     11   0.000000D+00  0.114411D+00  0.000000D+00  0.000000D+00  0.000000D+00
     12   0.000000D+00 -0.233855D+00  0.000000D+00  0.000000D+00  0.000000D+00
     13   0.000000D+00 -0.412642D+00  0.000000D+00  0.000000D+00  0.000000D+00
     14   0.000000D+00  0.000000D+00  0.000000D+00  0.000000D+00  0.204718D+00
     15   0.000000D+00  0.000000D+00  0.000000D+00 -0.129497D+01  0.000000D+00
     16   0.110881D+01  0.000000D+00  0.000000D+00  0.000000D+00  0.000000D+00
               186           187           188           189           190 
      1  -0.147066D+03 -0.147039D+03 -0.146980D+03 -0.146970D+03 -0.146914D+03
      2  -0.120008D+00  0.000000D+00 -0.551481D+00  0.000000D+00  0.000000D+00
      3   0.000000D+00  0.102271D+00  0.000000D+00  0.665961D+00  0.000000D+00
      4   0.000000D+00  0.000000D+00  0.000000D+00  0.000000D+00 -0.119805D-01
      5   0.307752D+00  0.000000D+00  0.145994D+01  0.000000D+00  0.000000D+00
      6   0.000000D+00 -0.312294D+00  0.000000D+00 -0.182589D+01  0.000000D+00
      7   0.000000D+00  0.000000D+00  0.000000D+00  0.000000D+00  0.310145D-01
      8   0.000000D+00  0.000000D+00  0.000000D+00  0.000000D+00  0.000000D+00
      9   0.000000D+00  0.000000D+00  0.000000D+00  0.000000D+00  0.000000D+00
     10   0.000000D+00  0.000000D+00  0.000000D+00  0.000000D+00  0.000000D+00
     11   0.000000D+00  0.000000D+00  0.000000D+00  0.000000D+00  0.000000D+00
     12   0.000000D+00  0.000000D+00  0.000000D+00  0.000000D+00  0.000000D+00
     13   0.000000D+00  0.000000D+00  0.000000D+00  0.000000D+00  0.000000D+00
     14   0.000000D+00  0.000000D+00  0.000000D+00  0.000000D+00  0.000000D+00
     15   0.000000D+00  0.000000D+00  0.000000D+00  0.000000D+00  0.000000D+00
     16   0.000000D+00  0.000000D+00  0.000000D+00  0.000000D+00  0.000000D+00
               191           192           193           194           195 
      1  -0.146880D+03 -0.146853D+03 -0.146844D+03 -0.146827D+03 -0.146817D+03
      2   0.000000D+00  0.000000D+00  0.000000D+00  0.000000D+00  0.558706D+00
      3   0.000000D+00  0.000000D+00  0.000000D+00  0.455558D+00  0.000000D+00
      4   0.000000D+00  0.000000D+00  0.000000D+00  0.000000D+00  0.000000D+00
      5   0.000000D+00  0.000000D+00  0.000000D+00  0.000000D+00 -0.156666D+01
      6   0.000000D+00  0.000000D+00  0.000000D+00 -0.132014D+01  0.000000D+00
      7   0.000000D+00  0.000000D+00  0.000000D+00  0.000000D+00  0.000000D+00
      8   0.000000D+00  0.391919D+00  0.000000D+00  0.000000D+00  0.000000D+00
      9   0.000000D+00  0.000000D+00  0.519303D+00  0.000000D+00  0.000000D+00
     10   0.000000D+00  0.000000D+00  0.000000D+00  0.000000D+00  0.000000D+00
     11   0.000000D+00  0.000000D+00  0.000000D+00  0.000000D+00  0.000000D+00
     12   0.000000D+00  0.000000D+00  0.000000D+00  0.000000D+00  0.000000D+00
     13   0.000000D+00  0.000000D+00  0.000000D+00  0.000000D+00  0.000000D+00
     14   0.000000D+00  0.000000D+00  0.000000D+00  0.000000D+00  0.000000D+00
     15   0.000000D+00  0.000000D+00  0.628837D+00  0.000000D+00  0.000000D+00
     16   0.000000D+00 -0.462738D+00  0.000000D+00  0.000000D+00  0.000000D+00
               196           197           198           199           200 
      1  -0.146806D+03 -0.146799D+03 -0.146779D+03 -0.146765D+03 -0.146759D+03
      2   0.000000D+00  0.000000D+00  0.000000D+00  0.000000D+00  0.000000D+00
      3   0.000000D+00  0.000000D+00  0.000000D+00  0.000000D+00  0.000000D+00
      4   0.384679D-02  0.000000D+00  0.000000D+00  0.000000D+00  0.000000D+00
      5   0.000000D+00  0.000000D+00  0.000000D+00  0.000000D+00  0.000000D+00
      6   0.000000D+00  0.000000D+00  0.000000D+00  0.000000D+00  0.000000D+00
      7  -0.514074D-02  0.000000D+00  0.000000D+00  0.000000D+00  0.000000D+00
      8   0.000000D+00  0.000000D+00 -0.156056D+01  0.000000D+00  0.000000D+00
      9   0.000000D+00  0.000000D+00  0.000000D+00  0.000000D+00  0.151736D+01
     10   0.000000D+00  0.000000D+00  0.000000D+00  0.000000D+00  0.000000D+00
     11   0.000000D+00 -0.135757D+00  0.000000D+00  0.000000D+00  0.000000D+00
     12   0.000000D+00 -0.115647D+00  0.000000D+00  0.000000D+00  0.000000D+00
     13   0.000000D+00  0.234120D+01  0.000000D+00  0.000000D+00  0.000000D+00
     14   0.000000D+00  0.000000D+00  0.000000D+00  0.000000D+00  0.000000D+00
     15   0.000000D+00  0.000000D+00  0.000000D+00  0.000000D+00  0.180562D+01
     16   0.000000D+00  0.000000D+00  0.182578D+01  0.000000D+00  0.000000D+00
               201           202           203           204           205 
      1  -0.146657D+03 -0.146593D+03 -0.146582D+03 -0.146575D+03 -0.146565D+03
      2   0.000000D+00  0.000000D+00  0.000000D+00  0.000000D+00  0.335468D+00
      3   0.000000D+00  0.000000D+00  0.321404D+00  0.000000D+00  0.000000D+00
      4   0.000000D+00  0.000000D+00  0.000000D+00 -0.343367D-03  0.000000D+00
      5   0.000000D+00  0.000000D+00  0.000000D+00  0.000000D+00 -0.102902D+01
      6   0.000000D+00  0.000000D+00 -0.101015D+01  0.000000D+00  0.000000D+00
      7   0.000000D+00  0.000000D+00  0.000000D+00 -0.224887D-01  0.000000D+00
      8   0.000000D+00  0.000000D+00  0.000000D+00  0.000000D+00  0.000000D+00
      9   0.000000D+00  0.000000D+00  0.000000D+00  0.000000D+00  0.000000D+00
     10   0.258385D-05  0.000000D+00  0.000000D+00  0.000000D+00  0.000000D+00
     11   0.000000D+00  0.756745D+00  0.000000D+00  0.000000D+00  0.000000D+00
     12   0.000000D+00 -0.849282D+00  0.000000D+00  0.000000D+00  0.000000D+00
     13   0.000000D+00  0.382252D+00  0.000000D+00  0.000000D+00  0.000000D+00
     14  -0.436622D-01  0.000000D+00  0.000000D+00  0.000000D+00  0.000000D+00
     15   0.000000D+00  0.000000D+00  0.000000D+00  0.000000D+00  0.000000D+00
     16   0.000000D+00  0.000000D+00  0.000000D+00  0.000000D+00  0.000000D+00
               206           207           208           209           210 
      1  -0.146556D+03 -0.146546D+03 -0.146386D+03 -0.146354D+03 -0.146344D+03
      2   0.000000D+00  0.000000D+00  0.000000D+00  0.000000D+00  0.000000D+00
      3   0.000000D+00  0.000000D+00  0.000000D+00  0.000000D+00  0.000000D+00
      4   0.000000D+00  0.000000D+00  0.000000D+00 -0.212158D-01  0.000000D+00
      5   0.000000D+00  0.000000D+00  0.000000D+00  0.000000D+00  0.000000D+00
      6   0.000000D+00  0.000000D+00  0.000000D+00  0.000000D+00  0.000000D+00
      7   0.000000D+00  0.000000D+00  0.000000D+00  0.854112D-01  0.000000D+00
      8   0.000000D+00  0.000000D+00  0.000000D+00  0.000000D+00  0.000000D+00
      9   0.000000D+00  0.000000D+00  0.000000D+00  0.000000D+00  0.000000D+00
     10  -0.242322D-05  0.000000D+00  0.000000D+00  0.000000D+00  0.000000D+00
     11   0.000000D+00 -0.567748D+00  0.000000D+00  0.000000D+00  0.000000D+00
     12   0.000000D+00 -0.218450D+00  0.000000D+00  0.000000D+00  0.000000D+00
     13   0.000000D+00  0.447237D+01  0.000000D+00  0.000000D+00  0.000000D+00
     14   0.818531D+00  0.000000D+00  0.000000D+00  0.000000D+00  0.000000D+00
     15   0.000000D+00  0.000000D+00  0.000000D+00  0.000000D+00  0.000000D+00
     16   0.000000D+00  0.000000D+00  0.000000D+00  0.000000D+00  0.000000D+00
               211           212           213           214           215 
      1  -0.146326D+03 -0.146299D+03 -0.146292D+03 -0.146282D+03 -0.146282D+03
      2   0.000000D+00  0.000000D+00  0.000000D+00  0.000000D+00  0.000000D+00
      3   0.000000D+00  0.000000D+00  0.000000D+00  0.000000D+00  0.000000D+00
      4   0.000000D+00  0.000000D+00  0.000000D+00  0.000000D+00 -0.325275D+00
      5   0.000000D+00  0.000000D+00  0.000000D+00  0.000000D+00  0.000000D+00
      6   0.000000D+00  0.000000D+00  0.000000D+00  0.000000D+00  0.000000D+00
      7   0.000000D+00  0.000000D+00  0.000000D+00  0.000000D+00  0.125349D+01
      8   0.000000D+00  0.000000D+00 -0.127877D+01  0.000000D+00  0.000000D+00
      9   0.000000D+00  0.135965D+01  0.000000D+00  0.000000D+00  0.000000D+00
     10   0.000000D+00  0.000000D+00  0.000000D+00 -0.321887D-05  0.000000D+00
     11   0.749350D+00  0.000000D+00  0.000000D+00  0.000000D+00  0.000000D+00
     12  -0.734268D+00  0.000000D+00  0.000000D+00  0.000000D+00  0.000000D+00
     13  -0.166083D+00  0.000000D+00  0.000000D+00  0.000000D+00  0.000000D+00
     14   0.000000D+00  0.000000D+00  0.000000D+00  0.745602D+00  0.000000D+00
     15   0.000000D+00  0.217383D+01  0.000000D+00  0.000000D+00  0.000000D+00
     16   0.000000D+00  0.000000D+00  0.213035D+01  0.000000D+00  0.000000D+00
               216           217           218           219           220 
      1  -0.146099D+03 -0.146079D+03 -0.146071D+03 -0.146069D+03 -0.146053D+03
      2   0.000000D+00 -0.826770D-01  0.000000D+00  0.000000D+00  0.000000D+00
      3   0.000000D+00  0.000000D+00  0.000000D+00 -0.906139D-01  0.000000D+00
      4  -0.931558D-02  0.000000D+00  0.000000D+00  0.000000D+00  0.000000D+00
      5   0.000000D+00  0.283357D+00  0.000000D+00  0.000000D+00  0.000000D+00
      6   0.000000D+00  0.000000D+00  0.000000D+00  0.321317D+00  0.000000D+00
      7   0.482828D-01  0.000000D+00  0.000000D+00  0.000000D+00  0.000000D+00
      8   0.000000D+00  0.000000D+00  0.000000D+00  0.000000D+00  0.000000D+00
      9   0.000000D+00  0.000000D+00  0.000000D+00  0.000000D+00  0.000000D+00
     10   0.000000D+00  0.000000D+00  0.000000D+00  0.000000D+00  0.000000D+00
     11   0.000000D+00  0.000000D+00 -0.758401D-01  0.000000D+00  0.000000D+00
     12   0.000000D+00  0.000000D+00 -0.131823D+00  0.000000D+00  0.000000D+00
     13   0.000000D+00  0.000000D+00 -0.157041D+01  0.000000D+00  0.000000D+00
     14   0.000000D+00  0.000000D+00  0.000000D+00  0.000000D+00  0.000000D+00
     15   0.000000D+00  0.000000D+00  0.000000D+00  0.000000D+00  0.000000D+00
     16   0.000000D+00  0.000000D+00  0.000000D+00  0.000000D+00  0.000000D+00
               221           222           223           224           225 
      1  -0.145838D+03 -0.145586D+03 -0.145571D+03 -0.145560D+03 -0.145549D+03
      2   0.189339D+00  0.000000D+00  0.000000D+00  0.000000D+00  0.000000D+00
      3   0.000000D+00  0.000000D+00  0.000000D+00  0.000000D+00  0.000000D+00
      4   0.000000D+00  0.000000D+00  0.000000D+00  0.000000D+00  0.000000D+00
      5  -0.722951D+00  0.000000D+00  0.000000D+00  0.000000D+00  0.000000D+00
      6   0.000000D+00  0.000000D+00  0.000000D+00  0.000000D+00  0.000000D+00
      7   0.000000D+00  0.000000D+00  0.000000D+00  0.000000D+00  0.000000D+00
      8   0.000000D+00  0.486772D+00  0.000000D+00  0.000000D+00  0.431556D+00
      9   0.000000D+00  0.000000D+00 -0.696782D+00 -0.130522D-01  0.000000D+00
     10   0.000000D+00  0.000000D+00  0.000000D+00  0.000000D+00  0.000000D+00
     11   0.000000D+00  0.000000D+00  0.000000D+00  0.000000D+00  0.000000D+00
     12   0.000000D+00  0.000000D+00  0.000000D+00  0.000000D+00  0.000000D+00
     13   0.000000D+00  0.000000D+00  0.000000D+00  0.000000D+00  0.000000D+00
     14   0.000000D+00  0.000000D+00  0.000000D+00  0.000000D+00  0.000000D+00
     15   0.000000D+00  0.000000D+00 -0.875662D+00  0.279341D+00  0.000000D+00
     16   0.000000D+00 -0.368452D+00  0.000000D+00  0.000000D+00 -0.701966D+00
               226           227           228 
      1  -0.145507D+03 -0.145293D+03 -0.144794D+03
      2   0.000000D+00  0.000000D+00  0.000000D+00
      3   0.000000D+00  0.000000D+00  0.000000D+00
      4  -0.229081D+00  0.000000D+00  0.507406D-02
      5   0.000000D+00  0.000000D+00  0.000000D+00
      6   0.000000D+00  0.000000D+00  0.000000D+00
      7   0.105122D+01  0.000000D+00 -0.125566D+00
      8   0.000000D+00  0.000000D+00  0.000000D+00
      9   0.000000D+00  0.000000D+00  0.000000D+00
     10   0.000000D+00  0.000000D+00  0.000000D+00
     11   0.000000D+00 -0.199956D+00  0.000000D+00
     12   0.000000D+00 -0.227598D+00  0.000000D+00
     13   0.000000D+00  0.172447D+01  0.000000D+00
     14   0.000000D+00  0.000000D+00  0.000000D+00
     15   0.000000D+00  0.000000D+00  0.000000D+00
     16   0.000000D+00  0.000000D+00  0.000000D+00
 Unable to Open any file for archive entry.
 1\1\GINC-HEL23\SP\RM11 TD-FC\Gen\O2\SABYASACHI\21-Mar-2022\0\\#P TD(Ns
 tates=10000) m11/Gen SCF(maxcycles=100) Int(Grid=ultrafine)\\xGDB7_000
 01_tier4.com\\0,1\O,0,0.,0.,0.596896\O,0,0.,0.,-0.596896\\Version=EM64
 L-G16RevC.01\HF=-150.1005188\RMSD=4.443e-09\PG=D*H [C*(O1.O1)]\\@
 The archive entry for this job was punched.


 CONTRAIWISE...CONTINUED TWEEDLEDEE, IF IT WAS SO, IT MIGHT BE,
 AND IF IT WERE SO, IT WOULD BE.....
 BUT AS IT ISN'T, IT AIN'T....
 THAT'S LOGIC.....
 ALICE THROUGH THE LOOKING GLASS
 Job cpu time:       0 days  0 hours  0 minutes 24.6 seconds.
 Elapsed time:       0 days  0 hours  0 minutes  3.4 seconds.
 File lengths (MBytes):  RWF=     69 Int=      0 D2E=      0 Chk=     14 Scr=      1
 Normal termination of Gaussian 16 at Mon Mar 21 20:04:53 2022.
