 Entering Gaussian System, Link 0=g16
 Input=000024.com
 Output=000024.log
 Initial command:
 /home/sabyasachi/g16/l1.exe "/scratch/sabyasachi/PBS_7976158.helios/Gau-156613.inp" -scrdir="/scratch/sabyasachi/PBS_7976158.helios/"
 Entering Link 1 = /home/sabyasachi/g16/l1.exe PID=    156614.
  
 Copyright (c) 1988-2019, Gaussian, Inc.  All Rights Reserved.
  
 This is part of the Gaussian(R) 16 program.  It is based on
 the Gaussian(R) 09 system (copyright 2009, Gaussian, Inc.),
 the Gaussian(R) 03 system (copyright 2003, Gaussian, Inc.),
 the Gaussian(R) 98 system (copyright 1998, Gaussian, Inc.),
 the Gaussian(R) 94 system (copyright 1995, Gaussian, Inc.),
 the Gaussian 92(TM) system (copyright 1992, Gaussian, Inc.),
 the Gaussian 90(TM) system (copyright 1990, Gaussian, Inc.),
 the Gaussian 88(TM) system (copyright 1988, Gaussian, Inc.),
 the Gaussian 86(TM) system (copyright 1986, Carnegie Mellon
 University), and the Gaussian 82(TM) system (copyright 1983,
 Carnegie Mellon University). Gaussian is a federally registered
 trademark of Gaussian, Inc.
  
 This software contains proprietary and confidential information,
 including trade secrets, belonging to Gaussian, Inc.
  
 This software is provided under written license and may be
 used, copied, transmitted, or stored only in accord with that
 written license.
  
 The following legend is applicable only to US Government
 contracts under FAR:
  
                    RESTRICTED RIGHTS LEGEND
  
 Use, reproduction and disclosure by the US Government is
 subject to restrictions as set forth in subparagraphs (a)
 and (c) of the Commercial Computer Software - Restricted
 Rights clause in FAR 52.227-19.
  
 Gaussian, Inc.
 340 Quinnipiac St., Bldg. 40, Wallingford CT 06492
  
  
 ---------------------------------------------------------------
 Warning -- This program may not be used in any manner that
 competes with the business of Gaussian, Inc. or will provide
 assistance to any competitor of Gaussian, Inc.  The licensee
 of this program is prohibited from giving any competitor of
 Gaussian, Inc. access to this program.  By using this program,
 the user acknowledges that Gaussian, Inc. is engaged in the
 business of creating and licensing software in the field of
 computational chemistry and represents and warrants to the
 licensee that it is not a competitor of Gaussian, Inc. and that
 it will not use this program in any manner prohibited above.
 ---------------------------------------------------------------
  

 Cite this work as:
 Gaussian 16, Revision C.01,
 M. J. Frisch, G. W. Trucks, H. B. Schlegel, G. E. Scuseria, 
 M. A. Robb, J. R. Cheeseman, G. Scalmani, V. Barone, 
 G. A. Petersson, H. Nakatsuji, X. Li, M. Caricato, A. V. Marenich, 
 J. Bloino, B. G. Janesko, R. Gomperts, B. Mennucci, H. P. Hratchian, 
 J. V. Ortiz, A. F. Izmaylov, J. L. Sonnenberg, D. Williams-Young, 
 F. Ding, F. Lipparini, F. Egidi, J. Goings, B. Peng, A. Petrone, 
 T. Henderson, D. Ranasinghe, V. G. Zakrzewski, J. Gao, N. Rega, 
 G. Zheng, W. Liang, M. Hada, M. Ehara, K. Toyota, R. Fukuda, 
 J. Hasegawa, M. Ishida, T. Nakajima, Y. Honda, O. Kitao, H. Nakai, 
 T. Vreven, K. Throssell, J. A. Montgomery, Jr., J. E. Peralta, 
 F. Ogliaro, M. J. Bearpark, J. J. Heyd, E. N. Brothers, K. N. Kudin, 
 V. N. Staroverov, T. A. Keith, R. Kobayashi, J. Normand, 
 K. Raghavachari, A. P. Rendell, J. C. Burant, S. S. Iyengar, 
 J. Tomasi, M. Cossi, J. M. Millam, M. Klene, C. Adamo, R. Cammi, 
 J. W. Ochterski, R. L. Martin, K. Morokuma, O. Farkas, 
 J. B. Foresman, and D. J. Fox, Gaussian, Inc., Wallingford CT, 2019.
 
 ******************************************
 Gaussian 16:  EM64L-G16RevC.01  3-Jul-2019
                21-Mar-2022 
 ******************************************
 %mem=64gb
 %nproc=8
 Will use up to    8 processors via shared memory.
 -------------------------------------------------------------------
 #P TD(Nstates=10000) m11/Gen SCF(maxcycles=100) Int(Grid=ultrafine)
 -------------------------------------------------------------------
 1/38=1,172=1/1;
 2/12=2,17=6,18=5,40=1/2;
 3/5=7,11=9,25=1,30=1,74=-64,75=-5/1,2,3,8;
 4//1;
 5/5=2,7=100,38=5/2;
 8/6=1,10=1,108=10000/1;
 9/41=10000,42=1,70=2/14;
 6/7=2,8=2,9=2,10=2/1;
 99/5=1,9=1/99;
 Leave Link    1 at Mon Mar 21 20:16:19 2022, MaxMem=  8589934592 cpu:               0.4 elap:               0.1
 (Enter /home/sabyasachi/g16/l101.exe)
 ---------------------
 xGDB7_00001_tier4.com
 ---------------------
 Symbolic Z-matrix:
 Charge =  0 Multiplicity = 1
 7                     1.11103  -0.17705  -0.05247 
 6                    -0.12201   0.41959   0.00177 
 7                    -1.26761  -0.12144   0.0081 
 1                     1.92056   0.3678    0.1801 
 1                     1.1807   -1.16562   0.11531 
 1                    -0.0657    1.50881   0.00405 
 1                    -1.2075   -1.13913   0.00048 
 
 ITRead=  0  0  0  0  0  0  0
 MicOpt= -1 -1 -1 -1 -1 -1 -1
 NAtoms=      7 NQM=        7 NQMF=       0 NMMI=      0 NMMIF=      0
                NMic=       0 NMicF=      0.
                    Isotopes and Nuclear Properties:
 (Nuclear quadrupole moments (NQMom) in fm**2, nuclear magnetic moments (NMagM)
  in nuclear magnetons)

  Atom         1           2           3           4           5           6           7
 IAtWgt=          14          12          14           1           1           1           1
 AtmWgt=  14.0030740  12.0000000  14.0030740   1.0078250   1.0078250   1.0078250   1.0078250
 NucSpn=           2           0           2           1           1           1           1
 AtZEff=  -0.0000000  -0.0000000  -0.0000000  -0.0000000  -0.0000000  -0.0000000  -0.0000000
 NQMom=    2.0440000   0.0000000   2.0440000   0.0000000   0.0000000   0.0000000   0.0000000
 NMagM=    0.4037610   0.0000000   0.4037610   2.7928460   2.7928460   2.7928460   2.7928460
 AtZNuc=   7.0000000   6.0000000   7.0000000   1.0000000   1.0000000   1.0000000   1.0000000
 Leave Link  101 at Mon Mar 21 20:16:19 2022, MaxMem=  8589934592 cpu:               0.6 elap:               0.1
 (Enter /home/sabyasachi/g16/l202.exe)
                          Input orientation:                          
 ---------------------------------------------------------------------
 Center     Atomic      Atomic             Coordinates (Angstroms)
 Number     Number       Type             X           Y           Z
 ---------------------------------------------------------------------
      1          7           0        1.111035   -0.177046   -0.052467
      2          6           0       -0.122009    0.419593    0.001774
      3          7           0       -1.267607   -0.121443    0.008098
      4          1           0        1.920558    0.367802    0.180104
      5          1           0        1.180700   -1.165617    0.115308
      6          1           0       -0.065701    1.508813    0.004046
      7          1           0       -1.207497   -1.139126    0.000481
 ---------------------------------------------------------------------
                    Distance matrix (angstroms):
                    1          2          3          4          5
     1  N    0.000000
     2  C    1.370882   0.000000
     3  N    2.380063   1.266947   0.000000
     4  H    1.003133   2.050991   3.230069   0.000000
     5  H    1.005124   2.054953   2.663832   1.703808   0.000000
     6  H    2.056702   1.090677   2.025421   2.297418   2.952706
     7  H    2.510775   1.899445   1.019485   3.476755   2.391103
                    6          7
     6  H    0.000000
     7  H    2.883625   0.000000
 Stoichiometry    CH4N2
 Framework group  C1[X(CH4N2)]
 Deg. of freedom    15
 Full point group                 C1      NOp   1
 Largest Abelian subgroup         C1      NOp   1
 Largest concise Abelian subgroup C1      NOp   1
                         Standard orientation:                         
 ---------------------------------------------------------------------
 Center     Atomic      Atomic             Coordinates (Angstroms)
 Number     Number       Type             X           Y           Z
 ---------------------------------------------------------------------
      1          7           0        1.111035   -0.177046   -0.052467
      2          6           0       -0.122009    0.419593    0.001774
      3          7           0       -1.267607   -0.121443    0.008098
      4          1           0        1.920558    0.367802    0.180104
      5          1           0        1.180700   -1.165617    0.115308
      6          1           0       -0.065701    1.508813    0.004046
      7          1           0       -1.207497   -1.139126    0.000481
 ---------------------------------------------------------------------
 Rotational constants (GHZ):          63.7190558          10.8501695           9.2980229
 Leave Link  202 at Mon Mar 21 20:16:19 2022, MaxMem=  8589934592 cpu:               0.1 elap:               0.0
 (Enter /home/sabyasachi/g16/l301.exe)
 General basis read from cards:  (5D, 7F)
 Centers:       4      5      6      7
 S 3 1.00
     Exponent=  1.3010701000D+01 Coefficients=  1.9682158000D-02
     Exponent=  1.9622572000D+00 Coefficients=  1.3796524000D-01
     Exponent=  4.4453796000D-01 Coefficients=  4.7831935000D-01
 S 1 1.00
     Exponent=  1.2194962000D-01 Coefficients=  1.0000000000D+00
 P 1 1.00
     Exponent=  8.0000000000D-01 Coefficients=  1.0000000000D+00
 P 1 1.00
     Exponent=  1.1704099050D-01 Coefficients=  1.0000000000D+00
 ****
 Centers:       2
 S 5 1.00
     Exponent=  1.2384016938D+03 Coefficients=  5.4568832082D-03
     Exponent=  1.8629004992D+02 Coefficients=  4.0638409211D-02
     Exponent=  4.2251176346D+01 Coefficients=  1.8025593888D-01
     Exponent=  1.1676557932D+01 Coefficients=  4.6315121755D-01
     Exponent=  3.5930506482D+00 Coefficients=  4.4087173314D-01
 S 1 1.00
     Exponent=  4.0245147363D-01 Coefficients=  1.0000000000D+00
 S 1 1.00
     Exponent=  1.3090182668D-01 Coefficients=  1.0000000000D+00
 S 1 1.00
     Exponent=  6.7053540256D-02 Coefficients=  1.0000000000D+00
 P 3 1.00
     Exponent=  9.4680970621D+00 Coefficients=  3.8387871728D-02
     Exponent=  2.0103545142D+00 Coefficients=  2.1117025112D-01
     Exponent=  5.4771004707D-01 Coefficients=  5.1328172114D-01
 P 1 1.00
     Exponent=  1.5268613795D-01 Coefficients=  1.0000000000D+00
 D 1 1.00
     Exponent=  8.0000000000D-01 Coefficients=  1.0000000000D+00
 D 1 1.00
     Exponent=  1.1713185140D-01 Coefficients=  1.0000000000D+00
 ****
 Centers:       1      3
 S 5 1.00
     Exponent=  1.7128415853D+03 Coefficients= -5.3934125305D-03
     Exponent=  2.5764812677D+02 Coefficients= -4.0221581118D-02
     Exponent=  5.8458245853D+01 Coefficients= -1.7931144990D-01
     Exponent=  1.6198367905D+01 Coefficients= -4.6376317823D-01
     Exponent=  5.0052600809D+00 Coefficients= -4.4171422662D-01
 S 1 1.00
     Exponent=  5.8731856571D-01 Coefficients=  1.0000000000D+00
 S 1 1.00
     Exponent=  1.8764592253D-01 Coefficients=  1.0000000000D+00
 S 1 1.00
     Exponent=  9.6171241529D-02 Coefficients=  1.0000000000D+00
 P 3 1.00
     Exponent=  1.3571470233D+01 Coefficients= -4.0072398852D-02
     Exponent=  2.9257372874D+00 Coefficients= -2.1807045028D-01
     Exponent=  7.9927750754D-01 Coefficients= -5.1294466049D-01
 P 1 1.00
     Exponent=  2.1954348034D-01 Coefficients=  1.0000000000D+00
 D 1 1.00
     Exponent=  1.0000000000D+00 Coefficients=  1.0000000000D+00
 D 1 1.00
     Exponent=  1.6697708112D-01 Coefficients=  1.0000000000D+00
 ****
 Ernie: Thresh=  0.10000D-02 Tol=  0.10000D-05 Strict=F.
 There are    98 symmetry adapted cartesian basis functions of A   symmetry.
 There are    92 symmetry adapted basis functions of A   symmetry.
    92 basis functions,   136 primitive gaussians,    98 cartesian basis functions
    12 alpha electrons       12 beta electrons
       nuclear repulsion energy        72.2566541207 Hartrees.
 IExCor= 5042 DFT=T Ex+Corr=M11 ExCW=0 ScaHFX=  1.000000
 ScaDFX=  1.000000  1.000000  1.000000  1.000000 ScalE2=  1.000000  1.000000
 IRadAn=      5 IRanWt=     -1 IRanGd=            0 ICorTp=0 IEmpDi=  4
 HFx  wShort=  0.000000 wLong=  0.250000 cFull=  0.428000 cShort=  0.000000 cLong=  0.572000
 DFx  wShort=  0.000000 wLong=  0.250000 cFull=  0.000000 cShort=  0.000000 cLong=  1.000000
 NAtoms=    7 NActive=    7 NUniq=    7 SFac= 1.00D+00 NAtFMM=   60 NAOKFM=F Big=F
 Integral buffers will be    131072 words long.
 Raffenetti 1 integral format.
 Two-electron integral symmetry is turned on.
 Leave Link  301 at Mon Mar 21 20:16:19 2022, MaxMem=  8589934592 cpu:               0.4 elap:               0.1
 (Enter /home/sabyasachi/g16/l302.exe)
 NPDir=0 NMtPBC=     1 NCelOv=     1 NCel=       1 NClECP=     1 NCelD=      1
         NCelK=      1 NCelE2=     1 NClLst=     1 CellRange=     0.0.
 One-electron integrals computed using PRISM.
 One-electron integral symmetry used in STVInt
 NBasis=    92 RedAO= T EigKep=  3.07D-04  NBF=    92
 NBsUse=    92 1.00D-06 EigRej= -1.00D+00 NBFU=    92
 Precomputing XC quadrature grid using
 IXCGrd= 4 IRadAn=           5 IRanWt=          -1 IRanGd=           0 AccXCQ= 0.00D+00.
 Generated NRdTot=       0 NPtTot=           0 NUsed=           0 NTot=          32
 NSgBfM=    98    98    98    98    98 MxSgAt=     7 MxSgA2=     7.
 Leave Link  302 at Mon Mar 21 20:16:19 2022, MaxMem=  8589934592 cpu:               1.0 elap:               0.1
 (Enter /home/sabyasachi/g16/l303.exe)
 DipDrv:  MaxL=1.
 Leave Link  303 at Mon Mar 21 20:16:19 2022, MaxMem=  8589934592 cpu:               0.2 elap:               0.0
 (Enter /home/sabyasachi/g16/l308.exe)
 Leave Link  308 at Mon Mar 21 20:16:19 2022, MaxMem=  8589934592 cpu:               0.2 elap:               0.0
 (Enter /home/sabyasachi/g16/l401.exe)
 ExpMin= 6.71D-02 ExpMax= 1.71D+03 ExpMxC= 2.58D+02 IAcc=3 IRadAn=         5 AccDes= 0.00D+00
 Harris functional with IExCor= 1009 and IRadAn=       5 diagonalized for initial guess.
 HarFok:  IExCor= 1009 AccDes= 0.00D+00 IRadAn=         5 IDoV= 1 UseB2=F ITyADJ=14
 ICtDFT=  3500011 ScaDFX=  1.000000  1.000000  1.000000  1.000000
 FoFCou: FMM=F IPFlag=           0 FMFlag=      100000 FMFlg1=           0
         NFxFlg=           0 DoJE=T BraDBF=F KetDBF=T FulRan=T
         wScrn=  0.000000 ICntrl=       500 IOpCl=  0 I1Cent=   200000004 NGrid=           0
         NMat0=    1 NMatS0=      1 NMatT0=    0 NMatD0=    1 NMtDS0=    0 NMtDT0=    0
 Petite list used in FoFCou.
 Harris En= -146.318555853258    
 JPrj=0 DoOrth=F DoCkMO=F.
 Leave Link  401 at Mon Mar 21 20:16:19 2022, MaxMem=  8589934592 cpu:               2.5 elap:               0.3
 (Enter /home/sabyasachi/g16/l502.exe)
 Keep R1 ints in memory in canonical form, NReq=26095104.
 FoFCou: FMM=F IPFlag=           0 FMFlag=           0 FMFlg1=           0
         NFxFlg=           0 DoJE=F BraDBF=F KetDBF=F FulRan=T
         wScrn=  0.000000 ICntrl=       600 IOpCl=  0 I1Cent=           0 NGrid=           0
         NMat0=    1 NMatS0=   4278 NMatT0=    0 NMatD0=    1 NMtDS0=    0 NMtDT0=    0
 Symmetry not used in FoFCou.
 Two-electron integral symmetry not used.
 Closed shell SCF:
 Using DIIS extrapolation, IDIIS=  1040.
 NGot=  8589934592 LenX=  8571607788 LenY=  8571597743
 Requested convergence on RMS density matrix=1.00D-08 within 100 cycles.
 Requested convergence on MAX density matrix=1.00D-06.
 Requested convergence on             energy=1.00D-06.
 No special actions if energy rises.
 Integral accuracy reduced to 1.0D-05 until final iterations.

 Cycle   1  Pass 0  IDiag  1:
 E= -149.754140780181    
 DIIS: error= 1.90D-02 at cycle   1 NSaved=   1.
 NSaved= 1 IEnMin= 1 EnMin= -149.754140780181     IErMin= 1 ErrMin= 1.90D-02
 ErrMax= 1.90D-02  0.00D+00 EMaxC= 1.00D-01 BMatC= 6.81D-02 BMatP= 6.81D-02
 IDIUse=3 WtCom= 8.10D-01 WtEn= 1.90D-01
 Coeff-Com:  0.100D+01
 Coeff-En:   0.100D+01
 Coeff:      0.100D+01
 Gap=     0.448 Goal=   None    Shift=    0.000
 GapD=    0.448 DampG=2.000 DampE=0.500 DampFc=1.0000 IDamp=-1.
 RMSDP=1.20D-02 MaxDP=4.33D-01              OVMax= 1.42D-01

 Cycle   2  Pass 0  IDiag  1:
 E= -149.771143961690     Delta-E=       -0.017003181509 Rises=F Damp=F
 DIIS: error= 1.61D-02 at cycle   2 NSaved=   2.
 NSaved= 2 IEnMin= 2 EnMin= -149.771143961690     IErMin= 2 ErrMin= 1.61D-02
 ErrMax= 1.61D-02  0.00D+00 EMaxC= 1.00D-01 BMatC= 5.61D-02 BMatP= 6.81D-02
 IDIUse=3 WtCom= 8.39D-01 WtEn= 1.61D-01
 Coeff-Com:  0.474D+00 0.526D+00
 Coeff-En:   0.411D+00 0.589D+00
 Coeff:      0.464D+00 0.536D+00
 Gap=     0.426 Goal=   None    Shift=    0.000
 RMSDP=9.10D-03 MaxDP=3.32D-01 DE=-1.70D-02 OVMax= 6.48D-02

 Cycle   3  Pass 0  IDiag  1:
 E= -149.817454406772     Delta-E=       -0.046310445083 Rises=F Damp=F
 DIIS: error= 2.58D-03 at cycle   3 NSaved=   3.
 NSaved= 3 IEnMin= 3 EnMin= -149.817454406772     IErMin= 3 ErrMin= 2.58D-03
 ErrMax= 2.58D-03  0.00D+00 EMaxC= 1.00D-01 BMatC= 1.26D-03 BMatP= 5.61D-02
 IDIUse=3 WtCom= 9.74D-01 WtEn= 2.58D-02
 Coeff-Com:  0.128D+00 0.185D+00 0.687D+00
 Coeff-En:   0.000D+00 0.000D+00 0.100D+01
 Coeff:      0.124D+00 0.181D+00 0.695D+00
 Gap=     0.406 Goal=   None    Shift=    0.000
 RMSDP=6.01D-04 MaxDP=1.05D-02 DE=-4.63D-02 OVMax= 1.95D-02

 Cycle   4  Pass 0  IDiag  1:
 E= -149.818453515735     Delta-E=       -0.000999108963 Rises=F Damp=F
 DIIS: error= 1.03D-03 at cycle   4 NSaved=   4.
 NSaved= 4 IEnMin= 4 EnMin= -149.818453515735     IErMin= 4 ErrMin= 1.03D-03
 ErrMax= 1.03D-03  0.00D+00 EMaxC= 1.00D-01 BMatC= 2.31D-04 BMatP= 1.26D-03
 IDIUse=3 WtCom= 9.90D-01 WtEn= 1.03D-02
 Coeff-Com: -0.174D-01-0.821D-02 0.295D+00 0.730D+00
 Coeff-En:   0.000D+00 0.000D+00 0.253D-01 0.975D+00
 Coeff:     -0.172D-01-0.812D-02 0.292D+00 0.733D+00
 Gap=     0.405 Goal=   None    Shift=    0.000
 RMSDP=3.93D-04 MaxDP=1.42D-02 DE=-9.99D-04 OVMax= 4.27D-03

 Cycle   5  Pass 0  IDiag  1:
 E= -149.818666660796     Delta-E=       -0.000213145060 Rises=F Damp=F
 DIIS: error= 2.11D-04 at cycle   5 NSaved=   5.
 NSaved= 5 IEnMin= 5 EnMin= -149.818666660796     IErMin= 5 ErrMin= 2.11D-04
 ErrMax= 2.11D-04  0.00D+00 EMaxC= 1.00D-01 BMatC= 7.61D-06 BMatP= 2.31D-04
 IDIUse=3 WtCom= 9.98D-01 WtEn= 2.11D-03
 Coeff-Com: -0.966D-02-0.109D-01 0.425D-01 0.168D+00 0.810D+00
 Coeff-En:   0.000D+00 0.000D+00 0.000D+00 0.000D+00 0.100D+01
 Coeff:     -0.964D-02-0.109D-01 0.424D-01 0.168D+00 0.810D+00
 Gap=     0.405 Goal=   None    Shift=    0.000
 RMSDP=9.38D-05 MaxDP=1.83D-03 DE=-2.13D-04 OVMax= 2.14D-03

 Cycle   6  Pass 0  IDiag  1:
 E= -149.818680173183     Delta-E=       -0.000013512387 Rises=F Damp=F
 DIIS: error= 9.39D-05 at cycle   6 NSaved=   6.
 NSaved= 6 IEnMin= 6 EnMin= -149.818680173183     IErMin= 6 ErrMin= 9.39D-05
 ErrMax= 9.39D-05  0.00D+00 EMaxC= 1.00D-01 BMatC= 1.90D-06 BMatP= 7.61D-06
 IDIUse=1 WtCom= 1.00D+00 WtEn= 0.00D+00
 Coeff-Com:  0.186D-03-0.212D-02-0.421D-01-0.113D+00 0.210D+00 0.947D+00
 Coeff:      0.186D-03-0.212D-02-0.421D-01-0.113D+00 0.210D+00 0.947D+00
 Gap=     0.406 Goal=   None    Shift=    0.000
 RMSDP=6.90D-05 MaxDP=1.77D-03 DE=-1.35D-05 OVMax= 1.23D-03

 Cycle   7  Pass 0  IDiag  1:
 E= -149.818684087512     Delta-E=       -0.000003914329 Rises=F Damp=F
 DIIS: error= 2.52D-05 at cycle   7 NSaved=   7.
 NSaved= 7 IEnMin= 7 EnMin= -149.818684087512     IErMin= 7 ErrMin= 2.52D-05
 ErrMax= 2.52D-05  0.00D+00 EMaxC= 1.00D-01 BMatC= 1.20D-07 BMatP= 1.90D-06
 IDIUse=1 WtCom= 1.00D+00 WtEn= 0.00D+00
 Coeff-Com:  0.799D-03 0.557D-03-0.924D-03-0.213D-01-0.614D-01-0.100D-01
 Coeff-Com:  0.109D+01
 Coeff:      0.799D-03 0.557D-03-0.924D-03-0.213D-01-0.614D-01-0.100D-01
 Coeff:      0.109D+01
 Gap=     0.406 Goal=   None    Shift=    0.000
 RMSDP=1.97D-05 MaxDP=2.75D-04 DE=-3.91D-06 OVMax= 4.38D-04

 Cycle   8  Pass 0  IDiag  1:
 E= -149.818684412076     Delta-E=       -0.000000324565 Rises=F Damp=F
 DIIS: error= 6.33D-06 at cycle   8 NSaved=   8.
 NSaved= 8 IEnMin= 8 EnMin= -149.818684412076     IErMin= 8 ErrMin= 6.33D-06
 ErrMax= 6.33D-06  0.00D+00 EMaxC= 1.00D-01 BMatC= 9.56D-09 BMatP= 1.20D-07
 IDIUse=1 WtCom= 1.00D+00 WtEn= 0.00D+00
 Coeff-Com: -0.662D-04 0.458D-05 0.437D-02 0.808D-02-0.160D-01-0.838D-01
 Coeff-Com:  0.515D-02 0.108D+01
 Coeff:     -0.662D-04 0.458D-05 0.437D-02 0.808D-02-0.160D-01-0.838D-01
 Coeff:      0.515D-02 0.108D+01
 Gap=     0.406 Goal=   None    Shift=    0.000
 RMSDP=4.35D-06 MaxDP=6.32D-05 DE=-3.25D-07 OVMax= 1.03D-04

 Initial convergence to 1.0D-05 achieved.  Increase integral accuracy.
 Cycle   9  Pass 1  IDiag  1:
 E= -149.818714646629     Delta-E=       -0.000030234552 Rises=F Damp=F
 DIIS: error= 2.02D-05 at cycle   1 NSaved=   1.
 NSaved= 1 IEnMin= 1 EnMin= -149.818714646629     IErMin= 1 ErrMin= 2.02D-05
 ErrMax= 2.02D-05  0.00D+00 EMaxC= 1.00D-01 BMatC= 1.34D-07 BMatP= 1.34D-07
 IDIUse=1 WtCom= 1.00D+00 WtEn= 0.00D+00
 Coeff-Com:  0.100D+01
 Coeff:      0.100D+01
 Gap=     0.406 Goal=   None    Shift=    0.000
 RMSDP=4.35D-06 MaxDP=6.32D-05 DE=-3.02D-05 OVMax= 9.04D-05

 Cycle  10  Pass 1  IDiag  1:
 E= -149.818714770232     Delta-E=       -0.000000123603 Rises=F Damp=F
 DIIS: error= 3.63D-06 at cycle   2 NSaved=   2.
 NSaved= 2 IEnMin= 2 EnMin= -149.818714770232     IErMin= 2 ErrMin= 3.63D-06
 ErrMax= 3.63D-06  0.00D+00 EMaxC= 1.00D-01 BMatC= 3.18D-09 BMatP= 1.34D-07
 IDIUse=1 WtCom= 1.00D+00 WtEn= 0.00D+00
 Coeff-Com: -0.730D-01 0.107D+01
 Coeff:     -0.730D-01 0.107D+01
 Gap=     0.406 Goal=   None    Shift=    0.000
 RMSDP=3.67D-06 MaxDP=5.18D-05 DE=-1.24D-07 OVMax= 2.73D-05

 Cycle  11  Pass 1  IDiag  1:
 E= -149.818714773058     Delta-E=       -0.000000002827 Rises=F Damp=F
 DIIS: error= 2.25D-06 at cycle   3 NSaved=   3.
 NSaved= 3 IEnMin= 3 EnMin= -149.818714773058     IErMin= 3 ErrMin= 2.25D-06
 ErrMax= 2.25D-06  0.00D+00 EMaxC= 1.00D-01 BMatC= 1.24D-09 BMatP= 3.18D-09
 IDIUse=1 WtCom= 1.00D+00 WtEn= 0.00D+00
 Coeff-Com: -0.464D-01 0.431D+00 0.615D+00
 Coeff:     -0.464D-01 0.431D+00 0.615D+00
 Gap=     0.406 Goal=   None    Shift=    0.000
 RMSDP=1.39D-06 MaxDP=3.93D-05 DE=-2.83D-09 OVMax= 9.88D-06

 Cycle  12  Pass 1  IDiag  1:
 E= -149.818714774101     Delta-E=       -0.000000001043 Rises=F Damp=F
 DIIS: error= 6.64D-07 at cycle   4 NSaved=   4.
 NSaved= 4 IEnMin= 4 EnMin= -149.818714774101     IErMin= 4 ErrMin= 6.64D-07
 ErrMax= 6.64D-07  0.00D+00 EMaxC= 1.00D-01 BMatC= 5.77D-11 BMatP= 1.24D-09
 IDIUse=1 WtCom= 1.00D+00 WtEn= 0.00D+00
 Coeff-Com: -0.923D-02 0.554D-01 0.163D+00 0.791D+00
 Coeff:     -0.923D-02 0.554D-01 0.163D+00 0.791D+00
 Gap=     0.406 Goal=   None    Shift=    0.000
 RMSDP=2.18D-07 MaxDP=2.98D-06 DE=-1.04D-09 OVMax= 5.59D-06

 Cycle  13  Pass 1  IDiag  1:
 E= -149.818714774161     Delta-E=       -0.000000000060 Rises=F Damp=F
 DIIS: error= 3.76D-07 at cycle   5 NSaved=   5.
 NSaved= 5 IEnMin= 5 EnMin= -149.818714774161     IErMin= 5 ErrMin= 3.76D-07
 ErrMax= 3.76D-07  0.00D+00 EMaxC= 1.00D-01 BMatC= 2.07D-11 BMatP= 5.77D-11
 IDIUse=1 WtCom= 1.00D+00 WtEn= 0.00D+00
 Coeff-Com:  0.343D-02-0.463D-01-0.392D-01 0.367D+00 0.715D+00
 Coeff:      0.343D-02-0.463D-01-0.392D-01 0.367D+00 0.715D+00
 Gap=     0.406 Goal=   None    Shift=    0.000
 RMSDP=1.58D-07 MaxDP=3.66D-06 DE=-6.00D-11 OVMax= 1.52D-06

 Cycle  14  Pass 1  IDiag  1:
 E= -149.818714774184     Delta-E=       -0.000000000023 Rises=F Damp=F
 DIIS: error= 6.94D-08 at cycle   6 NSaved=   6.
 NSaved= 6 IEnMin= 6 EnMin= -149.818714774184     IErMin= 6 ErrMin= 6.94D-08
 ErrMax= 6.94D-08  0.00D+00 EMaxC= 1.00D-01 BMatC= 6.88D-13 BMatP= 2.07D-11
 IDIUse=1 WtCom= 1.00D+00 WtEn= 0.00D+00
 Coeff-Com:  0.169D-02-0.145D-01-0.261D-01-0.103D-01 0.897D-01 0.959D+00
 Coeff:      0.169D-02-0.145D-01-0.261D-01-0.103D-01 0.897D-01 0.959D+00
 Gap=     0.406 Goal=   None    Shift=    0.000
 RMSDP=4.16D-08 MaxDP=9.24D-07 DE=-2.28D-11 OVMax= 9.46D-07

 Cycle  15  Pass 1  IDiag  1:
 E= -149.818714774188     Delta-E=       -0.000000000004 Rises=F Damp=F
 DIIS: error= 2.48D-08 at cycle   7 NSaved=   7.
 NSaved= 7 IEnMin= 7 EnMin= -149.818714774188     IErMin= 7 ErrMin= 2.48D-08
 ErrMax= 2.48D-08  0.00D+00 EMaxC= 1.00D-01 BMatC= 1.75D-13 BMatP= 6.88D-13
 IDIUse=1 WtCom= 1.00D+00 WtEn= 0.00D+00
 Coeff-Com:  0.261D-03-0.483D-03-0.500D-02-0.397D-01-0.581D-01 0.309D+00
 Coeff-Com:  0.794D+00
 Coeff:      0.261D-03-0.483D-03-0.500D-02-0.397D-01-0.581D-01 0.309D+00
 Coeff:      0.794D+00
 Gap=     0.406 Goal=   None    Shift=    0.000
 RMSDP=1.32D-08 MaxDP=1.98D-07 DE=-3.81D-12 OVMax= 2.71D-07

 Cycle  16  Pass 1  IDiag  1:
 E= -149.818714774184     Delta-E=        0.000000000003 Rises=F Damp=F
 DIIS: error= 1.01D-08 at cycle   8 NSaved=   8.
 NSaved= 8 IEnMin= 7 EnMin= -149.818714774188     IErMin= 8 ErrMin= 1.01D-08
 ErrMax= 1.01D-08  0.00D+00 EMaxC= 1.00D-01 BMatC= 1.42D-14 BMatP= 1.75D-13
 IDIUse=1 WtCom= 1.00D+00 WtEn= 0.00D+00
 Coeff-Com: -0.171D-03 0.181D-02 0.257D-02-0.376D-02-0.280D-01-0.736D-01
 Coeff-Com:  0.174D+00 0.927D+00
 Coeff:     -0.171D-03 0.181D-02 0.257D-02-0.376D-02-0.280D-01-0.736D-01
 Coeff:      0.174D+00 0.927D+00
 Gap=     0.406 Goal=   None    Shift=    0.000
 RMSDP=6.18D-09 MaxDP=9.36D-08 DE= 3.27D-12 OVMax= 1.32D-07

 SCF Done:  E(RM11) =  -149.818714774     A.U. after   16 cycles
            NFock= 16  Conv=0.62D-08     -V/T= 2.0112
 KE= 1.481650478326D+02 PE=-4.929829219762D+02 EE= 1.227425052487D+02
 Leave Link  502 at Mon Mar 21 20:16:24 2022, MaxMem=  8589934592 cpu:              35.5 elap:               4.6
 (Enter /home/sabyasachi/g16/l801.exe)
 DoSCS=F DFT=T ScalE2(SS,OS)=  1.000000  1.000000
 ExpMin= 6.71D-02 ExpMax= 1.71D+03 ExpMxC= 2.58D+02 IAcc=3 IRadAn=         5 AccDes= 0.00D+00
 HarFok:  IExCor=  205 AccDes= 0.00D+00 IRadAn=         5 IDoV=-2 UseB2=F ITyADJ=14
 ICtDFT= 12500011 ScaDFX=  1.000000  1.000000  1.000000  1.000000
 Largest valence mixing into a core orbital is  7.25D-05
 Largest core mixing into a valence orbital is  1.53D-05
 Range of M.O.s used for correlation:     4    92
 NBasis=    92 NAE=    12 NBE=    12 NFC=     3 NFV=     0
 NROrb=     89 NOA=     9 NOB=     9 NVA=    80 NVB=    80

 **** Warning!!: The largest alpha MO coefficient is  0.16798454D+02

 Leave Link  801 at Mon Mar 21 20:16:24 2022, MaxMem=  8589934592 cpu:               0.5 elap:               0.1
 (Enter /home/sabyasachi/g16/l914.exe)
 RHF ground state
 Keep R1, R2, and R3 ints in memory in canonical form, NReq=629352320.
 FoFCou: FMM=F IPFlag=           0 FMFlag=           0 FMFlg1=           0
         NFxFlg=           0 DoJE=F BraDBF=F KetDBF=F FulRan=T
         wScrn=  0.000000 ICntrl=       600 IOpCl=  0 I1Cent=           0 NGrid=           0
         NMat0=    1 NMatS0=   4278 NMatT0=    0 NMatD0=    1 NMtDS0=    0 NMtDT0=    0
 Symmetry not used in FoFCou.
 Two-electron integral symmetry not used.
 MDV=  8589934592 DFT=T DoStab=F Mixed=T DoRPA=T DoScal=F NonHer=T
 Making orbital integer symmetry assigments:
 Orbital symmetries:
       Occupied  (A) (A) (A) (A) (A) (A) (A) (A) (A) (A) (A) (A)
       Virtual   (A) (A) (A) (A) (A) (A) (A) (A) (A) (A) (A) (A)
                 (A) (A) (A) (A) (A) (A) (A) (A) (A) (A) (A) (A)
                 (A) (A) (A) (A) (A) (A) (A) (A) (A) (A) (A) (A)
                 (A) (A) (A) (A) (A) (A) (A) (A) (A) (A) (A) (A)
                 (A) (A) (A) (A) (A) (A) (A) (A) (A) (A) (A) (A)
                 (A) (A) (A) (A) (A) (A) (A) (A) (A) (A) (A) (A)
                 (A) (A) (A) (A) (A) (A) (A) (A)
   720 initial guesses have been made.
 Convergence on wavefunction:    0.001000000000000
 Davidson Disk Diagonalization:  ConvIn= 1.00D-03 SkipCon=T Conv= 1.00D-03.
 Max sub-space:  4320 roots to seek:  1440 dimension of matrix:         1440
 *** WARNING: Number of orthogonal guesses is          720
 Iteration     1 Dimension   720 NMult     0 NNew    720
 CISAX will form   720 AO SS matrices at one time.
 NMat=   720 NSing=   720 JSym2X= 0.
 New state      1 was old state      8
 New state      2 was old state      1
 New state      4 was old state      6
 New state      5 was old state      2
 New state      6 was old state      4
 New state      7 was old state      5
 New state      8 was old state      7
 New state     10 was old state     11
 New state     11 was old state     29
 New state     12 was old state     14
 New state     13 was old state     10
 New state     14 was old state     12
 New state     15 was old state     13
 New state     16 was old state     15
 New state     17 was old state     24
 New state     19 was old state     23
 New state     20 was old state     21
 New state     21 was old state     17
 New state     22 was old state     19
 New state     23 was old state     16
 New state     24 was old state     27
 New state     25 was old state     26
 New state     26 was old state     20
 New state     27 was old state     22
 New state     28 was old state     25
 New state     29 was old state     30
 New state     30 was old state     28
 New state     31 was old state     33
 New state     32 was old state     31
 New state     33 was old state     32
 New state     34 was old state     55
 New state     35 was old state     34
 New state     36 was old state     35
 New state     37 was old state     36
 New state     38 was old state     41
 New state     39 was old state     37
 New state     40 was old state     38
 New state     41 was old state     40
 New state     42 was old state     39
 New state     43 was old state     42
 New state     44 was old state     43
 New state     46 was old state     48
 New state     47 was old state     49
 New state     48 was old state     68
 New state     49 was old state     51
 New state     50 was old state     46
 New state     51 was old state     53
 New state     52 was old state     50
 New state     53 was old state     47
 New state     55 was old state     58
 New state     56 was old state     44
 New state     58 was old state     56
 New state     59 was old state     61
 New state     61 was old state     52
 New state     63 was old state     59
 New state     64 was old state     65
 New state     65 was old state     73
 New state     66 was old state     63
 New state     67 was old state     74
 New state     68 was old state     66
 New state     69 was old state     71
 New state     70 was old state     67
 New state     71 was old state     64
 New state     72 was old state     69
 New state     73 was old state     70
 New state     74 was old state     76
 New state     75 was old state     83
 New state     76 was old state     78
 New state     78 was old state     95
 New state     79 was old state     72
 New state     80 was old state     81
 New state     81 was old state     80
 New state     82 was old state     79
 New state     83 was old state     75
 New state     84 was old state     94
 New state     85 was old state     84
 New state     87 was old state     82
 New state     88 was old state     89
 New state     89 was old state     88
 New state     90 was old state     91
 New state     91 was old state    106
 New state     92 was old state     87
 New state     93 was old state     99
 New state     94 was old state     90
 New state     95 was old state    100
 New state     96 was old state     85
 New state     97 was old state    103
 New state     98 was old state     97
 New state     99 was old state     96
 New state    100 was old state     98
 New state    101 was old state    105
 New state    102 was old state    101
 New state    103 was old state    109
 New state    105 was old state    102
 New state    106 was old state     93
 New state    107 was old state    108
 New state    108 was old state    119
 New state    109 was old state    113
 New state    110 was old state    107
 New state    111 was old state    116
 New state    112 was old state    114
 New state    113 was old state    123
 New state    114 was old state    117
 New state    115 was old state    111
 New state    116 was old state    110
 New state    117 was old state    127
 New state    118 was old state    132
 New state    119 was old state    112
 New state    120 was old state    122
 New state    121 was old state    118
 New state    122 was old state    115
 New state    123 was old state    120
 New state    125 was old state    126
 New state    126 was old state    129
 New state    127 was old state    136
 New state    128 was old state    125
 New state    129 was old state    121
 New state    130 was old state    128
 New state    132 was old state    138
 New state    133 was old state    130
 New state    134 was old state    135
 New state    135 was old state    133
 New state    136 was old state    142
 New state    137 was old state    134
 New state    138 was old state    146
 New state    139 was old state    144
 New state    140 was old state    137
 New state    141 was old state    139
 New state    142 was old state    151
 New state    143 was old state    140
 New state    144 was old state    145
 New state    145 was old state    153
 New state    146 was old state    141
 New state    147 was old state    155
 New state    148 was old state    143
 New state    150 was old state    160
 New state    151 was old state    150
 New state    152 was old state    148
 New state    153 was old state    147
 New state    154 was old state    159
 New state    155 was old state    162
 New state    156 was old state    164
 New state    157 was old state    182
 New state    158 was old state    154
 New state    159 was old state    157
 New state    160 was old state    163
 New state    161 was old state    156
 New state    162 was old state    152
 New state    163 was old state    161
 New state    164 was old state    165
 New state    165 was old state    167
 New state    166 was old state    169
 New state    167 was old state    158
 New state    168 was old state    166
 New state    169 was old state    176
 New state    170 was old state    186
 New state    171 was old state    173
 New state    172 was old state    177
 New state    173 was old state    168
 New state    174 was old state    175
 New state    175 was old state    172
 New state    176 was old state    170
 New state    177 was old state    180
 New state    178 was old state    187
 New state    179 was old state    188
 New state    180 was old state    174
 New state    181 was old state    185
 New state    182 was old state    181
 New state    183 was old state    193
 New state    184 was old state    190
 New state    185 was old state    184
 New state    186 was old state    183
 New state    187 was old state    189
 New state    188 was old state    196
 New state    189 was old state    179
 New state    190 was old state    194
 New state    191 was old state    208
 New state    192 was old state    200
 New state    193 was old state    197
 New state    194 was old state    225
 New state    195 was old state    191
 New state    196 was old state    195
 New state    197 was old state    202
 New state    198 was old state    209
 New state    199 was old state    192
 New state    200 was old state    203
 New state    201 was old state    206
 New state    202 was old state    198
 New state    203 was old state    210
 New state    204 was old state    215
 New state    205 was old state    204
 New state    206 was old state    223
 New state    207 was old state    199
 New state    208 was old state    201
 New state    209 was old state    205
 New state    210 was old state    212
 New state    211 was old state    207
 New state    212 was old state    213
 New state    213 was old state    222
 New state    214 was old state    211
 New state    215 was old state    217
 New state    216 was old state    218
 New state    217 was old state    231
 New state    218 was old state    219
 New state    219 was old state    226
 New state    220 was old state    221
 New state    221 was old state    214
 New state    222 was old state    227
 New state    223 was old state    232
 New state    225 was old state    229
 New state    226 was old state    220
 New state    227 was old state    216
 New state    229 was old state    235
 New state    230 was old state    233
 New state    231 was old state    230
 New state    232 was old state    255
 New state    233 was old state    244
 New state    234 was old state    249
 New state    235 was old state    236
 New state    236 was old state    237
 New state    237 was old state    240
 New state    238 was old state    234
 New state    239 was old state    243
 New state    240 was old state    238
 New state    241 was old state    242
 New state    242 was old state    241
 New state    243 was old state    248
 New state    244 was old state    252
 New state    245 was old state    239
 New state    246 was old state    261
 New state    248 was old state    245
 New state    249 was old state    260
 New state    251 was old state    258
 New state    252 was old state    246
 New state    253 was old state    268
 New state    254 was old state    251
 New state    255 was old state    253
 New state    256 was old state    262
 New state    257 was old state    256
 New state    258 was old state    257
 New state    259 was old state    254
 New state    260 was old state    265
 New state    261 was old state    275
 New state    262 was old state    263
 New state    263 was old state    259
 New state    264 was old state    271
 New state    265 was old state    266
 New state    266 was old state    264
 New state    267 was old state    272
 New state    268 was old state    269
 No map to state    269
 New state    270 was old state    267
 New state    271 was old state    278
 New state    272 was old state    273
 New state    273 was old state    270
 New state    274 was old state    283
 New state    275 was old state    274
 New state    277 was old state    285
 New state    278 was old state    292
 New state    280 was old state    284
 New state    281 was old state    277
 New state    282 was old state    280
 New state    283 was old state    287
 New state    284 was old state    282
 New state    285 was old state    289
 New state    286 was old state    291
 New state    287 was old state    281
 New state    288 was old state    317
 New state    289 was old state    286
 New state    290 was old state    302
 New state    291 was old state    301
 New state    292 was old state    294
 New state    293 was old state    296
 New state    294 was old state    288
 New state    295 was old state    290
 New state    296 was old state    293
 New state    297 was old state    295
 New state    298 was old state    297
 New state    299 was old state    306
 New state    300 was old state    298
 New state    301 was old state    312
 New state    302 was old state    315
 New state    303 was old state    299
 New state    304 was old state    303
 New state    305 was old state    309
 New state    306 was old state    300
 New state    307 was old state    319
 New state    308 was old state    311
 New state    309 was old state    320
 New state    311 was old state    304
 New state    312 was old state    305
 New state    313 was old state    307
 New state    314 was old state    308
 New state    315 was old state    325
 New state    316 was old state    313
 New state    317 was old state    314
 New state    318 was old state    326
 New state    319 was old state    318
 New state    320 was old state    316
 New state    321 was old state    327
 New state    322 was old state    333
 New state    323 was old state    321
 New state    324 was old state    322
 New state    325 was old state    331
 New state    326 was old state    324
 New state    327 was old state    329
 New state    328 was old state    323
 New state    329 was old state    335
 New state    330 was old state    352
 New state    331 was old state    332
 New state    332 was old state    328
 New state    333 was old state    337
 New state    334 was old state    330
 New state    335 was old state    334
 New state    337 was old state    346
 New state    338 was old state    339
 New state    339 was old state    340
 New state    340 was old state    341
 New state    341 was old state    342
 New state    342 was old state    343
 New state    343 was old state    349
 New state    344 was old state    338
 New state    345 was old state    348
 New state    346 was old state    347
 New state    347 was old state    365
 New state    348 was old state    344
 New state    349 was old state    353
 New state    350 was old state    345
 New state    351 was old state    350
 New state    352 was old state    351
 New state    353 was old state    355
 New state    354 was old state    356
 New state    355 was old state    357
 New state    356 was old state    360
 New state    357 was old state    358
 New state    358 was old state    363
 New state    359 was old state    354
 New state    360 was old state    362
 New state    361 was old state    366
 New state    362 was old state    359
 New state    363 was old state    361
 New state    365 was old state    371
 New state    366 was old state    370
 New state    367 was old state    368
 New state    368 was old state    376
 New state    369 was old state    367
 New state    370 was old state    369
 New state    371 was old state    375
 New state    372 was old state    380
 New state    373 was old state    377
 New state    374 was old state    372
 New state    375 was old state    383
 New state    376 was old state    378
 New state    377 was old state    373
 New state    378 was old state    374
 New state    380 was old state    381
 New state    381 was old state    393
 New state    383 was old state    389
 New state    384 was old state    387
 New state    385 was old state    388
 New state    386 was old state    384
 New state    387 was old state    385
 New state    388 was old state    390
 New state    389 was old state    392
 New state    390 was old state    403
 New state    391 was old state    395
 New state    392 was old state    402
 New state    393 was old state    398
 New state    394 was old state    391
 New state    395 was old state    405
 New state    396 was old state    401
 New state    397 was old state    406
 New state    398 was old state    400
 New state    399 was old state    394
 New state    400 was old state    404
 New state    401 was old state    396
 New state    402 was old state    399
 New state    403 was old state    397
 New state    404 was old state    413
 New state    405 was old state    409
 New state    406 was old state    410
 New state    407 was old state    412
 New state    408 was old state    427
 New state    409 was old state    408
 New state    410 was old state    407
 New state    411 was old state    414
 New state    412 was old state    420
 New state    413 was old state    415
 New state    414 was old state    411
 New state    415 was old state    416
 New state    416 was old state    423
 New state    418 was old state    419
 No map to state    419
 New state    420 was old state    421
 New state    421 was old state    422
 New state    422 was old state    418
 No map to state    423
 New state    424 was old state    428
 New state    425 was old state    424
 New state    427 was old state    429
 New state    428 was old state    425
 New state    429 was old state    430
 New state    430 was old state    432
 New state    431 was old state    435
 New state    432 was old state    438
 New state    433 was old state    436
 New state    434 was old state    431
 New state    435 was old state    433
 New state    436 was old state    437
 New state    437 was old state    434
 New state    438 was old state    439
 New state    439 was old state    444
 New state    441 was old state    442
 New state    442 was old state    441
 New state    443 was old state    465
 New state    444 was old state    443
 New state    446 was old state    447
 New state    447 was old state    449
 New state    448 was old state    446
 New state    449 was old state    452
 New state    450 was old state    451
 New state    451 was old state    450
 New state    452 was old state    458
 New state    453 was old state    461
 New state    454 was old state    457
 New state    455 was old state    453
 New state    456 was old state    454
 New state    457 was old state    459
 New state    458 was old state    455
 New state    459 was old state    464
 No map to state    460
 New state    461 was old state    466
 New state    462 was old state    472
 New state    463 was old state    460
 New state    464 was old state    456
 New state    465 was old state    463
 New state    466 was old state    467
 New state    467 was old state    462
 New state    472 was old state    473
 New state    473 was old state    477
 New state    474 was old state    478
 New state    475 was old state    481
 New state    476 was old state    474
 New state    477 was old state    476
 New state    478 was old state    479
 New state    479 was old state    475
 New state    480 was old state    483
 New state    481 was old state    480
 New state    482 was old state    486
 New state    483 was old state    490
 New state    484 was old state    482
 New state    485 was old state    487
 New state    486 was old state    484
 New state    487 was old state    488
 New state    488 was old state    485
 New state    489 was old state    492
 New state    490 was old state    491
 New state    491 was old state    489
 No map to state    492
 New state    494 was old state    495
 New state    495 was old state    498
 New state    496 was old state    497
 New state    497 was old state    499
 New state    498 was old state    494
 New state    499 was old state    496
 New state    500 was old state    502
 New state    501 was old state    500
 New state    502 was old state    506
 New state    504 was old state    501
 New state    506 was old state    508
 New state    507 was old state    510
 New state    508 was old state    509
 New state    509 was old state    512
 New state    510 was old state    507
 New state    512 was old state    516
 New state    513 was old state    517
 New state    514 was old state    513
 New state    515 was old state    522
 New state    516 was old state    518
 New state    517 was old state    519
 New state    518 was old state    515
 New state    519 was old state    514
 New state    520 was old state    528
 New state    521 was old state    520
 New state    522 was old state    521
 New state    523 was old state    525
 New state    524 was old state    523
 New state    525 was old state    526
 New state    526 was old state    529
 New state    527 was old state    524
 New state    528 was old state    527
 New state    529 was old state    530
 New state    530 was old state    535
 New state    531 was old state    533
 New state    533 was old state    536
 New state    535 was old state    537
 New state    536 was old state    531
 New state    537 was old state    538
 New state    538 was old state    539
 New state    539 was old state    544
 New state    544 was old state    547
 New state    545 was old state    546
 New state    546 was old state    545
 New state    547 was old state    549
 New state    549 was old state    553
 New state    550 was old state    552
 New state    551 was old state    550
 New state    552 was old state    558
 New state    553 was old state    555
 New state    554 was old state    556
 New state    555 was old state    551
 New state    556 was old state    557
 New state    557 was old state    559
 New state    558 was old state    554
 New state    559 was old state    560
 New state    560 was old state    561
 New state    561 was old state    571
 New state    562 was old state    566
 New state    563 was old state    565
 New state    564 was old state    562
 New state    565 was old state    563
 New state    566 was old state    568
 New state    567 was old state    569
 New state    568 was old state    564
 New state    569 was old state    567
 New state    570 was old state    574
 New state    571 was old state    579
 New state    572 was old state    573
 New state    573 was old state    572
 New state    574 was old state    575
 New state    575 was old state    577
 New state    576 was old state    578
 New state    577 was old state    576
 New state    578 was old state    581
 New state    579 was old state    580
 New state    580 was old state    584
 New state    581 was old state    582
 No map to state    582
 New state    584 was old state    588
 New state    585 was old state    586
 New state    586 was old state    585
 New state    588 was old state    589
 New state    589 was old state    590
 New state    590 was old state    596
 New state    592 was old state    597
 New state    595 was old state    592
 New state    596 was old state    595
 New state    597 was old state    605
 New state    598 was old state    599
 New state    599 was old state    598
 New state    601 was old state    603
 New state    603 was old state    607
 New state    604 was old state    601
 New state    605 was old state    604
 New state    607 was old state    609
 New state    608 was old state    611
 New state    609 was old state    608
 New state    610 was old state    613
 New state    611 was old state    610
 New state    612 was old state    616
 New state    613 was old state    614
 New state    614 was old state    612
 New state    615 was old state    618
 New state    616 was old state    627
 New state    618 was old state    615
 New state    621 was old state    622
 New state    622 was old state    623
 New state    623 was old state    621
 New state    624 was old state    626
 New state    625 was old state    624
 New state    626 was old state    629
 New state    627 was old state    628
 New state    628 was old state    625
 New state    629 was old state    630
 New state    630 was old state    635
 New state    631 was old state    634
 New state    633 was old state    631
 New state    634 was old state    633
 New state    635 was old state    637
 New state    636 was old state    638
 New state    637 was old state    636
 New state    638 was old state    639
 New state    639 was old state    643
 New state    640 was old state    642
 New state    641 was old state    640
 New state    642 was old state    641
 New state    643 was old state    649
 New state    644 was old state    645
 New state    645 was old state    646
 New state    646 was old state    644
 New state    647 was old state    650
 New state    649 was old state    651
 New state    650 was old state    647
 New state    651 was old state    664
 New state    655 was old state    657
 New state    656 was old state    655
 New state    657 was old state    658
 New state    658 was old state    656
 New state    660 was old state    661
 New state    661 was old state    660
 New state    664 was old state    673
 New state    666 was old state    668
 New state    668 was old state    666
 New state    669 was old state    674
 New state    670 was old state    671
 New state    671 was old state    669
 New state    673 was old state    670
 New state    674 was old state    680
 New state    680 was old state    683
 No map to state    682
 New state    683 was old state    682
 New state    684 was old state    685
 New state    685 was old state    684
 New state    688 was old state    690
 New state    690 was old state    688
 New state    694 was old state    695
 New state    695 was old state    694
 New state    701 was old state    702
 New state    702 was old state    701
 New state    703 was old state    705
 New state    705 was old state    703
 New state    707 was old state    709
 New state    708 was old state    707
 New state    709 was old state    708
 Excitation Energies [eV] at current iteration:
 Root      1 :     6.096539511574900
 Root      2 :     6.324532492503459
 Root      3 :     7.103073921314659
 Root      4 :     7.210515879392624
 Root      5 :     7.304093080097908
 Root      6 :     7.746347008753070
 Root      7 :     8.044318465007626
 Root      8 :     8.795112386107185
 Root      9 :     8.867979250402639
 Root     10 :     9.270469512605636
 Root     11 :    10.028805908472820
 Root     12 :    10.065557067766620
 Root     13 :    10.101503461957550
 Root     14 :    10.336316528938300
 Root     15 :    10.411022671025650
 Root     16 :    10.413632236136210
 Root     17 :    10.756984915868000
 Root     18 :    10.841735089046140
 Root     19 :    10.983054872476370
 Root     20 :    11.092638612258650
 Root     21 :    11.153653823827570
 Root     22 :    11.230710022606740
 Root     23 :    11.267203108313670
 Root     24 :    11.540112262007730
 Root     25 :    11.584400347220240
 Root     26 :    11.737587617062220
 Root     27 :    11.814561338197110
 Root     28 :    12.053127317620230
 Root     29 :    12.188037982711640
 Root     30 :    12.413209031012560
 Root     31 :    12.552124366929300
 Root     32 :    12.780267886686780
 Root     33 :    12.919353715998860
 Root     34 :    13.010370876020040
 Root     35 :    13.096740112521980
 Root     36 :    13.158832434392520
 Root     37 :    13.244278993781520
 Root     38 :    13.615691015939530
 Root     39 :    13.678251884641220
 Root     40 :    13.775045112446240
 Root     41 :    13.892278787572810
 Root     42 :    14.003625956899490
 Root     43 :    14.050922617319730
 Root     44 :    14.094826218426490
 Root     45 :    14.312504241582460
 Root     46 :    14.322084830687930
 Root     47 :    14.410339192826910
 Root     48 :    14.542840694788130
 Root     49 :    14.562321439115020
 Root     50 :    14.613087508881240
 Root     51 :    14.639807636140330
 Root     52 :    14.765348788006320
 Root     53 :    14.817668945675270
 Root     54 :    14.875836068709060
 Root     55 :    14.912086497384160
 Root     56 :    14.980065091254870
 Root     57 :    15.113877288641340
 Root     58 :    15.163429177733830
 Root     59 :    15.347165487081080
 Root     60 :    15.405548792135920
 Root     61 :    15.476916772784960
 Root     62 :    15.516760092074300
 Root     63 :    15.606934714317030
 Root     64 :    15.648292215858190
 Root     65 :    15.701761324248330
 Root     66 :    15.720701262826720
 Root     67 :    15.867108621450270
 Root     68 :    15.954365815352120
 Root     69 :    16.031493510041980
 Root     70 :    16.110015629964550
 Root     71 :    16.172069988876090
 Root     72 :    16.314485811175230
 Root     73 :    16.494650878491240
 Root     74 :    16.553904700055510
 Root     75 :    16.610300304749740
 Root     76 :    16.696991545682370
 Root     77 :    16.713171230403220
 Root     78 :    16.828775020027660
 Root     79 :    16.852592464662100
 Root     80 :    16.986926237157820
 Root     81 :    17.093235624861460
 Root     82 :    17.145737843079310
 Root     83 :    17.207483389437270
 Root     84 :    17.230390864549510
 Root     85 :    17.403164914562490
 Root     86 :    17.461918659079860
 Root     87 :    17.479533080872210
 Root     88 :    17.546788230122230
 Root     89 :    17.549158615934000
 Root     90 :    17.619205634911430
 Root     91 :    17.644471710708890
 Root     92 :    17.775598225527040
 Root     93 :    17.840841721527740
 Root     94 :    17.912461022102710
 Root     95 :    18.020713894681720
 Root     96 :    18.059224886346240
 Root     97 :    18.123119601906720
 Root     98 :    18.301341394925750
 Root     99 :    18.336809705967040
 Root    100 :    18.581642707096790
 Root    101 :    18.599747646357280
 Root    102 :    18.632476355988390
 Root    103 :    18.689934428423190
 Root    104 :    18.718935117080570
 Root    105 :    18.734360702692850
 Root    106 :    18.758311979805580
 Root    107 :    18.902763067008570
 Root    108 :    18.994565068326500
 Root    109 :    19.029447245182750
 Root    110 :    19.103288817218030
 Root    111 :    19.192505740214290
 Root    112 :    19.295449166895460
 Root    113 :    19.420689639874830
 Root    114 :    19.542500862960240
 Root    115 :    19.615986696227600
 Root    116 :    19.680640739287830
 Root    117 :    19.732019382570400
 Root    118 :    19.767536403083370
 Root    119 :    19.820951311191110
 Root    120 :    19.895736386541630
 Root    121 :    19.943922833860820
 Root    122 :    19.981230979329110
 Root    123 :    20.055812673122640
 Root    124 :    20.092144843837170
 Root    125 :    20.130630780727830
 Root    126 :    20.207425659009700
 Root    127 :    20.268141029086770
 Root    128 :    20.285352163606720
 Root    129 :    20.351385002265060
 Root    130 :    20.420683324785320
 Root    131 :    20.495671974855860
 Root    132 :    20.609016078228930
 Root    133 :    20.762533287875840
 Root    134 :    20.817282115710540
 Root    135 :    20.852225875998800
 Root    136 :    21.003471981006750
 Root    137 :    21.053393009908320
 Root    138 :    21.100644579620520
 Root    139 :    21.196262517892580
 Root    140 :    21.274770179600060
 Root    141 :    21.313132094994920
 Root    142 :    21.378728556188410
 Root    143 :    21.477629183664010
 Root    144 :    21.550881083748520
 Root    145 :    21.612368341598340
 Root    146 :    21.678007093889660
 Root    147 :    21.748319877312860
 Root    148 :    21.903284717963600
 Root    149 :    21.926761980820190
 Root    150 :    22.013369484187300
 Root    151 :    22.127066596036450
 Root    152 :    22.170747182666560
 Root    153 :    22.230769880622870
 Root    154 :    22.290377182651550
 Root    155 :    22.343261444902580
 Root    156 :    22.374893219904200
 Root    157 :    22.471492745959730
 Root    158 :    22.510501347727050
 Root    159 :    22.550060386093460
 Root    160 :    22.625682689914420
 Root    161 :    22.641909315880310
 Root    162 :    22.667177609839140
 Root    163 :    22.811189952651400
 Root    164 :    22.889391493063480
 Root    165 :    22.934866253214770
 Root    166 :    23.095329193265880
 Root    167 :    23.171168132992080
 Root    168 :    23.184660732080900
 Root    169 :    23.240266702620520
 Root    170 :    23.335810147175480
 Root    171 :    23.393693888234020
 Root    172 :    23.452144021564190
 Root    173 :    23.585150699081720
 Root    174 :    23.603124752944400
 Root    175 :    23.654289805148250
 Root    176 :    23.729267760926240
 Root    177 :    23.789311789445000
 Root    178 :    23.843059682099940
 Root    179 :    23.854515279402080
 Root    180 :    24.031735231414100
 Root    181 :    24.085056983615840
 Root    182 :    24.180066401795270
 Root    183 :    24.248153773563740
 Root    184 :    24.277937821904120
 Root    185 :    24.305431518162740
 Root    186 :    24.377202267743900
 Root    187 :    24.433861042280150
 Root    188 :    24.461682311259900
 Root    189 :    24.513108117782540
 Root    190 :    24.617402739009770
 Root    191 :    24.743580246467620
 Root    192 :    24.777475464855580
 Root    193 :    24.905765645124390
 Root    194 :    25.009315337894260
 Root    195 :    25.108522534576240
 Root    196 :    25.124311297266440
 Root    197 :    25.308485790835330
 Root    198 :    25.346788987027050
 Root    199 :    25.391333578927660
 Root    200 :    25.491072605850100
 Root    201 :    25.557745323441290
 Root    202 :    25.590376503000650
 Root    203 :    25.658452802111000
 Root    204 :    25.695781068802280
 Root    205 :    25.808868556212440
 Root    206 :    25.834904127931650
 Root    207 :    25.884439594350310
 Root    208 :    25.927946318828200
 Root    209 :    26.049738116005620
 Root    210 :    26.109968637150290
 Root    211 :    26.125951874240470
 Root    212 :    26.166055473808150
 Root    213 :    26.246739280301050
 Root    214 :    26.260706219444150
 Root    215 :    26.362955705186240
 Root    216 :    26.419629062740160
 Root    217 :    26.493001868214520
 Root    218 :    26.592320240866300
 Root    219 :    26.662484981383050
 Root    220 :    26.739624412735140
 Root    221 :    26.816009400458770
 Root    222 :    26.868939169722180
 Root    223 :    26.937535989995120
 Root    224 :    27.029196906111510
 Root    225 :    27.070450343013650
 Root    226 :    27.160530734969460
 Root    227 :    27.225211002062720
 Root    228 :    27.241482710239730
 Root    229 :    27.367162661371510
 Root    230 :    27.405899390114140
 Root    231 :    27.435977530748380
 Root    232 :    27.480797437785560
 Root    233 :    27.616183447294860
 Root    234 :    27.665280364625770
 Root    235 :    27.773666782868140
 Root    236 :    27.837074354732960
 Root    237 :    27.955212231769810
 Root    238 :    28.033121620479960
 Root    239 :    28.160030851811870
 Root    240 :    28.222545078478170
 Root    241 :    28.286571871711510
 Root    242 :    28.317250303385630
 Root    243 :    28.563970867237170
 Root    244 :    28.703498321902410
 Root    245 :    28.815078858037700
 Root    246 :    28.830494289369270
 Root    247 :    28.870462945353790
 Root    248 :    28.955773363563530
 Root    249 :    28.989137717645300
 Root    250 :    29.017031813816780
 Root    251 :    29.079696254780830
 Root    252 :    29.228085485524560
 Root    253 :    29.279860568496160
 Root    254 :    29.287208912919380
 Root    255 :    29.436745413321850
 Root    256 :    29.484960656615720
 Root    257 :    29.575873419691040
 Root    258 :    29.616715894043530
 Root    259 :    29.655432801245070
 Root    260 :    29.745094761489750
 Root    261 :    29.940168857632940
 Root    262 :    30.014324397635500
 Root    263 :    30.042246815729370
 Root    264 :    30.142110424478100
 Root    265 :    30.189052133973310
 Root    266 :    30.333870051877590
 Root    267 :    30.421064619303820
 Root    268 :    30.537871047537600
 Root    269 :    30.610288049374220
 Root    270 :    30.676254576552050
 Root    271 :    30.718755729964920
 Root    272 :    30.824369363349650
 Root    273 :    30.969564384348770
 Root    274 :    31.003304490505330
 Root    275 :    31.074818387113100
 Root    276 :    31.174666100407880
 Root    277 :    31.316912422047300
 Root    278 :    31.407958635306960
 Root    279 :    31.495314538575180
 Root    280 :    31.676237817486380
 Root    281 :    31.718792830704700
 Root    282 :    31.847388406186370
 Root    283 :    31.912295076080600
 Root    284 :    32.006129177310380
 Root    285 :    32.105563506924650
 Root    286 :    32.168606933513490
 Root    287 :    32.269335125480500
 Root    288 :    32.321711986446300
 Root    289 :    32.381673661254370
 Root    290 :    32.492043898633710
 Root    291 :    32.605517883827500
 Root    292 :    32.691156682739940
 Root    293 :    32.698119769688610
 Root    294 :    32.735554840523330
 Root    295 :    32.804278635549070
 Root    296 :    32.930893281321110
 Root    297 :    33.004140587277310
 Root    298 :    33.086797739016400
 Root    299 :    33.110384846242080
 Root    300 :    33.168071582324470
 Root    301 :    33.231870479079660
 Root    302 :    33.263753400071520
 Root    303 :    33.491311412819550
 Root    304 :    33.618429552627750
 Root    305 :    33.642589748263790
 Root    306 :    33.729358482127860
 Root    307 :    33.811345458049570
 Root    308 :    33.881670424683680
 Root    309 :    34.019385068305130
 Root    310 :    34.041367466313200
 Root    311 :    34.078426751053810
 Root    312 :    34.104206250197580
 Root    313 :    34.383512483167020
 Root    314 :    34.577065409797650
 Root    315 :    34.647399481103560
 Root    316 :    34.714089971981140
 Root    317 :    34.889194555440820
 Root    318 :    35.020249821166410
 Root    319 :    35.159898147306170
 Root    320 :    35.208556753104180
 Root    321 :    35.283143644996990
 Root    322 :    35.314755454951390
 Root    323 :    35.357820847038030
 Root    324 :    35.439089295453200
 Root    325 :    35.560533166926310
 Root    326 :    35.622260509233280
 Root    327 :    35.722897848550840
 Root    328 :    35.830660045796130
 Root    329 :    35.935772082706710
 Root    330 :    36.053682255251410
 Root    331 :    36.090521596214390
 Root    332 :    36.198374328989470
 Root    333 :    36.384307240698450
 Root    334 :    36.523895108087080
 Root    335 :    36.597618397143480
 Root    336 :    36.720670967075270
 Root    337 :    36.795284899541930
 Root    338 :    36.886230720052910
 Root    339 :    36.919841443721450
 Root    340 :    36.985815492544120
 Root    341 :    37.190094419354040
 Root    342 :    37.237034245125650
 Root    343 :    37.332559767048980
 Root    344 :    37.527921219999860
 Root    345 :    37.565175593238440
 Root    346 :    37.757596059895970
 Root    347 :    37.844057686342480
 Root    348 :    37.887860350484910
 Root    349 :    38.188451121222830
 Root    350 :    38.282397565075500
 Root    351 :    38.432339018231540
 Root    352 :    38.473567587266460
 Root    353 :    38.550439178648190
 Root    354 :    38.604343717440760
 Root    355 :    38.736424350099380
 Root    356 :    38.910471135076650
 Root    357 :    39.089762281175930
 Root    358 :    39.152871778827330
 Root    359 :    39.276723627782930
 Root    360 :    39.354419562403090
 Root    361 :    39.435348132682210
 Root    362 :    39.587252004590090
 Root    363 :    39.678745451546580
 Root    364 :    39.786503915164100
 Root    365 :    39.975556179470080
 Root    366 :    40.086958770923990
 Root    367 :    40.251572464863170
 Root    368 :    40.595481214738570
 Root    369 :    40.680744721627190
 Root    370 :    40.780750561062690
 Root    371 :    40.981672254845470
 Root    372 :    41.051256063741840
 Root    373 :    41.157106931301710
 Root    374 :    41.232114884857700
 Root    375 :    41.253488202052060
 Root    376 :    41.384813055598120
 Root    377 :    41.517736461791300
 Root    378 :    41.623563865563820
 Root    379 :    41.772752457126880
 Root    380 :    41.857342477948900
 Root    381 :    41.939638844998100
 Root    382 :    42.100947396927950
 Root    383 :    42.198107408091460
 Root    384 :    42.305728204794430
 Root    385 :    42.443506323321140
 Root    386 :    42.925426760024780
 Root    387 :    42.956749552831060
 Root    388 :    43.043452892037290
 Root    389 :    43.162107635738340
 Root    390 :    43.294755921994390
 Root    391 :    43.644279592228470
 Root    392 :    43.788803796596990
 Root    393 :    44.038465822234490
 Root    394 :    44.096640471028760
 Root    395 :    44.206422226094670
 Root    396 :    44.306359959020320
 Root    397 :    44.528606043880860
 Root    398 :    44.634293532675160
 Root    399 :    44.707342046867170
 Root    400 :    44.739454744088260
 Root    401 :    44.759667444152880
 Root    402 :    44.947220680583140
 Root    403 :    45.102319520899510
 Root    404 :    45.184185567244220
 Root    405 :    45.287514577532740
 Root    406 :    45.762665035595430
 Root    407 :    45.862029543634610
 Root    408 :    45.902473418542760
 Root    409 :    46.020306404479480
 Root    410 :    46.172410265042740
 Root    411 :    46.366865476524510
 Root    412 :    46.629014448735600
 Root    413 :    46.833772828859210
 Root    414 :    47.026453030296790
 Root    415 :    47.103972529713080
 Root    416 :    47.300199424742480
 Root    417 :    47.447365690248480
 Root    418 :    47.558871385378560
 Root    419 :    47.755452940331770
 Root    420 :    47.875680071483880
 Root    421 :    47.965658966289260
 Root    422 :    48.191486701281120
 Root    423 :    48.429158710654940
 Root    424 :    48.588428236370780
 Root    425 :    48.726019438042280
 Root    426 :    48.815429340283710
 Root    427 :    48.985817057614010
 Root    428 :    49.439983616129500
 Root    429 :    49.820057361756180
 Root    430 :    49.874234539511610
 Root    431 :    50.064579594578310
 Root    432 :    50.251444434272630
 Root    433 :    50.600162459960000
 Root    434 :    50.722306680523010
 Root    435 :    50.863468058377290
 Root    436 :    50.947698424248780
 Root    437 :    51.343264252817830
 Root    438 :    51.373153019574920
 Root    439 :    51.557003081443130
 Root    440 :    51.604019999595680
 Root    441 :    51.721705109771690
 Root    442 :    51.797231207414280
 Root    443 :    51.846025275354610
 Root    444 :    52.056439365513600
 Root    445 :    52.098614086243130
 Root    446 :    52.148659338191610
 Root    447 :    52.562675540734650
 Root    448 :    52.637132600816810
 Root    449 :    52.813462493925140
 Root    450 :    52.950946793362950
 Root    451 :    52.975453921808430
 Root    452 :    53.066764706650520
 Root    453 :    53.336568430042180
 Root    454 :    53.464755322652740
 Root    455 :    53.681571318865870
 Root    456 :    53.901148309388520
 Root    457 :    54.046326886402980
 Root    458 :    54.213209143616130
 Root    459 :    54.410807342070830
 Root    460 :    54.504605171892530
 Root    461 :    54.595294525114260
 Root    462 :    54.697038275178510
 Root    463 :    54.746150302542380
 Root    464 :    54.896849881122310
 Root    465 :    54.982566889607040
 Root    466 :    55.090706096213250
 Root    467 :    55.323630551551060
 Root    468 :    55.480566644947150
 Root    469 :    55.687214254711900
 Root    470 :    55.905223596047190
 Root    471 :    56.052650412299560
 Root    472 :    56.285131568812820
 Root    473 :    56.322932177021240
 Root    474 :    56.505526026546500
 Root    475 :    56.562365877186030
 Root    476 :    56.776289335433180
 Root    477 :    56.853346671556980
 Root    478 :    57.013300034154360
 Root    479 :    57.069532471487670
 Root    480 :    57.200871342949560
 Root    481 :    57.294955779588020
 Root    482 :    57.523911614017000
 Root    483 :    57.732703876433560
 Root    484 :    57.821064241082910
 Root    485 :    58.153813481418570
 Root    486 :    58.210722771817570
 Root    487 :    58.253182165828460
 Root    488 :    58.526649522546120
 Root    489 :    58.540407579868820
 Root    490 :    58.682032111254040
 Root    491 :    58.759637522395620
 Root    492 :    59.022056813085910
 Root    493 :    59.123160003707730
 Root    494 :    59.844709364494900
 Root    495 :    59.954400868113680
 Root    496 :    59.989382902925880
 Root    497 :    60.017272058287490
 Root    498 :    60.486774965923610
 Root    499 :    60.498913972838020
 Root    500 :    60.642456942010840
 Root    501 :    60.736261918080600
 Root    502 :    60.809370469211980
 Root    503 :    60.970461439955310
 Root    504 :    61.013223994600150
 Root    505 :    61.213654814570060
 Root    506 :    61.341090439741430
 Root    507 :    61.613547942735540
 Root    508 :    61.706045644869620
 Root    509 :    61.816776995889630
 Root    510 :    61.901673943710230
 Root    511 :    62.195863947080450
 Root    512 :    62.416171585949310
 Root    513 :    62.775601780973010
 Root    514 :    62.821833496049980
 Root    515 :    62.938534826105610
 Root    516 :    63.006054573378230
 Root    517 :    63.136000901131420
 Root    518 :    63.166776617879870
 Root    519 :    63.182643511488250
 Root    520 :    63.524590583011690
 Root    521 :    63.605328664098640
 Root    522 :    63.725839781962710
 Root    523 :    63.847077922806200
 Root    524 :    63.966615628522230
 Root    525 :    64.063306981501870
 Root    526 :    64.173268060642740
 Root    527 :    64.253583073338400
 Root    528 :    64.393115146976770
 Root    529 :    64.424192337251160
 Root    530 :    64.789075235515030
 Root    531 :    64.929163071496700
 Root    532 :    64.948803590266250
 Root    533 :    65.027380222235120
 Root    534 :    65.154058567970300
 Root    535 :    65.265620236848690
 Root    536 :    65.490063632670920
 Root    537 :    65.669089357377370
 Root    538 :    65.860691005974560
 Root    539 :    65.906647218387550
 Root    540 :    66.157767273191750
 Root    541 :    66.192322577416060
 Root    542 :    66.415513237306560
 Root    543 :    66.638234538857060
 Root    544 :    66.810642941468730
 Root    545 :    66.974260472264150
 Root    546 :    67.066755406668070
 Root    547 :    67.277433841948040
 Root    548 :    67.333012331900160
 Root    549 :    67.463594707648820
 Root    550 :    67.515497308015870
 Root    551 :    67.788589981864600
 Root    552 :    68.009025411181300
 Root    553 :    68.164993895363340
 Root    554 :    68.262855483935710
 Root    555 :    68.344831497037300
 Root    556 :    68.573027686497510
 Root    557 :    68.742443884489030
 Root    558 :    68.826869755689940
 Root    559 :    68.941964296033330
 Root    560 :    69.033896323104470
 Root    561 :    69.272071472051390
 Root    562 :    69.708744983204240
 Root    563 :    69.833055322874730
 Root    564 :    69.989031647301800
 Root    565 :    70.113279207987420
 Root    566 :    70.399950903475090
 Root    567 :    70.626663242311340
 Root    568 :    70.817018362552130
 Root    569 :    71.128467620105370
 Root    570 :    71.229599431960170
 Root    571 :    71.419084299875050
 Root    572 :    71.472406537231350
 Root    573 :    71.585505311122320
 Root    574 :    71.656979231533370
 Root    575 :    71.895655246229070
 Root    576 :    71.935750132110160
 Root    577 :    72.224566581025070
 Root    578 :    72.311949544438870
 Root    579 :    72.478855153574670
 Root    580 :    72.759847559026890
 Root    581 :    72.819954608658720
 Root    582 :    73.023872558794440
 Root    583 :    73.242543298552290
 Root    584 :    73.522485358928440
 Root    585 :    73.983991199564930
 Root    586 :    74.049784984599700
 Root    587 :    74.252742354790930
 Root    588 :    74.293884163857940
 Root    589 :    74.800748730870650
 Root    590 :    75.001838667651030
 Root    591 :    75.206357293999860
 Root    592 :    75.439679339713590
 Root    593 :    75.616278949234290
 Root    594 :    75.952480757231940
 Root    595 :    76.132021911434010
 Root    596 :    76.279671506557360
 Root    597 :    76.421730347046690
 Root    598 :    76.641760008469500
 Root    599 :    76.919648800679160
 Root    600 :    77.027145485924900
 Root    601 :    77.293666573769540
 Root    602 :    77.357850363861960
 Root    603 :    77.600435268950180
 Root    604 :    77.647998502330400
 Root    605 :    77.726120050152360
 Root    606 :    78.204155385292650
 Root    607 :    78.422751686138910
 Root    608 :    78.673211618665320
 Root    609 :    78.819198014463300
 Root    610 :    79.217138944121500
 Root    611 :    79.324854714939080
 Root    612 :    79.489874103908350
 Root    613 :    79.971654226169210
 Root    614 :    80.015995449403770
 Root    615 :    80.104360623795100
 Root    616 :    80.343938312741500
 Root    617 :    80.587050534339720
 Root    618 :    80.777820098017330
 Root    619 :    81.086412357694460
 Root    620 :    81.185544394188910
 Root    621 :    81.779244390898580
 Root    622 :    81.982743660448620
 Root    623 :    82.027798115201760
 Root    624 :    82.158435154519070
 Root    625 :    82.324699179721530
 Root    626 :    82.476234524516660
 Root    627 :    82.982338665187380
 Root    628 :    83.122953433462500
 Root    629 :    83.315797456811680
 Root    630 :    83.684236303195730
 Root    631 :    84.130040677816450
 Root    632 :    84.353707616853850
 Root    633 :    84.482342940968680
 Root    634 :    84.680890687994830
 Root    635 :    84.881948565632600
 Root    636 :    85.393446967048390
 Root    637 :    85.582334109814010
 Root    638 :    85.663541930111800
 Root    639 :    86.018083310755710
 Root    640 :    86.742199672219730
 Root    641 :    86.902520227127000
 Root    642 :    86.935984532363140
 Root    643 :    87.270663731190500
 Root    644 :    87.762697369686080
 Root    645 :    87.966715220667990
 Root    646 :    88.140105070762690
 Root    647 :    88.615956561899810
 Root    648 :    88.690134521142910
 Root    649 :    88.908292608030550
 Root    650 :    88.994507974150210
 Root    651 :    89.246760092333820
 Root    652 :    89.643079660389560
 Root    653 :    90.190657594046090
 Root    654 :    90.815065172143530
 Root    655 :    91.014145085621050
 Root    656 :    91.249816694639410
 Root    657 :    91.403658401031280
 Root    658 :    91.841107255244690
 Root    659 :    92.253128050563800
 Root    660 :    92.462153782124560
 Root    661 :    92.573621116797200
 Root    662 :    92.733478344728430
 Root    663 :    93.050477951449690
 Root    664 :    93.843929292709800
 Root    665 :    93.889449220909550
 Root    666 :    94.376991321815140
 Root    667 :    94.749155379348780
 Root    668 :    94.877391076907060
 Root    669 :    95.267404409957310
 Root    670 :    95.317938302967830
 Root    671 :    95.586864543530880
 Root    672 :    95.739083403644050
 Root    673 :    95.926359458850440
 Root    674 :    96.116662526342780
 Root    675 :    96.669765419222130
 Root    676 :    97.121272159886370
 Root    677 :    97.586776306827600
 Root    678 :    97.712085959475130
 Root    679 :    98.457211071622960
 Root    680 :    98.559447098267100
 Root    681 :    98.636891631541450
 Root    682 :    98.783274141391640
 Root    683 :    99.421251897917140
 Root    684 :   100.247565849716600
 Root    685 :   100.597416435078600
 Root    686 :   100.664346943855100
 Root    687 :   100.860943537728100
 Root    688 :   101.179908770506800
 Root    689 :   101.373935435212500
 Root    690 :   101.998633258869200
 Root    691 :   102.333204354229200
 Root    692 :   102.414503126171300
 Root    693 :   103.204367207434700
 Root    694 :   103.324455417235200
 Root    695 :   103.447729229118400
 Root    696 :   104.055444263643700
 Root    697 :   104.177191310843300
 Root    698 :   104.619265380051900
 Root    699 :   104.937341144125600
 Root    700 :   105.804090292609300
 Root    701 :   106.191645608391200
 Root    702 :   106.325686569809000
 Root    703 :   106.878366715920500
 Root    704 :   107.456214497435700
 Root    705 :   107.627474774674500
 Root    706 :   108.804505471899800
 Root    707 :   109.047777720636600
 Root    708 :   110.035948281648300
 Root    709 :   110.324774249372700
 Root    710 :   110.788378611117200
 Root    711 :   111.033948802715800
 Root    712 :   111.968981054424800
 Root    713 :   112.240386047110300
 Root    714 :   112.928529899611100
 Root    715 :   113.569630971701500
 Root    716 :   114.493465566016400
 Root    717 :   117.604305342748000
 Root    718 :   119.210550837492800
 Root    719 :   120.757744280371200
 Root    720 :   121.958848001668700
 Convergence achieved for final wavefunctions.
 ***********************************************************************
 Excited states from <AA,BB:AA,BB> singles matrix:
 ***********************************************************************
 
 1PDM for each excited state written to RWF  633
 Ground to excited state transition densities written to RWF  633
 Ground to excited state transition electric dipole moments (Au):
       state          X           Y           Z        Dip. S.      Osc.
         1         0.0751      0.0008      0.1981      0.0449      0.0067
         2         0.0092      0.0144      0.0721      0.0055      0.0009
         3         0.6796      0.0971     -0.0497      0.4738      0.0824
         4        -0.5506     -0.1202      0.0262      0.3183      0.0562
         5         0.8924     -0.1641     -0.0058      0.8234      0.1473
         6        -0.1471     -0.0035      0.3977      0.1798      0.0341
         7        -0.2042     -0.5105      0.0100      0.3024      0.0596
         8         0.3662      0.0493      0.0701      0.1415      0.0305
         9         0.2259      0.0729     -0.0305      0.0573      0.0124
        10         0.0140      0.0465     -0.1186      0.0164      0.0037
        11        -0.0002     -0.0167      0.0148      0.0005      0.0001
[...]
     14  -0.792412D-01  0.134271D+00 -0.170241D+00 -0.332409D-02 -0.128287D+00
     15   0.331277D+00 -0.339800D+00 -0.976881D+00 -0.324293D+00 -0.509201D+00
     16  -0.132161D+00  0.648711D-01 -0.160154D+00  0.443644D-01 -0.515339D-01
               651           652           653           654           655 
      1  -0.146539D+03 -0.146524D+03 -0.146504D+03 -0.146481D+03 -0.146474D+03
      2   0.610014D-01 -0.137324D-01 -0.497484D-02  0.371657D-01 -0.543776D-02
      3  -0.533540D-01 -0.567206D-02  0.141760D-01  0.174653D-01 -0.388505D-01
      4   0.660316D-02  0.941676D-02 -0.618528D-01 -0.210420D+00 -0.262023D-01
      5  -0.194106D+00  0.393406D-01  0.197843D-01 -0.117273D+00  0.316754D-01
      6   0.170884D+00 -0.154443D-01 -0.396216D-01 -0.491571D-01  0.116754D+00
      7  -0.180930D-01 -0.224762D-01  0.180626D+00  0.625900D+00  0.728611D-01
      8   0.377169D-01 -0.345111D-01 -0.495350D-01 -0.181299D+00  0.106054D-02
      9  -0.146491D-01  0.602747D-01 -0.415115D+00 -0.167541D+00  0.185985D+00
     10   0.194926D+00 -0.131229D+00 -0.374927D+00 -0.195672D+00  0.501012D-01
     11   0.374703D-01  0.135696D+01  0.118202D+00 -0.573745D+00  0.240873D+00
     12   0.499450D-01  0.297561D+00  0.225874D+00  0.932222D-02  0.493478D-01
     13   0.807921D-02 -0.842884D-01 -0.160562D+00 -0.114539D+00 -0.169907D+00
     14   0.181549D+00 -0.116379D+00 -0.565984D+00 -0.476027D-01  0.696620D-01
     15   0.368590D-01 -0.878839D-01  0.405985D+00 -0.599073D-02 -0.176676D+00
     16   0.716995D-01 -0.957008D-01  0.341636D-02 -0.868325D-01  0.247394D-01
               656           657           658           659           660 
      1  -0.146465D+03 -0.146460D+03 -0.146444D+03 -0.146428D+03 -0.146421D+03
      2  -0.801892D-01  0.337677D-01  0.191778D-01 -0.314625D-01 -0.373436D-01
      3   0.582774D-02 -0.154213D-01 -0.238544D-01  0.154625D-01  0.912580D-02
      4  -0.465302D-02 -0.149052D-01 -0.149131D+00 -0.322500D-01  0.230188D-01
      5   0.261978D+00 -0.103804D+00 -0.577350D-01  0.103572D+00  0.130897D+00
      6  -0.634041D-02  0.485758D-01  0.807826D-01 -0.451255D-01 -0.245368D-01
      7   0.554537D-02  0.295073D-01  0.472928D+00  0.965357D-01 -0.690253D-01
      8   0.138791D-01 -0.117844D+00 -0.264472D+00 -0.983130D-01  0.442240D-01
      9  -0.628930D-01 -0.834128D+00  0.977605D-01 -0.188379D+00  0.455936D-01
     10   0.312293D+00  0.193299D+00  0.681366D-01 -0.478666D-01 -0.536049D-01
     11  -0.821857D+00  0.526860D+00 -0.598689D+00 -0.568223D-01 -0.246763D+00
     12  -0.620593D-01 -0.254374D-01  0.804960D-01  0.252140D-01 -0.187292D-01
     13   0.456630D-01 -0.122010D+00 -0.893837D-01 -0.103714D-01  0.247087D-01
     14   0.318962D-01  0.111889D+00 -0.296048D-01  0.109372D-01 -0.143244D+00
     15   0.119163D+00  0.958786D+00 -0.196903D+00  0.167992D+00 -0.120795D+00
     16   0.120963D+00 -0.151729D+00 -0.355856D+00 -0.111642D+00  0.109022D+00
               661           662           663           664           665 
      1  -0.146417D+03 -0.146411D+03 -0.146399D+03 -0.146370D+03 -0.146368D+03
      2  -0.508854D-01  0.460921D-02 -0.412600D-01 -0.169768D-01  0.226849D-02
      3  -0.743231D-03 -0.972709D-03 -0.865463D-02 -0.590019D-01 -0.199980D-01
      4  -0.102582D-01  0.199212D-01  0.274497D-01 -0.166165D-01 -0.148081D-01
      5   0.162778D+00 -0.649712D-02  0.130340D+00  0.335791D-01 -0.417453D-02
      6   0.946529D-02 -0.559939D-02  0.275159D-01  0.190067D+00  0.516345D-01
      7   0.351113D-01 -0.554220D-01 -0.100277D+00  0.455468D-01  0.412446D-01
      8  -0.540509D-02  0.378566D-02 -0.575796D-01 -0.316295D-01 -0.303308D-01
      9  -0.254503D+00 -0.115457D+00  0.166729D+01  0.249215D-02  0.935342D-02
     10  -0.185228D+00 -0.944553D-01  0.125312D+00 -0.269550D+00 -0.442694D-01
     11   0.580004D+00 -0.567023D-01  0.421892D+00  0.437632D+00  0.588208D+00
     12  -0.109990D+00  0.152467D+00 -0.104391D-01 -0.203182D+00  0.471474D-01
     13  -0.475318D-01  0.397753D-01  0.149261D+00  0.113725D+00  0.398583D-01
     14  -0.228366D+00 -0.149136D+00  0.146251D-02 -0.566062D+00 -0.473500D-01
     15   0.362910D+00  0.190311D+00 -0.181204D+01  0.191530D-01 -0.250844D-01
     16  -0.113765D+00 -0.181241D+00 -0.395078D-01 -0.902585D-01 -0.122542D-01
               666           667           668           669           670 
      1  -0.146350D+03 -0.146337D+03 -0.146332D+03 -0.146318D+03 -0.146316D+03
      2   0.154716D-01  0.901530D-02  0.168241D-01 -0.151153D-01 -0.229950D-01
      3   0.825235D-02 -0.956031D-02 -0.215597D-01 -0.290581D-01 -0.283690D-01
      4  -0.163249D-01 -0.514531D-01 -0.944917D-02 -0.393155D-01 -0.663125D-02
      5  -0.502298D-01 -0.233830D-01 -0.587140D-01  0.570044D-01  0.732822D-01
      6  -0.203486D-01  0.238094D-01  0.724431D-01  0.101493D+00  0.960111D-01
      7   0.469103D-01  0.168063D+00  0.310753D-01  0.132196D+00  0.217394D-01
      8   0.102322D-01 -0.311385D-01 -0.664437D-01 -0.295203D-01 -0.534148D-01
      9  -0.190509D+00 -0.864365D-01 -0.859660D+00 -0.200941D+00 -0.189838D+00
     10   0.169081D-01  0.188510D+00  0.711182D-02 -0.190587D+00  0.128257D+00
     11  -0.224706D+00 -0.891102D-01 -0.457322D+00  0.205359D+00  0.172168D+00
     12   0.142420D-01  0.378936D-01  0.230059D-01 -0.155241D+00 -0.536628D-01
     13  -0.425756D-01 -0.444419D-01 -0.117402D+00 -0.116238D+00 -0.705281D-01
     14  -0.111353D+00  0.256960D+00  0.134304D+00 -0.170081D+00  0.124484D+00
     15   0.547516D-01  0.125339D+00  0.949702D+00  0.147963D+00  0.926110D-01
     16   0.414709D-01 -0.118529D+00 -0.109445D+00 -0.961342D-01 -0.791406D-01
               671           672           673           674           675 
      1  -0.146306D+03 -0.146300D+03 -0.146293D+03 -0.146286D+03 -0.146266D+03
      2  -0.761928D-02  0.127006D-01  0.726028D-01 -0.546412D-01  0.365445D-02
      3   0.205370D-01 -0.311166D-01 -0.121084D+00 -0.114533D+00 -0.158255D-01
      4  -0.972952D-02  0.192171D-01 -0.157175D-01  0.381771D-01 -0.392661D-01
      5   0.167157D-01 -0.320164D-01 -0.248340D+00  0.198781D+00 -0.239841D-01
      6  -0.685192D-01  0.949547D-01  0.393438D+00  0.357913D+00  0.512799D-01
      7   0.348262D-01 -0.536523D-01  0.453717D-01 -0.118639D+00  0.115614D+00
      8  -0.321549D-01 -0.343308D-02  0.308399D-01  0.329322D-01 -0.124470D-01
      9  -0.191860D+00 -0.141181D+00 -0.311301D-01  0.119128D+00  0.506846D-01
     10   0.182406D+00  0.438490D-02  0.522469D-01 -0.768995D+00 -0.822031D-01
     11  -0.450487D+00  0.414996D+00 -0.107908D+01 -0.105626D+01  0.230274D+00
     12   0.243502D+00 -0.693817D-01  0.499842D-01  0.179862D+00 -0.428249D-01
     13   0.904995D-01  0.121924D+00  0.410102D-01 -0.157452D-01  0.169155D+00
     14   0.273153D+00 -0.318845D-03  0.260272D+00 -0.973315D+00 -0.332088D-01
     15   0.259145D+00  0.183059D+00  0.586537D-01 -0.901058D-01 -0.435986D-01
     16  -0.537906D-01 -0.233948D-01 -0.131221D-01  0.883046D-01  0.104526D+00
               676           677           678           679           680 
      1  -0.146250D+03 -0.146232D+03 -0.146228D+03 -0.146200D+03 -0.146197D+03
      2  -0.117551D-01 -0.591917D-01 -0.159303D-01  0.488066D-01 -0.187978D-01
      3  -0.637983D-02 -0.666727D-01 -0.483848D-01  0.222853D-01 -0.456639D-01
      4   0.788356D-01 -0.772072D-02  0.297221D-01 -0.100764D-01 -0.376114D-01
      5   0.336556D-01  0.193779D+00  0.646352D-01 -0.165855D+00  0.752884D-01
      6   0.217513D-01  0.205211D+00  0.150700D+00 -0.868662D-01  0.145109D+00
      7  -0.238318D+00  0.241074D-01 -0.927980D-01  0.319579D-01  0.127937D+00
      8   0.196889D+00  0.213712D-01  0.304999D-01 -0.123585D-01 -0.643839D-01
      9   0.372819D-01  0.566763D-02 -0.883288D-01  0.106627D+00 -0.992681D-01
     10   0.126134D+00 -0.197015D+00 -0.984317D-02  0.246497D+00 -0.760973D-01
     11   0.240309D+00  0.713901D-01  0.603122D-01  0.796275D-01  0.544037D-01
     12  -0.649809D-01  0.528652D-01  0.351059D-01  0.170913D+00 -0.122839D-01
     13   0.902663D-01  0.874212D-02  0.695580D-01 -0.170410D-01 -0.990862D-01
     14   0.595060D-01 -0.408176D+00 -0.118409D+00  0.273414D+00 -0.265999D+00
     15   0.345179D-01 -0.927506D-01  0.754821D-01 -0.113912D+00  0.108216D+00
     16   0.253803D+00  0.627702D-01  0.189045D-01  0.142466D+00  0.109437D+00
               681           682           683           684           685 
      1  -0.146194D+03 -0.146188D+03 -0.146165D+03 -0.146135D+03 -0.146122D+03
      2   0.924256D-02 -0.532575D-02  0.369142D-01  0.197516D-01 -0.416020D-01
      3  -0.184501D-01 -0.137193D-01  0.999812D-01 -0.709667D-01  0.495747D-01
      4  -0.347845D-01 -0.788372D-02  0.323668D-01  0.520040D-02 -0.232526D-01
      5  -0.427508D-01  0.315590D-01 -0.103295D+00 -0.732165D-01  0.140718D+00
      6   0.711861D-01  0.555140D-01 -0.319740D+00  0.247572D+00 -0.165232D+00
      7   0.116144D+00  0.264997D-01 -0.104134D+00 -0.194640D-01  0.699112D-01
      8  -0.428385D-01 -0.456045D-02  0.180789D-01  0.626973D-02  0.145099D-01
      9   0.457091D-01 -0.702283D-01  0.238772D+00  0.354394D-01 -0.190653D+00
     10   0.133392D+00 -0.111883D+00 -0.550048D+00  0.413791D-01 -0.212193D+00
     11  -0.620224D+00  0.224828D+00 -0.647194D-01 -0.163319D+00 -0.129061D+01
     12  -0.117118D+00 -0.378371D-01  0.365072D-02 -0.117954D+00 -0.237381D+00
     13   0.439076D-01 -0.944975D-01 -0.636110D-01  0.289423D-01  0.126889D+00
     14   0.443323D+00 -0.404089D+00 -0.495845D+00  0.670903D-01 -0.234809D+00
     15  -0.165318D-01  0.719559D-01 -0.235972D+00  0.965988D-02  0.234793D+00
     16   0.443560D-01  0.358638D-01  0.113978D+00 -0.798697D-01  0.576755D-01
               686           687           688           689           690 
      1  -0.146119D+03 -0.146112D+03 -0.146100D+03 -0.146093D+03 -0.146070D+03
      2   0.329115D-01 -0.144962D-02 -0.321215D-02  0.210005D-01 -0.796104D-01
      3  -0.218136D-01  0.130851D-01 -0.748315D-02  0.857017D-01 -0.725742D-01
      4  -0.165058D-01 -0.178691D-01 -0.754576D-02  0.489924D-02 -0.364109D-02
      5  -0.109129D+00  0.894340D-02  0.332862D-01 -0.858570D-01  0.279417D+00
      6   0.656116D-01 -0.361133D-01  0.163709D-01 -0.296097D+00  0.255032D+00
      7   0.445503D-01  0.615074D-01  0.257772D-01 -0.116569D-01  0.132365D-01
      8   0.442897D-01 -0.196442D-01 -0.162149D-01  0.773559D-03  0.123604D-01
      9  -0.280056D-01  0.265762D+00 -0.454182D-01  0.296267D-01 -0.510386D-01
     10   0.138617D+00 -0.260147D-01  0.328631D-01  0.403497D+00 -0.102538D+00
     11   0.101597D+01 -0.352033D+00  0.361076D+00  0.190085D+01 -0.625080D+00
     12   0.152649D+00 -0.416053D-01 -0.155389D-01 -0.226309D-01  0.112367D-01
     13  -0.933483D-02  0.142483D-01  0.320530D-01  0.233958D-01 -0.420140D-01
     14   0.277696D+00  0.243979D-01 -0.200739D+00  0.640451D+00 -0.141934D+00
     15  -0.294777D-02 -0.242269D+00 -0.249321D-01 -0.773547D-01  0.286274D-01
     16   0.297816D-01 -0.238348D-01 -0.609965D-01  0.327943D-01 -0.229925D-01
               691           692           693           694           695 
      1  -0.146058D+03 -0.146055D+03 -0.146026D+03 -0.146022D+03 -0.146017D+03
      2   0.929215D-02  0.145690D-01 -0.129635D+00 -0.343166D-01 -0.293753D-01
      3   0.521454D-03  0.278093D-01  0.841109D-02 -0.795063D-02 -0.358890D-01
      4  -0.137506D-01  0.132233D-01 -0.350982D-02  0.195312D-01  0.261321D-01
      5  -0.430602D-01 -0.397055D-01  0.479791D+00  0.105305D+00  0.896224D-01
      6  -0.487874D-02 -0.921904D-01 -0.303289D-01  0.299081D-01  0.145731D+00
      7   0.443512D-01 -0.553193D-01  0.141600D-01 -0.568609D-01 -0.886506D-01
      8   0.123380D-01  0.244865D-01  0.129827D-01 -0.127636D-01  0.354097D-01
      9  -0.121055D+00  0.412064D-02 -0.606284D-01 -0.998349D-01  0.178359D+00
     10   0.371809D+00 -0.466814D-01  0.765835D+00  0.208127D+00  0.217386D+00
     11   0.107856D+01 -0.182590D+00  0.182242D+00  0.262217D+00 -0.145477D+01
     12  -0.746799D-01 -0.482932D-01  0.107466D-01  0.236813D-01 -0.935393D-01
     13  -0.879315D-01  0.125301D-01  0.924399D-01 -0.311804D-02  0.349741D-01
     14   0.403481D+00  0.551121D-01  0.622009D+00  0.203968D+00  0.202898D+00
     15   0.912822D-01 -0.322619D-01 -0.459122D-01 -0.749333D-03 -0.125098D+00
     16  -0.507804D-01 -0.497175D-01 -0.149460D-01 -0.196113D-01 -0.408284D-01
               696           697           698           699           700 
      1  -0.145995D+03 -0.145990D+03 -0.145974D+03 -0.145962D+03 -0.145930D+03
      2   0.100511D-01 -0.351901D-01 -0.464861D-02  0.180764D-01  0.562705D-01
      3  -0.870860D-02  0.206875D-01  0.180108D-01 -0.744522D-03 -0.493732D-01
      4   0.182051D-01 -0.116950D-01 -0.764846D-02  0.959833D-02  0.511434D-02
      5  -0.419574D-01  0.113009D+00  0.229011D-01 -0.606131D-01 -0.216095D+00
      6   0.424557D-01 -0.637471D-01 -0.645024D-01  0.701842D-02  0.174732D+00
      7  -0.633904D-01  0.371008D-01  0.286626D-01 -0.310349D-01 -0.172392D-01
      8   0.401469D-01 -0.325356D-01 -0.429378D-01  0.115600D-01  0.693775D-02
      9   0.117994D+00 -0.500619D-01 -0.111047D+00 -0.137189D+00  0.740821D-01
     10   0.570589D+00 -0.645629D+00 -0.157175D-01  0.120077D-01 -0.498805D+00
     11   0.625629D-01  0.576106D+00 -0.113918D+00 -0.252404D+00  0.663552D+00
     12  -0.227053D-01  0.272415D+00 -0.165679D+00  0.655893D-02 -0.296550D+00
     13  -0.175012D+00 -0.123366D+00  0.185060D+00 -0.196013D-01 -0.156801D+00
     14   0.821740D+00 -0.701317D+00  0.720432D-01  0.898803D-01 -0.514317D+00
     15  -0.789867D-01 -0.669218D-03  0.106473D+00  0.116494D+00 -0.593783D-01
     16  -0.332367D-01  0.592648D-01 -0.456379D-01  0.510988D-01 -0.113748D-01
               701           702           703           704           705 
      1  -0.145916D+03 -0.145911D+03 -0.145891D+03 -0.145870D+03 -0.145863D+03
      2  -0.123440D-01 -0.227682D-01 -0.478995D-01 -0.248417D-01 -0.201955D-01
      3  -0.227999D-01 -0.621431D-01 -0.229285D-01  0.315895D-01 -0.205873D-01
      4   0.553853D-02  0.535172D-02  0.129852D-01 -0.854608D-02  0.766430D-02
      5   0.506995D-01  0.904611D-01  0.141304D+00  0.622086D-01  0.612034D-01
      6   0.857293D-01  0.209210D+00  0.861920D-01 -0.110845D+00  0.699778D-01
      7  -0.655364D-02 -0.219171D-01 -0.413151D-01  0.310279D-01 -0.338908D-01
      8   0.260365D-01  0.174236D-01  0.172427D-01 -0.148496D-01  0.161898D-01
      9   0.973961D-01  0.957733D-02  0.101379D+00 -0.637398D-01  0.895967D-01
     10  -0.329050D-01  0.239539D+00  0.184912D+00  0.612506D-01  0.338601D+00
     11   0.559839D+00  0.108468D+01 -0.306724D-01 -0.235182D-01 -0.101095D+01
     12  -0.166647D-01  0.834546D-02  0.302434D-01 -0.216580D+00 -0.107574D+00
     13  -0.295671D-01 -0.570768D-01  0.788271D-02  0.131701D+00 -0.658531D-01
     14  -0.235724D-01  0.248383D+00  0.322897D+00  0.147579D+00  0.325425D+00
     15  -0.174363D+00 -0.695168D-01 -0.101606D+00  0.567060D-01 -0.189010D-01
     16   0.455447D-01 -0.504019D-01 -0.285772D-01 -0.325108D-01 -0.430016D-01
               706           707           708           709           710 
      1  -0.145820D+03 -0.145811D+03 -0.145775D+03 -0.145764D+03 -0.145747D+03
      2  -0.535335D-01  0.823425D-02  0.421808D-01 -0.256247D-01  0.510720D-01
      3  -0.330416D-01  0.218852D-01  0.307884D-01  0.750993D-01 -0.737744D-02
      4   0.823303D-02  0.111313D-01  0.248079D-01  0.309767D-02  0.150208D-01
      5   0.215497D+00 -0.417793D-01 -0.170923D+00  0.102322D+00 -0.182190D+00
      6   0.123189D+00 -0.802562D-01 -0.124235D+00 -0.287580D+00  0.485538D-01
      7  -0.314927D-01 -0.411795D-01 -0.879407D-01 -0.103927D-01 -0.545829D-01
      8  -0.429009D-02  0.236394D-01  0.130030D-01 -0.130496D-01  0.255987D-01
      9   0.612800D-01  0.930596D-01  0.192919D+00  0.379733D-01  0.117437D+00
     10  -0.717754D+00  0.355939D+00 -0.456513D+00 -0.268981D+00  0.111420D+00
     11   0.288231D+00 -0.448976D-01 -0.792698D+00 -0.778609D+00 -0.768482D-01
     12  -0.942345D-01 -0.987942D-01  0.290541D+00  0.288958D+00 -0.164283D+00
     13  -0.891935D-01 -0.888007D-01 -0.843539D-01  0.763705D-02 -0.122273D+00
     14  -0.616721D+00  0.394702D+00 -0.280450D+00 -0.146009D+00  0.246849D+00
     15  -0.874338D-01 -0.533991D-01 -0.727179D-01 -0.218478D-01 -0.408797D-01
     16   0.240368D-01 -0.634039D-03  0.939438D-01  0.753021D-01 -0.212823D-01
               711           712           713           714           715 
      1  -0.145738D+03 -0.145704D+03 -0.145694D+03 -0.145669D+03 -0.145645D+03
      2   0.572368D-01  0.153507D-01  0.105792D-01 -0.474172D-01  0.537252D-02
      3  -0.226309D-01  0.151515D-01 -0.156420D-01 -0.532257D-02  0.251946D-01
      4   0.130267D-01  0.100016D-01 -0.289696D-02 -0.138147D-01 -0.282286D-02
      5  -0.224719D+00 -0.703509D-01 -0.509886D-01  0.171376D+00 -0.265556D-01
      6   0.973984D-01 -0.619031D-01  0.607943D-01  0.600465D-02 -0.102905D+00
      7  -0.452054D-01 -0.357385D-01  0.131483D-01  0.476137D-01  0.844826D-02
      8   0.276821D-01  0.134935D-01 -0.926248D-02 -0.133852D-01 -0.227808D-01
      9   0.105661D+00  0.687403D-01  0.101168D-02 -0.114090D+00 -0.315911D-01
     10   0.199042D+00  0.264572D-02 -0.235175D+00  0.131800D+00 -0.552888D+00
     11  -0.979285D+00  0.456823D+00 -0.387862D+00  0.338056D+00  0.406285D+00
     12   0.841870D-01  0.119890D+00  0.990086D-01 -0.896600D-02  0.201710D+00
     13   0.338496D-01 -0.110769D+00  0.292961D-01  0.592648D-01 -0.740634D-01
     14   0.409957D+00  0.152155D-01 -0.188304D+00  0.177770D+00 -0.408657D+00
     15   0.127460D-01 -0.650384D-01  0.222788D-01  0.518271D-01  0.384649D-01
     16  -0.103336D-01  0.274796D-01  0.232250D-01 -0.330317D-01  0.555566D-01
               716           717           718           719           720 
      1  -0.145611D+03 -0.145497D+03 -0.145438D+03 -0.145381D+03 -0.145337D+03
      2  -0.311778D-03 -0.972276D-02 -0.233268D-01  0.185918D-01 -0.121610D-01
      3  -0.884330D-01  0.939837D-03 -0.195940D-01 -0.924048D-02  0.523780D-02
      4   0.313348D-02 -0.832515D-03 -0.899367D-03  0.150473D-02  0.270827D-03
      5  -0.348734D-02  0.516913D-01  0.727905D-01 -0.571606D-01  0.366535D-01
      6   0.306543D+00 -0.288923D-02  0.735965D-01  0.226378D-01 -0.280553D-01
      7  -0.123337D-01  0.209711D-02  0.475288D-02 -0.762571D-02 -0.107630D-02
      8   0.203843D-01  0.628915D-02  0.466087D-02  0.645906D-02 -0.808875D-02
      9   0.477179D-01  0.776561D-02 -0.774722D-02  0.333795D-01  0.475358D-02
     10   0.197375D+00  0.261809D+00  0.726606D-01 -0.356263D-01 -0.339704D+00
     11   0.517642D-01  0.355652D-01  0.143419D+00 -0.681247D+00 -0.186305D+00
     12   0.110208D+00  0.140910D+00 -0.830141D-01  0.914132D-01  0.154348D+00
     13  -0.819903D-01  0.499931D-01 -0.672407D-02  0.441582D-01 -0.454585D-02
     14   0.258170D+00  0.908044D-01 -0.739380D-01 -0.588904D-03 -0.247723D+00
     15  -0.358482D-01 -0.342286D-01 -0.292436D-01  0.126698D-01  0.124202D-01
     16  -0.671931D-01  0.430722D-03 -0.304289D-01  0.185993D-01  0.492801D-01
 Unable to Open any file for archive entry.
 1\1\GINC-HEL10\SP\RM11 TD-FC\Gen\C1H4N2\SABYASACHI\21-Mar-2022\0\\#P T
 D(Nstates=10000) m11/Gen SCF(maxcycles=100) Int(Grid=ultrafine)\\xGDB7
 _00001_tier4.com\\0,1\N,0,1.111035,-0.177046,-0.052467\C,0,-0.122009,0
 .419593,0.001774\N,0,-1.267607,-0.121443,0.008098\H,0,1.920558,0.36780
 2,0.180104\H,0,1.1807,-1.165617,0.115308\H,0,-0.065701,1.508813,0.0040
 46\H,0,-1.207497,-1.139126,0.000481\\Version=EM64L-G16RevC.01\State=1-
 A\HF=-149.8187148\RMSD=6.177e-09\PG=C01 [X(C1H4N2)]\\@
 The archive entry for this job was punched.


 A COMPLEXITY IS MERELY A DISARRANGEMENT OF SIMPLICITIES.

                                    -- G. O. ABELL IN "EXPLORATION OF THE UNIVERSE"
 Job cpu time:       0 days  0 hours 23 minutes 56.7 seconds.
 Elapsed time:       0 days  0 hours  2 minutes 60.0 seconds.
 File lengths (MBytes):  RWF=    666 Int=      0 D2E=      0 Chk=    150 Scr=      1
 Normal termination of Gaussian 16 at Mon Mar 21 20:19:19 2022.
