 Entering Gaussian System, Link 0=g16
 Input=000001.com
 Output=000001.log
 Initial command:
 /home/sabyasachi/g16/l1.exe "/scratch/sabyasachi/PBS_7976135.helios/Gau-155995.inp" -scrdir="/scratch/sabyasachi/PBS_7976135.helios/"
 Entering Link 1 = /home/sabyasachi/g16/l1.exe PID=    155996.
  
 Copyright (c) 1988-2019, Gaussian, Inc.  All Rights Reserved.
  
 This is part of the Gaussian(R) 16 program.  It is based on
 the Gaussian(R) 09 system (copyright 2009, Gaussian, Inc.),
 the Gaussian(R) 03 system (copyright 2003, Gaussian, Inc.),
 the Gaussian(R) 98 system (copyright 1998, Gaussian, Inc.),
 the Gaussian(R) 94 system (copyright 1995, Gaussian, Inc.),
 the Gaussian 92(TM) system (copyright 1992, Gaussian, Inc.),
 the Gaussian 90(TM) system (copyright 1990, Gaussian, Inc.),
 the Gaussian 88(TM) system (copyright 1988, Gaussian, Inc.),
 the Gaussian 86(TM) system (copyright 1986, Carnegie Mellon
 University), and the Gaussian 82(TM) system (copyright 1983,
 Carnegie Mellon University). Gaussian is a federally registered
 trademark of Gaussian, Inc.
  
 This software contains proprietary and confidential information,
 including trade secrets, belonging to Gaussian, Inc.
  
 This software is provided under written license and may be
 used, copied, transmitted, or stored only in accord with that
 written license.
  
 The following legend is applicable only to US Government
 contracts under FAR:
  
                    RESTRICTED RIGHTS LEGEND
  
 Use, reproduction and disclosure by the US Government is
 subject to restrictions as set forth in subparagraphs (a)
 and (c) of the Commercial Computer Software - Restricted
 Rights clause in FAR 52.227-19.
  
 Gaussian, Inc.
 340 Quinnipiac St., Bldg. 40, Wallingford CT 06492
  
  
 ---------------------------------------------------------------
 Warning -- This program may not be used in any manner that
 competes with the business of Gaussian, Inc. or will provide
 assistance to any competitor of Gaussian, Inc.  The licensee
 of this program is prohibited from giving any competitor of
 Gaussian, Inc. access to this program.  By using this program,
 the user acknowledges that Gaussian, Inc. is engaged in the
 business of creating and licensing software in the field of
 computational chemistry and represents and warrants to the
 licensee that it is not a competitor of Gaussian, Inc. and that
 it will not use this program in any manner prohibited above.
 ---------------------------------------------------------------
  

 Cite this work as:
 Gaussian 16, Revision C.01,
 M. J. Frisch, G. W. Trucks, H. B. Schlegel, G. E. Scuseria, 
 M. A. Robb, J. R. Cheeseman, G. Scalmani, V. Barone, 
 G. A. Petersson, H. Nakatsuji, X. Li, M. Caricato, A. V. Marenich, 
 J. Bloino, B. G. Janesko, R. Gomperts, B. Mennucci, H. P. Hratchian, 
 J. V. Ortiz, A. F. Izmaylov, J. L. Sonnenberg, D. Williams-Young, 
 F. Ding, F. Lipparini, F. Egidi, J. Goings, B. Peng, A. Petrone, 
 T. Henderson, D. Ranasinghe, V. G. Zakrzewski, J. Gao, N. Rega, 
 G. Zheng, W. Liang, M. Hada, M. Ehara, K. Toyota, R. Fukuda, 
 J. Hasegawa, M. Ishida, T. Nakajima, Y. Honda, O. Kitao, H. Nakai, 
 T. Vreven, K. Throssell, J. A. Montgomery, Jr., J. E. Peralta, 
 F. Ogliaro, M. J. Bearpark, J. J. Heyd, E. N. Brothers, K. N. Kudin, 
 V. N. Staroverov, T. A. Keith, R. Kobayashi, J. Normand, 
 K. Raghavachari, A. P. Rendell, J. C. Burant, S. S. Iyengar, 
 J. Tomasi, M. Cossi, J. M. Millam, M. Klene, C. Adamo, R. Cammi, 
 J. W. Ochterski, R. L. Martin, K. Morokuma, O. Farkas, 
 J. B. Foresman, and D. J. Fox, Gaussian, Inc., Wallingford CT, 2019.
 
 ******************************************
 Gaussian 16:  EM64L-G16RevC.01  3-Jul-2019
                21-Mar-2022 
 ******************************************
 %mem=64gb
 %nproc=8
 Will use up to    8 processors via shared memory.
 -------------------------------------------------------------------
 #P TD(Nstates=10000) m11/Gen SCF(maxcycles=100) Int(Grid=ultrafine)
 -------------------------------------------------------------------
 1/38=1,172=1/1;
 2/12=2,17=6,18=5,40=1/2;
 3/5=7,11=9,25=1,30=1,74=-64,75=-5/1,2,3,8;
 4//1;
 5/5=2,7=100,38=5/2;
 8/6=1,10=1,108=10000/1;
 9/41=10000,42=1,70=2/14;
 6/7=2,8=2,9=2,10=2/1;
 99/5=1,9=1/99;
 Leave Link    1 at Mon Mar 21 20:15:10 2022, MaxMem=  8589934592 cpu:               0.4 elap:               0.1
 (Enter /home/sabyasachi/g16/l101.exe)
 ---------------------
 xGDB7_00001_tier4.com
 ---------------------
 Symbolic Z-matrix:
 Charge =  0 Multiplicity = 1
 6                     0.        0.00001   0. 
 1                     0.98523   0.46299  -0.02804 
 1                    -0.05618  -0.68294   0.84631 
 1                    -0.16813  -0.55191  -0.92354 
 1                    -0.76094   0.77183   0.10527 
 
 ITRead=  0  0  0  0  0
 MicOpt= -1 -1 -1 -1 -1
 NAtoms=      5 NQM=        5 NQMF=       0 NMMI=      0 NMMIF=      0
                NMic=       0 NMicF=      0.
                    Isotopes and Nuclear Properties:
 (Nuclear quadrupole moments (NQMom) in fm**2, nuclear magnetic moments (NMagM)
  in nuclear magnetons)

  Atom         1           2           3           4           5
 IAtWgt=          12           1           1           1           1
 AtmWgt=  12.0000000   1.0078250   1.0078250   1.0078250   1.0078250
 NucSpn=           0           1           1           1           1
 AtZEff=  -0.0000000  -0.0000000  -0.0000000  -0.0000000  -0.0000000
 NQMom=    0.0000000   0.0000000   0.0000000   0.0000000   0.0000000
 NMagM=    0.0000000   2.7928460   2.7928460   2.7928460   2.7928460
 AtZNuc=   6.0000000   1.0000000   1.0000000   1.0000000   1.0000000
 Leave Link  101 at Mon Mar 21 20:15:11 2022, MaxMem=  8589934592 cpu:               0.6 elap:               0.1
 (Enter /home/sabyasachi/g16/l202.exe)
                          Input orientation:                          
 ---------------------------------------------------------------------
 Center     Atomic      Atomic             Coordinates (Angstroms)
 Number     Number       Type             X           Y           Z
 ---------------------------------------------------------------------
      1          6           0        0.000001    0.000006    0.000000
      2          1           0        0.985233    0.462990   -0.028035
      3          1           0       -0.056180   -0.682943    0.846305
      4          1           0       -0.168125   -0.551911   -0.923536
      5          1           0       -0.760937    0.771825    0.105269
 ---------------------------------------------------------------------
                    Distance matrix (angstroms):
                    1          2          3          4          5
     1  C    0.000000
     2  H    1.088955   0.000000
     3  H    1.088948   1.778250   0.000000
     4  H    1.088943   1.778252   1.778212   0.000000
     5  H    1.088950   1.778274   1.778248   1.778241   0.000000
 Stoichiometry    CH4
 Framework group  C1[X(CH4)]
 Deg. of freedom     9
 Full point group                 C1      NOp   1
 Largest Abelian subgroup         C1      NOp   1
 Largest concise Abelian subgroup C1      NOp   1
                         Standard orientation:                         
 ---------------------------------------------------------------------
 Center     Atomic      Atomic             Coordinates (Angstroms)
 Number     Number       Type             X           Y           Z
 ---------------------------------------------------------------------
      1          6           0       -0.000001    0.000006    0.000000
      2          1           0       -0.991926    0.448073    0.033817
      3          1           0        0.066172   -0.671147   -0.854975
      4          1           0        0.176250   -0.561167    0.916416
      5          1           0        0.749514    0.784204   -0.095260
 ---------------------------------------------------------------------
 Rotational constants (GHZ):         158.5824917         158.5804390         158.5768253
 Leave Link  202 at Mon Mar 21 20:15:11 2022, MaxMem=  8589934592 cpu:               0.1 elap:               0.0
 (Enter /home/sabyasachi/g16/l301.exe)
 General basis read from cards:  (5D, 7F)
 Centers:       2      3      4      5
 S 3 1.00
     Exponent=  1.3010701000D+01 Coefficients=  1.9682158000D-02
     Exponent=  1.9622572000D+00 Coefficients=  1.3796524000D-01
     Exponent=  4.4453796000D-01 Coefficients=  4.7831935000D-01
 S 1 1.00
     Exponent=  1.2194962000D-01 Coefficients=  1.0000000000D+00
 P 1 1.00
     Exponent=  8.0000000000D-01 Coefficients=  1.0000000000D+00
 P 1 1.00
     Exponent=  1.1704099050D-01 Coefficients=  1.0000000000D+00
 ****
 Centers:       1
 S 5 1.00
     Exponent=  1.2384016938D+03 Coefficients=  5.4568832082D-03
     Exponent=  1.8629004992D+02 Coefficients=  4.0638409211D-02
     Exponent=  4.2251176346D+01 Coefficients=  1.8025593888D-01
     Exponent=  1.1676557932D+01 Coefficients=  4.6315121755D-01
     Exponent=  3.5930506482D+00 Coefficients=  4.4087173314D-01
 S 1 1.00
     Exponent=  4.0245147363D-01 Coefficients=  1.0000000000D+00
 S 1 1.00
     Exponent=  1.3090182668D-01 Coefficients=  1.0000000000D+00
 S 1 1.00
     Exponent=  6.7053540256D-02 Coefficients=  1.0000000000D+00
 P 3 1.00
     Exponent=  9.4680970621D+00 Coefficients=  3.8387871728D-02
     Exponent=  2.0103545142D+00 Coefficients=  2.1117025112D-01
     Exponent=  5.4771004707D-01 Coefficients=  5.1328172114D-01
 P 1 1.00
     Exponent=  1.5268613795D-01 Coefficients=  1.0000000000D+00
 D 1 1.00
     Exponent=  8.0000000000D-01 Coefficients=  1.0000000000D+00
 D 1 1.00
     Exponent=  1.1713185140D-01 Coefficients=  1.0000000000D+00
 ****
 Ernie: Thresh=  0.10000D-02 Tol=  0.10000D-05 Strict=F.
 There are    54 symmetry adapted cartesian basis functions of A   symmetry.
 There are    52 symmetry adapted basis functions of A   symmetry.
    52 basis functions,    72 primitive gaussians,    54 cartesian basis functions
     5 alpha electrons        5 beta electrons
       nuclear repulsion energy        13.4483556150 Hartrees.
 IExCor= 5042 DFT=T Ex+Corr=M11 ExCW=0 ScaHFX=  1.000000
 ScaDFX=  1.000000  1.000000  1.000000  1.000000 ScalE2=  1.000000  1.000000
 IRadAn=      5 IRanWt=     -1 IRanGd=            0 ICorTp=0 IEmpDi=  4
 HFx  wShort=  0.000000 wLong=  0.250000 cFull=  0.428000 cShort=  0.000000 cLong=  0.572000
 DFx  wShort=  0.000000 wLong=  0.250000 cFull=  0.000000 cShort=  0.000000 cLong=  1.000000
 NAtoms=    5 NActive=    5 NUniq=    5 SFac= 1.00D+00 NAtFMM=   60 NAOKFM=F Big=F
 Integral buffers will be    131072 words long.
 Raffenetti 1 integral format.
 Two-electron integral symmetry is turned on.
 Leave Link  301 at Mon Mar 21 20:15:11 2022, MaxMem=  8589934592 cpu:               0.5 elap:               0.1
 (Enter /home/sabyasachi/g16/l302.exe)
 NPDir=0 NMtPBC=     1 NCelOv=     1 NCel=       1 NClECP=     1 NCelD=      1
         NCelK=      1 NCelE2=     1 NClLst=     1 CellRange=     0.0.
 One-electron integrals computed using PRISM.
 One-electron integral symmetry used in STVInt
 NBasis=    52 RedAO= T EigKep=  6.60D-04  NBF=    52
 NBsUse=    52 1.00D-06 EigRej= -1.00D+00 NBFU=    52
 Precomputing XC quadrature grid using
 IXCGrd= 4 IRadAn=           5 IRanWt=          -1 IRanGd=           0 AccXCQ= 0.00D+00.
 Generated NRdTot=       0 NPtTot=           0 NUsed=           0 NTot=          32
 NSgBfM=    54    54    54    54    54 MxSgAt=     5 MxSgA2=     5.
 Leave Link  302 at Mon Mar 21 20:15:11 2022, MaxMem=  8589934592 cpu:               0.9 elap:               0.1
 (Enter /home/sabyasachi/g16/l303.exe)
 DipDrv:  MaxL=1.
 Leave Link  303 at Mon Mar 21 20:15:11 2022, MaxMem=  8589934592 cpu:               0.2 elap:               0.0
 (Enter /home/sabyasachi/g16/l308.exe)
 Leave Link  308 at Mon Mar 21 20:15:11 2022, MaxMem=  8589934592 cpu:               0.2 elap:               0.0
 (Enter /home/sabyasachi/g16/l401.exe)
 ExpMin= 6.71D-02 ExpMax= 1.24D+03 ExpMxC= 1.86D+02 IAcc=3 IRadAn=         5 AccDes= 0.00D+00
 Harris functional with IExCor= 1009 and IRadAn=       5 diagonalized for initial guess.
 HarFok:  IExCor= 1009 AccDes= 0.00D+00 IRadAn=         5 IDoV= 1 UseB2=F ITyADJ=14
 ICtDFT=  3500011 ScaDFX=  1.000000  1.000000  1.000000  1.000000
 FoFCou: FMM=F IPFlag=           0 FMFlag=      100000 FMFlg1=           0
         NFxFlg=           0 DoJE=T BraDBF=F KetDBF=T FulRan=T
         wScrn=  0.000000 ICntrl=       500 IOpCl=  0 I1Cent=   200000004 NGrid=           0
         NMat0=    1 NMatS0=      1 NMatT0=    0 NMatD0=    1 NMtDS0=    0 NMtDT0=    0
 Petite list used in FoFCou.
 Harris En= -39.0718008183069    
 JPrj=0 DoOrth=F DoCkMO=F.
 Leave Link  401 at Mon Mar 21 20:15:11 2022, MaxMem=  8589934592 cpu:               1.7 elap:               0.2
 (Enter /home/sabyasachi/g16/l502.exe)
 Keep R1 ints in memory in canonical form, NReq=8996518.
 FoFCou: FMM=F IPFlag=           0 FMFlag=           0 FMFlg1=           0
         NFxFlg=           0 DoJE=F BraDBF=F KetDBF=F FulRan=T
         wScrn=  0.000000 ICntrl=       600 IOpCl=  0 I1Cent=           0 NGrid=           0
         NMat0=    1 NMatS0=   1378 NMatT0=    0 NMatD0=    1 NMtDS0=    0 NMtDT0=    0
 Symmetry not used in FoFCou.
 Two-electron integral symmetry not used.
 Closed shell SCF:
 Using DIIS extrapolation, IDIIS=  1040.
 NGot=  8589934592 LenX=  8588027230 LenY=  8588023873
 Requested convergence on RMS density matrix=1.00D-08 within 100 cycles.
 Requested convergence on MAX density matrix=1.00D-06.
 Requested convergence on             energy=1.00D-06.
 No special actions if energy rises.
 Integral accuracy reduced to 1.0D-05 until final iterations.

 Cycle   1  Pass 0  IDiag  1:
 E= -40.3775396858377    
 DIIS: error= 4.10D-02 at cycle   1 NSaved=   1.
 NSaved= 1 IEnMin= 1 EnMin= -40.3775396858377     IErMin= 1 ErrMin= 4.10D-02
 ErrMax= 4.10D-02  0.00D+00 EMaxC= 1.00D-01 BMatC= 6.51D-02 BMatP= 6.51D-02
 IDIUse=3 WtCom= 5.90D-01 WtEn= 4.10D-01
 Coeff-Com:  0.100D+01
 Coeff-En:   0.100D+01
 Coeff:      0.100D+01
 Gap=     0.479 Goal=   None    Shift=    0.000
 GapD=    0.479 DampG=2.000 DampE=0.500 DampFc=1.0000 IDamp=-1.
 RMSDP=9.14D-03 MaxDP=1.75D-01              OVMax= 1.28D-01

 Cycle   2  Pass 0  IDiag  1:
 E= -40.4179398426598     Delta-E=       -0.040400156822 Rises=F Damp=F
 DIIS: error= 2.53D-02 at cycle   2 NSaved=   2.
 NSaved= 2 IEnMin= 2 EnMin= -40.4179398426598     IErMin= 2 ErrMin= 2.53D-02
 ErrMax= 2.53D-02  0.00D+00 EMaxC= 1.00D-01 BMatC= 2.96D-02 BMatP= 6.51D-02
 IDIUse=3 WtCom= 7.47D-01 WtEn= 2.53D-01
 Coeff-Com:  0.401D+00 0.599D+00
 Coeff-En:   0.226D+00 0.774D+00
 Coeff:      0.356D+00 0.644D+00
 Gap=     0.560 Goal=   None    Shift=    0.000
 RMSDP=5.53D-03 MaxDP=8.20D-02 DE=-4.04D-02 OVMax= 5.22D-02

 Cycle   3  Pass 0  IDiag  1:
 E= -40.4473994576490     Delta-E=       -0.029459614989 Rises=F Damp=F
 DIIS: error= 1.53D-03 at cycle   3 NSaved=   3.
 NSaved= 3 IEnMin= 3 EnMin= -40.4473994576490     IErMin= 3 ErrMin= 1.53D-03
 ErrMax= 1.53D-03  0.00D+00 EMaxC= 1.00D-01 BMatC= 1.25D-04 BMatP= 2.96D-02
 IDIUse=3 WtCom= 9.85D-01 WtEn= 1.53D-02
 Coeff-Com: -0.199D-01 0.303D-01 0.990D+00
 Coeff-En:   0.000D+00 0.000D+00 0.100D+01
 Coeff:     -0.196D-01 0.298D-01 0.990D+00
 Gap=     0.557 Goal=   None    Shift=    0.000
 RMSDP=5.31D-04 MaxDP=5.45D-03 DE=-2.95D-02 OVMax= 4.32D-03

 Cycle   4  Pass 0  IDiag  1:
 E= -40.4475611802860     Delta-E=       -0.000161722637 Rises=F Damp=F
 DIIS: error= 1.98D-04 at cycle   4 NSaved=   4.
 NSaved= 4 IEnMin= 4 EnMin= -40.4475611802860     IErMin= 4 ErrMin= 1.98D-04
 ErrMax= 1.98D-04  0.00D+00 EMaxC= 1.00D-01 BMatC= 1.53D-06 BMatP= 1.25D-04
 IDIUse=3 WtCom= 9.98D-01 WtEn= 1.98D-03
 Coeff-Com:  0.215D-02-0.151D-01-0.227D+00 0.124D+01
 Coeff-En:   0.000D+00 0.000D+00 0.000D+00 0.100D+01
 Coeff:      0.215D-02-0.151D-01-0.226D+00 0.124D+01
 Gap=     0.557 Goal=   None    Shift=    0.000
 RMSDP=1.72D-04 MaxDP=1.64D-03 DE=-1.62D-04 OVMax= 8.05D-04

 Cycle   5  Pass 0  IDiag  1:
 E= -40.4475645899544     Delta-E=       -0.000003409668 Rises=F Damp=F
 DIIS: error= 2.73D-05 at cycle   5 NSaved=   5.
 NSaved= 5 IEnMin= 5 EnMin= -40.4475645899544     IErMin= 5 ErrMin= 2.73D-05
 ErrMax= 2.73D-05  0.00D+00 EMaxC= 1.00D-01 BMatC= 2.76D-08 BMatP= 1.53D-06
 IDIUse=1 WtCom= 1.00D+00 WtEn= 0.00D+00
 Coeff-Com: -0.429D-03 0.257D-02 0.436D-01-0.303D+00 0.126D+01
 Coeff:     -0.429D-03 0.257D-02 0.436D-01-0.303D+00 0.126D+01
 Gap=     0.557 Goal=   None    Shift=    0.000
 RMSDP=1.18D-05 MaxDP=1.09D-04 DE=-3.41D-06 OVMax= 1.29D-04

 Cycle   6  Pass 0  IDiag  1:
 E= -40.4475646644758     Delta-E=       -0.000000074521 Rises=F Damp=F
 DIIS: error= 3.10D-06 at cycle   6 NSaved=   6.
 NSaved= 6 IEnMin= 6 EnMin= -40.4475646644758     IErMin= 6 ErrMin= 3.10D-06
 ErrMax= 3.10D-06  0.00D+00 EMaxC= 1.00D-01 BMatC= 1.96D-10 BMatP= 2.76D-08
 IDIUse=1 WtCom= 1.00D+00 WtEn= 0.00D+00
 Coeff-Com:  0.951D-04-0.301D-03-0.602D-02 0.368D-01-0.205D+00 0.117D+01
 Coeff:      0.951D-04-0.301D-03-0.602D-02 0.368D-01-0.205D+00 0.117D+01
 Gap=     0.557 Goal=   None    Shift=    0.000
 RMSDP=1.06D-06 MaxDP=1.22D-05 DE=-7.45D-08 OVMax= 1.10D-05

 Initial convergence to 1.0D-05 achieved.  Increase integral accuracy.
 Cycle   7  Pass 1  IDiag  1:
 E= -40.4475700140774     Delta-E=       -0.000005349602 Rises=F Damp=F
 DIIS: error= 2.10D-05 at cycle   1 NSaved=   1.
 NSaved= 1 IEnMin= 1 EnMin= -40.4475700140774     IErMin= 1 ErrMin= 2.10D-05
 ErrMax= 2.10D-05  0.00D+00 EMaxC= 1.00D-01 BMatC= 2.73D-08 BMatP= 2.73D-08
 IDIUse=1 WtCom= 1.00D+00 WtEn= 0.00D+00
 Coeff-Com:  0.100D+01
 Coeff:      0.100D+01
 Gap=     0.557 Goal=   None    Shift=    0.000
 RMSDP=1.06D-06 MaxDP=1.22D-05 DE=-5.35D-06 OVMax= 4.55D-05

 Cycle   8  Pass 1  IDiag  1:
 E= -40.4475700389526     Delta-E=       -0.000000024875 Rises=F Damp=F
 DIIS: error= 2.50D-06 at cycle   2 NSaved=   2.
 NSaved= 2 IEnMin= 2 EnMin= -40.4475700389526     IErMin= 2 ErrMin= 2.50D-06
 ErrMax= 2.50D-06  0.00D+00 EMaxC= 1.00D-01 BMatC= 5.68D-10 BMatP= 2.73D-08
 IDIUse=1 WtCom= 1.00D+00 WtEn= 0.00D+00
 Coeff-Com: -0.875D-01 0.109D+01
 Coeff:     -0.875D-01 0.109D+01
 Gap=     0.557 Goal=   None    Shift=    0.000
 RMSDP=1.27D-06 MaxDP=1.33D-05 DE=-2.49D-08 OVMax= 1.20D-05

 Cycle   9  Pass 1  IDiag  1:
 E= -40.4475700395275     Delta-E=       -0.000000000575 Rises=F Damp=F
 DIIS: error= 1.65D-06 at cycle   3 NSaved=   3.
 NSaved= 3 IEnMin= 3 EnMin= -40.4475700395275     IErMin= 3 ErrMin= 1.65D-06
 ErrMax= 1.65D-06  0.00D+00 EMaxC= 1.00D-01 BMatC= 1.33D-10 BMatP= 5.68D-10
 IDIUse=1 WtCom= 1.00D+00 WtEn= 0.00D+00
 Coeff-Com: -0.471D-01 0.381D+00 0.667D+00
 Coeff:     -0.471D-01 0.381D+00 0.667D+00
 Gap=     0.557 Goal=   None    Shift=    0.000
 RMSDP=3.75D-07 MaxDP=6.14D-06 DE=-5.75D-10 OVMax= 3.58D-06

 Cycle  10  Pass 1  IDiag  1:
 E= -40.4475700396564     Delta-E=       -0.000000000129 Rises=F Damp=F
 DIIS: error= 1.56D-07 at cycle   4 NSaved=   4.
 NSaved= 4 IEnMin= 4 EnMin= -40.4475700396564     IErMin= 4 ErrMin= 1.56D-07
 ErrMax= 1.56D-07  0.00D+00 EMaxC= 1.00D-01 BMatC= 1.86D-12 BMatP= 1.33D-10
 IDIUse=1 WtCom= 1.00D+00 WtEn= 0.00D+00
 Coeff-Com:  0.362D-02-0.533D-01-0.153D-02 0.105D+01
 Coeff:      0.362D-02-0.533D-01-0.153D-02 0.105D+01
 Gap=     0.557 Goal=   None    Shift=    0.000
 RMSDP=7.24D-08 MaxDP=6.97D-07 DE=-1.29D-10 OVMax= 8.13D-07

 Cycle  11  Pass 1  IDiag  1:
 E= -40.4475700396603     Delta-E=       -0.000000000004 Rises=F Damp=F
 DIIS: error= 4.54D-08 at cycle   5 NSaved=   5.
 NSaved= 5 IEnMin= 5 EnMin= -40.4475700396603     IErMin= 5 ErrMin= 4.54D-08
 ErrMax= 4.54D-08  0.00D+00 EMaxC= 1.00D-01 BMatC= 8.31D-14 BMatP= 1.86D-12
 IDIUse=1 WtCom= 1.00D+00 WtEn= 0.00D+00
 Coeff-Com:  0.226D-02-0.185D-01-0.306D-01 0.494D-01 0.997D+00
 Coeff:      0.226D-02-0.185D-01-0.306D-01 0.494D-01 0.997D+00
 Gap=     0.557 Goal=   None    Shift=    0.000
 RMSDP=1.65D-08 MaxDP=1.41D-07 DE=-3.87D-12 OVMax= 1.92D-07

 Cycle  12  Pass 1  IDiag  1:
 E= -40.4475700396605     Delta-E=       -0.000000000000 Rises=F Damp=F
 DIIS: error= 8.39D-09 at cycle   6 NSaved=   6.
 NSaved= 6 IEnMin= 6 EnMin= -40.4475700396605     IErMin= 6 ErrMin= 8.39D-09
 ErrMax= 8.39D-09  0.00D+00 EMaxC= 1.00D-01 BMatC= 2.35D-15 BMatP= 8.31D-14
 IDIUse=1 WtCom= 1.00D+00 WtEn= 0.00D+00
 Coeff-Com: -0.383D-03 0.394D-02 0.340D-02-0.442D-01-0.130D+00 0.117D+01
 Coeff:     -0.383D-03 0.394D-02 0.340D-02-0.442D-01-0.130D+00 0.117D+01
 Gap=     0.557 Goal=   None    Shift=    0.000
 RMSDP=3.34D-09 MaxDP=3.79D-08 DE=-1.99D-13 OVMax= 4.80D-08

 SCF Done:  E(RM11) =  -40.4475700397     A.U. after   12 cycles
            NFock= 12  Conv=0.33D-08     -V/T= 2.0153
 KE= 3.983636382991D+01 PE=-1.196220388719D+02 EE= 2.588974938737D+01
 Leave Link  502 at Mon Mar 21 20:15:13 2022, MaxMem=  8589934592 cpu:              11.8 elap:               1.5
 (Enter /home/sabyasachi/g16/l801.exe)
 DoSCS=F DFT=T ScalE2(SS,OS)=  1.000000  1.000000
 ExpMin= 6.71D-02 ExpMax= 1.24D+03 ExpMxC= 1.86D+02 IAcc=3 IRadAn=         5 AccDes= 0.00D+00
 HarFok:  IExCor=  205 AccDes= 0.00D+00 IRadAn=         5 IDoV=-2 UseB2=F ITyADJ=14
 ICtDFT= 12500011 ScaDFX=  1.000000  1.000000  1.000000  1.000000
 Largest valence mixing into a core orbital is  7.18D-05
 Largest core mixing into a valence orbital is  1.28D-05
 Range of M.O.s used for correlation:     2    52
 NBasis=    52 NAE=     5 NBE=     5 NFC=     1 NFV=     0
 NROrb=     51 NOA=     4 NOB=     4 NVA=    47 NVB=    47

 **** Warning!!: The largest alpha MO coefficient is  0.24936817D+02

 Leave Link  801 at Mon Mar 21 20:15:13 2022, MaxMem=  8589934592 cpu:               0.4 elap:               0.1
 (Enter /home/sabyasachi/g16/l914.exe)
 RHF ground state
 Keep R1, R2, and R3 ints in memory in canonical form, NReq=68891038.
 FoFCou: FMM=F IPFlag=           0 FMFlag=           0 FMFlg1=           0
         NFxFlg=           0 DoJE=F BraDBF=F KetDBF=F FulRan=T
         wScrn=  0.000000 ICntrl=       600 IOpCl=  0 I1Cent=           0 NGrid=           0
         NMat0=    1 NMatS0=   1378 NMatT0=    0 NMatD0=    1 NMtDS0=    0 NMtDT0=    0
 Symmetry not used in FoFCou.
 Two-electron integral symmetry not used.
 MDV=  8589934592 DFT=T DoStab=F Mixed=T DoRPA=T DoScal=F NonHer=T
 Making orbital integer symmetry assigments:
 Orbital symmetries:
       Occupied  (A) (A) (A) (A) (A)
       Virtual   (A) (A) (A) (A) (A) (A) (A) (A) (A) (A) (A) (A)
                 (A) (A) (A) (A) (A) (A) (A) (A) (A) (A) (A) (A)
                 (A) (A) (A) (A) (A) (A) (A) (A) (A) (A) (A) (A)
                 (A) (A) (A) (A) (A) (A) (A) (A) (A) (A) (A)
   188 initial guesses have been made.
 Convergence on wavefunction:    0.001000000000000
 Davidson Disk Diagonalization:  ConvIn= 1.00D-03 SkipCon=T Conv= 1.00D-03.
 Max sub-space:  1128 roots to seek:   376 dimension of matrix:          376
 *** WARNING: Number of orthogonal guesses is          188
 Iteration     1 Dimension   188 NMult     0 NNew    188
 CISAX will form   188 AO SS matrices at one time.
 NMat=   188 NSing=   188 JSym2X= 0.
 New state      4 was old state      5
 New state      5 was old state      4
 New state      6 was old state      7
 New state      7 was old state      9
 New state      8 was old state     12
 New state      9 was old state     10
 New state     10 was old state      6
 New state     12 was old state     14
 New state     13 was old state     15
 New state     14 was old state     19
 New state     15 was old state     13
 New state     16 was old state     20
 New state     17 was old state     21
 New state     18 was old state     25
 New state     19 was old state     26
 New state     20 was old state     23
 New state     21 was old state     22
 New state     22 was old state     24
 New state     23 was old state     27
 New state     24 was old state     18
 New state     25 was old state     16
 New state     26 was old state     17
 New state     27 was old state      8
 New state     31 was old state     32
 New state     32 was old state     33
 New state     33 was old state     34
 New state     34 was old state     41
 New state     35 was old state     38
 New state     37 was old state     40
 New state     38 was old state     39
 New state     39 was old state     46
 New state     40 was old state     45
 New state     41 was old state     49
 New state     42 was old state     31
 New state     43 was old state     37
 New state     44 was old state     51
 New state     45 was old state     35
 New state     46 was old state     42
 New state     47 was old state     43
 No map to state     48
 New state     49 was old state     44
 New state     50 was old state     48
 New state     51 was old state     50
 New state     52 was old state     59
 New state     53 was old state     54
 New state     54 was old state     57
 New state     55 was old state     61
 New state     56 was old state     53
 New state     57 was old state     60
 New state     59 was old state     55
 New state     60 was old state     56
 New state     61 was old state     62
 New state     62 was old state     63
 New state     63 was old state     64
 New state     64 was old state     65
 New state     65 was old state     68
 New state     66 was old state     70
 New state     67 was old state     76
 New state     68 was old state     71
 New state     69 was old state     72
 New state     70 was old state     73
 New state     71 was old state     66
 New state     72 was old state     67
 New state     73 was old state     69
 No map to state     76
 New state     87 was old state     88
 New state     88 was old state     95
 New state     89 was old state     92
 New state     90 was old state     93
 New state     91 was old state     96
 New state     92 was old state     90
 New state     93 was old state     87
 New state     94 was old state     89
 New state     95 was old state     91
 New state     96 was old state     94
 New state     98 was old state    103
 New state     99 was old state    101
 New state    100 was old state    102
 New state    101 was old state    104
 New state    102 was old state    107
 New state    103 was old state    109
 New state    104 was old state    108
 New state    105 was old state    106
 New state    106 was old state     98
 New state    107 was old state     99
 New state    108 was old state    100
 New state    109 was old state    105
 New state    116 was old state    117
 New state    117 was old state    118
 New state    118 was old state    119
 New state    119 was old state    116
 New state    121 was old state    122
 New state    122 was old state    123
 New state    123 was old state    124
 New state    124 was old state    121
 New state    128 was old state    130
 New state    129 was old state    134
 New state    130 was old state    135
 New state    131 was old state    129
 New state    132 was old state    133
 New state    133 was old state    131
 New state    134 was old state    128
 New state    135 was old state    132
 New state    136 was old state    144
 New state    137 was old state    136
 New state    138 was old state    137
 New state    139 was old state    142
 New state    140 was old state    145
 New state    142 was old state    138
 New state    144 was old state    140
 New state    145 was old state    139
 New state    153 was old state    159
 New state    154 was old state    158
 New state    155 was old state    156
 New state    156 was old state    154
 New state    157 was old state    161
 New state    158 was old state    153
 New state    159 was old state    155
 New state    161 was old state    157
 New state    165 was old state    167
 New state    166 was old state    169
 New state    167 was old state    168
 New state    168 was old state    170
 New state    169 was old state    165
 New state    170 was old state    166
 New state    177 was old state    182
 New state    178 was old state    177
 New state    179 was old state    181
 New state    180 was old state    184
 New state    181 was old state    180
 New state    182 was old state    179
 New state    184 was old state    185
 New state    185 was old state    178
 Excitation Energies [eV] at current iteration:
 Root      1 :    10.357408128159300
 Root      2 :    10.357519552222290
 Root      3 :    10.357539200189930
 Root      4 :    12.806904659471580
 Root      5 :    12.806917020003640
 Root      6 :    12.806993759360750
 Root      7 :    12.934066343241890
 Root      8 :    12.934088189678020
 Root      9 :    12.934110667491460
 Root     10 :    13.118446230999260
 Root     11 :    13.118486921001120
 Root     12 :    13.435746036509140
 Root     13 :    13.435768870215080
 Root     14 :    13.435813501177410
 Root     15 :    13.590171454729180
 Root     16 :    13.590231811296170
 Root     17 :    13.620031297389420
 Root     18 :    14.372007845600900
 Root     19 :    14.372026766555360
 Root     20 :    14.372052463848490
 Root     21 :    14.404214333333520
 Root     22 :    14.404299867271570
 Root     23 :    14.404336379699620
 Root     24 :    14.858030482773360
 Root     25 :    14.858061997926900
 Root     26 :    14.858065701346990
 Root     27 :    15.136029849561900
 Root     28 :    17.018108261612710
 Root     29 :    17.018217442242000
 Root     30 :    17.018239340345970
 Root     31 :    18.529401117912000
 Root     32 :    18.529508990968590
 Root     33 :    18.529531698309730
 Root     34 :    18.836277719373630
 Root     35 :    18.836295950620390
 Root     36 :    18.956927255598040
 Root     37 :    18.956954201449810
 Root     38 :    18.957005440385150
 Root     39 :    18.960440516997830
 Root     40 :    18.960458468798150
 Root     41 :    18.960543167852770
 Root     42 :    18.987946199254880
 Root     43 :    19.068180447249800
 Root     44 :    19.068191407712600
 Root     45 :    19.086784756398850
 Root     46 :    19.086811053842240
 Root     47 :    19.086867313242240
 Root     48 :    19.124679038171890
 Root     49 :    19.819451828077800
 Root     50 :    19.819478032723650
 Root     51 :    19.819522944589990
 Root     52 :    20.085108184059720
 Root     53 :    20.434377368250240
 Root     54 :    20.434401055861250
 Root     55 :    20.434468873588910
 Root     56 :    20.495774510117100
 Root     57 :    20.495837520717220
 Root     58 :    20.495877092677680
 Root     59 :    20.773200186382350
 Root     60 :    20.773213443373170
 Root     61 :    21.718605386024950
 Root     62 :    21.718631638040360
 Root     63 :    21.718647980597580
 Root     64 :    21.976793324531710
 Root     65 :    21.976884844207440
 Root     66 :    21.976920181111240
 Root     67 :    22.060067929529430
 Root     68 :    22.457169481513620
 Root     69 :    22.457182949410370
 Root     70 :    22.457206839776040
 Root     71 :    22.900052839810780
 Root     72 :    22.900077348049730
 Root     73 :    22.900099137959220
 Root     74 :    23.126323160930780
 Root     75 :    23.126343097237750
 Root     76 :    25.972933620707810
 Root     77 :    27.368019407293910
 Root     78 :    27.562769220144580
 Root     79 :    27.562779753380060
 Root     80 :    27.562812653398640
 Root     81 :    28.024086969031500
 Root     82 :    28.024125445765180
 Root     83 :    28.024149735742720
 Root     84 :    29.236869724049660
 Root     85 :    29.236928055933930
 Root     86 :    29.237022222997010
 Root     87 :    30.336541682977600
 Root     88 :    30.336630881326130
 Root     89 :    30.450830076393440
 Root     90 :    30.450895976865890
 Root     91 :    30.451035275541330
 Root     92 :    30.893541416190460
 Root     93 :    30.893551004472080
 Root     94 :    31.414691514547550
 Root     95 :    31.727767857468710
 Root     96 :    31.727848838204400
 Root     97 :    31.727991319542890
 Root     98 :    33.566776201449830
 Root     99 :    33.566818193897690
 Root    100 :    33.566854428133620
 Root    101 :    33.644321399166850
 Root    102 :    33.644447574840340
 Root    103 :    33.644643659532300
 Root    104 :    33.853162856701240
 Root    105 :    33.853221475683770
 Root    106 :    34.185839790652370
 Root    107 :    34.185901128348730
 Root    108 :    34.185934583249930
 Root    109 :    37.966826222009460
 Root    110 :    38.500442564342160
 Root    111 :    38.500497264758310
 Root    112 :    38.500579533309510
 Root    113 :    39.467126324264910
 Root    114 :    39.467308212603990
 Root    115 :    39.467387736295390
 Root    116 :    42.524881209535090
 Root    117 :    42.525009294502180
 Root    118 :    42.525199271569530
 Root    119 :    43.552268690629810
 Root    120 :    47.745276386484480
 Root    121 :    50.204415846424270
 Root    122 :    50.204453471906000
 Root    123 :    50.204508651976730
 Root    124 :    51.473573425999850
 Root    125 :    51.473780497969110
 Root    126 :    51.473863876762050
 Root    127 :    54.510275678249740
 Root    128 :    54.533710558116330
 Root    129 :    54.533824595300390
 Root    130 :    54.533961551064620
 Root    131 :    54.584763729999380
 Root    132 :    54.584807824843790
 Root    133 :    54.584985829859030
 Root    134 :    54.699111271961770
 Root    135 :    54.699169912502850
 Root    136 :    58.369812297039730
 Root    137 :    58.920230095473460
 Root    138 :    58.920270152294560
 Root    139 :    59.756522201813040
 Root    140 :    59.756655248757590
 Root    141 :    59.756850232279220
 Root    142 :    59.962139180384870
 Root    143 :    59.962217091652000
 Root    144 :    60.307776906311560
 Root    145 :    60.307914150401300
 Root    146 :    60.308328330783770
 Root    147 :    62.925854600698940
 Root    148 :    62.925993774083950
 Root    149 :    62.926218833291680
 Root    150 :    67.991224290479250
 Root    151 :    67.991590478650350
 Root    152 :    67.991850641242380
 Root    153 :    69.118990706391370
 Root    154 :    69.119009147020890
 Root    155 :    69.462586996383680
 Root    156 :    69.462854654203260
 Root    157 :    69.463205162915610
 Root    158 :    69.753063859309550
 Root    159 :    69.983136428981200
 Root    160 :    69.983316015277370
 Root    161 :    69.983594041798820
 Root    162 :    77.663318416057920
 Root    163 :    77.663720044765870
 Root    164 :    77.664256673570250
 Root    165 :    78.471601774721630
 Root    166 :    78.471704285062340
 Root    167 :    78.471771692446410
 Root    168 :    79.856877148835620
 Root    169 :    79.857234217191150
 Root    170 :    79.857467023258470
 Root    171 :    80.494282368473750
 Root    172 :    80.494397243351140
 Root    173 :    80.494440835565780
 Root    174 :    87.561525573582200
 Root    175 :    87.561647424988020
 Root    176 :    89.064181162819760
 Root    177 :    89.717898682153080
 Root    178 :    89.717967218672200
 Root    179 :    90.734880937356180
 Root    180 :    90.735022979212320
 Root    181 :    90.735328837184480
 Root    182 :    91.026354246791880
 Root    183 :    91.026574607206330
 Root    184 :    91.027054266904230
 Root    185 :    91.702569153464680
 Root    186 :    99.104649001143510
 Root    187 :    99.105101298602720
 Root    188 :    99.105693270465250
 Convergence achieved for final wavefunctions.
 ***********************************************************************
 Excited states from <AA,BB:AA,BB> singles matrix:
 ***********************************************************************
 
 1PDM for each excited state written to RWF  633
 Ground to excited state transition densities written to RWF  633
 Ground to excited state transition electric dipole moments (Au):
       state          X           Y           Z        Dip. S.      Osc.
         1         0.1968     -0.1510     -0.6026      0.4246      0.1078
         2        -0.5356     -0.3615     -0.0843      0.4247      0.1078
         3         0.3148     -0.5207      0.2333      0.4246      0.1078
         4         0.0001      0.0001      0.0003      0.0000      0.0000
         5         0.0001     -0.0002      0.0001      0.0000      0.0000
         6        -0.0001      0.0000     -0.0001      0.0000      0.0000
         7         0.3124      0.5714      0.2596      0.4915      0.1557
         8         0.5730     -0.3780      0.1425      0.4915      0.1557
         9         0.2561      0.1487     -0.6354      0.4914      0.1557
        10        -0.0001      0.0000     -0.0001      0.0000      0.0000
        11        -0.0001      0.0002     -0.0000      0.0000      0.0000
        12        -0.0000      0.0000      0.0000      0.0000      0.0000
        13         0.0000     -0.0000      0.0001      0.0000      0.0000
        14        -0.0000     -0.0000      0.0000      0.0000      0.0000
        15        -0.0000     -0.0000     -0.0000      0.0000      0.0000
        16         0.0000      0.0000      0.0000      0.0000      0.0000
        17        -0.0000      0.0001      0.0000      0.0000      0.0000
        18        -0.0088     -0.0307     -0.1470      0.0226      0.0080
        19         0.0249      0.1450     -0.0316      0.0226      0.0080
        20        -0.1480      0.0263      0.0032      0.0226      0.0080
        21         0.0001     -0.0001      0.0003      0.0000      0.0000
        22         0.0002      0.0001     -0.0001      0.0000      0.0000
        23         0.0000     -0.0001      0.0001      0.0000      0.0000
        24         1.3953      0.0137     -0.3509      2.0702      0.7536
        25         0.0620     -1.4247      0.1909      2.0701      0.7535
        26         0.3456      0.2002      1.3822      2.0701      0.7536
        27        -0.0000     -0.0000      0.0000      0.0000      0.0000
        28        -0.1109      0.0694      0.4310      0.2029      0.0846
        29         0.3141      0.3215      0.0291      0.2029      0.0846
        30        -0.3032      0.3077     -0.1276      0.2029      0.0846
        31        -0.0637      0.0524      0.2010      0.0472      0.0214
        32         0.1730      0.1298      0.0209      0.0472      0.0214
        33        -0.1150      0.1662     -0.0797      0.0472      0.0214
        34         0.0000      0.0000      0.0000      0.0000      0.0000
        35        -0.0000     -0.0000      0.0000      0.0000      0.0000
        36        -0.0728      0.0434     -0.0203      0.0076      0.0035
        37        -0.0452     -0.0744      0.0029      0.0076      0.0035
        38        -0.0159      0.0129      0.0846      0.0076      0.0035
        39         0.0002      0.0003      0.0003      0.0000      0.0000
        40         0.0001     -0.0003      0.0001      0.0000      0.0000
        41        -0.0002     -0.0001     -0.0001      0.0000      0.0000
        42         0.0000     -0.0000     -0.0000      0.0000      0.0000
        43         0.0000     -0.0000      0.0000      0.0000      0.0000
        44        -0.0000     -0.0000     -0.0000      0.0000      0.0000
        45         0.0000     -0.0000     -0.0000      0.0000      0.0000
        46        -0.0000     -0.0000     -0.0000      0.0000      0.0000
        47        -0.0000      0.0000     -0.0000      0.0000      0.0000
        48        -0.0000      0.0000      0.0000      0.0000      0.0000
        49        -0.0638     -0.4750     -0.3216      0.3331      0.1618
        50         0.2173     -0.3195      0.4288      0.3331      0.1618
        51         0.5309      0.0737     -0.2141      0.3331      0.1618
        52         0.0000     -0.0001     -0.0000      0.0000      0.0000
        53        -0.0001     -0.0001     -0.0000      0.0000      0.0000
        54        -0.0000     -0.0001     -0.0000      0.0000      0.0000
        55        -0.0002     -0.0000     -0.0000      0.0000      0.0000
        56        -0.0155     -0.0701     -0.0983      0.0148      0.0074
        57         0.0002      0.0991     -0.0707      0.0148      0.0074
        58         0.1208     -0.0092     -0.0125      0.0148      0.0074
        59        -0.0000      0.0000      0.0000      0.0000      0.0000
        60         0.0000     -0.0001      0.0000      0.0000      0.0000
        61         0.1010     -0.0955      0.2576      0.0857      0.0456
        62        -0.0134     -0.2758     -0.0970      0.0857      0.0456
        63         0.2744      0.0216     -0.0996      0.0857      0.0456
        64        -0.0000      0.0000     -0.0000      0.0000      0.0000
        65        -0.0000     -0.0000      0.0000      0.0000      0.0000
        66        -0.0000      0.0000      0.0000      0.0000      0.0000
        67         0.0000     -0.0001     -0.0000      0.0000      0.0000
        68         0.3886      0.0618     -0.3135      0.2531      0.1392
        69         0.2833      0.1616      0.3830      0.2531      0.1392
        70        -0.1478      0.4724     -0.0900      0.2531      0.1392
        71        -0.5007     -0.1470      0.2575      0.3386      0.1900
        72        -0.2902      0.1391     -0.4848      0.3386      0.1900
        73        -0.0609      0.5456      0.1930      0.3386      0.1900
        74         0.0000      0.0001      0.0000      0.0000      0.0000
        75         0.0000     -0.0000      0.0000      0.0000      0.0000
        76        -0.0000     -0.0000     -0.0000      0.0000      0.0000
        77         0.0000     -0.0000     -0.0000      0.0000      0.0000
        78        -0.0000     -0.0000      0.0000      0.0000      0.0000
        79         0.0000      0.0000     -0.0000      0.0000      0.0000
        80         0.0000      0.0000      0.0000      0.0000      0.0000
        81        -0.0035     -0.0014     -0.0135      0.0002      0.0001
        82        -0.0019      0.0139     -0.0010      0.0002      0.0001
        83         0.0135      0.0016     -0.0037      0.0002      0.0001
        84         0.0164      0.0567      0.0746      0.0091      0.0065
        85        -0.0125      0.0764     -0.0553      0.0091      0.0065
        86         0.0929      0.0003     -0.0206      0.0091      0.0065
        87         0.0000      0.0000     -0.0000      0.0000      0.0000
        88        -0.0000      0.0000      0.0000      0.0000      0.0000
        89         0.0000      0.0000      0.0000      0.0000      0.0000
        90         0.0000     -0.0000     -0.0000      0.0000      0.0000
        91        -0.0000     -0.0000     -0.0000      0.0000      0.0000
        92        -0.0000     -0.0000      0.0000      0.0000      0.0000
        93        -0.0000      0.0001     -0.0000      0.0000      0.0000
        94         0.0001     -0.0002     -0.0001      0.0000      0.0000
        95        -0.0382     -0.2415     -0.3870      0.2095      0.1629
        96        -0.1535      0.3725     -0.2173      0.2095      0.1629
        97         0.4295      0.1116     -0.1121      0.2095      0.1629
        98        -0.0001      0.0001     -0.0000      0.0000      0.0000
        99        -0.0001      0.0002     -0.0003      0.0000      0.0000
       100        -0.0001     -0.0000     -0.0005      0.0000      0.0000
       101        -0.2875      0.0058      0.0051      0.0827      0.0682
       102        -0.0068     -0.2786     -0.0708      0.0827      0.0682
       103        -0.0035      0.0708     -0.2787      0.0827      0.0682
       104        -0.0001      0.0000     -0.0000      0.0000      0.0000
       105        -0.0000      0.0001     -0.0000      0.0000      0.0000
       106         0.0864      0.0299     -0.2115      0.0531      0.0445
       107        -0.1913     -0.0906     -0.0910      0.0531      0.0445
       108         0.0949     -0.2098      0.0092      0.0531      0.0445
       109         0.0000      0.0000      0.0000      0.0000      0.0000
       110         0.0193      0.0003     -0.0134      0.0006      0.0005
       111        -0.0095     -0.0163     -0.0140      0.0006      0.0005
       112         0.0095     -0.0169      0.0133      0.0006      0.0005
       113         0.0077     -0.0144     -0.2055      0.0425      0.0411
       114        -0.0651     -0.1953      0.0112      0.0425      0.0411
       115        -0.1954      0.0644     -0.0119      0.0425      0.0411
       116        -0.2490      0.0208     -0.0215      0.0629      0.0655
       117         0.0208      0.2499      0.0008      0.0629      0.0655
       118        -0.0215      0.0010      0.2498      0.0629      0.0655
       119        -0.0000     -0.0000     -0.0000      0.0000      0.0000
       120        -0.0000     -0.0000     -0.0000      0.0000      0.0000
       121         0.0000      0.0000      0.0000      0.0000      0.0000
       122         0.0000      0.0000     -0.0000      0.0000      0.0000
       123        -0.0000     -0.0000      0.0000      0.0000      0.0000
       124         0.3923      0.2610      0.0171      0.2223      0.2803
       125         0.2350     -0.3653      0.1833      0.2223      0.2803
       126        -0.1147      0.1440      0.4340      0.2223      0.2803
       127        -0.0000     -0.0000     -0.0000      0.0000      0.0000
       128        -0.0000      0.0001     -0.0003      0.0000      0.0000
       129        -0.0001     -0.0003      0.0004      0.0000      0.0000
       130        -0.0001     -0.0003     -0.0005      0.0000      0.0000
       131        -0.2997      0.0105      0.0015      0.0900      0.1203
       132        -0.0103     -0.2985      0.0279      0.0900      0.1203
       133         0.0025      0.0279      0.2987      0.0900      0.1203
       134        -0.0001     -0.0003     -0.0002      0.0000      0.0000
       135         0.0001     -0.0001      0.0001      0.0000      0.0000
       136        -0.0000      0.0000     -0.0000      0.0000      0.0000
       137         0.0000      0.0000      0.0000      0.0000      0.0000
       138         0.0000     -0.0000      0.0000      0.0000      0.0000
       139         0.0000      0.0000      0.0000      0.0000      0.0000
       140         0.0000      0.0000     -0.0000      0.0000      0.0000
       141         0.0000      0.0000      0.0001      0.0000      0.0000
       142         0.0000     -0.0000      0.0000      0.0000      0.0000
       143         0.0000      0.0001      0.0000      0.0000      0.0000
       144        -0.1889      0.0048      0.0036      0.0357      0.0528
       145        -0.0053     -0.1864     -0.0305      0.0357      0.0528
       146        -0.0028      0.0305     -0.1864      0.0357      0.0527
       147        -0.0000      0.0000      0.0000      0.0000      0.0000
       148        -0.0000      0.0000      0.0000      0.0000      0.0000
       149         0.0000     -0.0000      0.0000      0.0000      0.0000
       150         0.0389      0.0011     -0.0026      0.0015      0.0025
       151        -0.0007      0.0386      0.0049      0.0015      0.0025
       152        -0.0027      0.0048     -0.0385      0.0015      0.0025
       153        -0.0000      0.0000     -0.0000      0.0000      0.0000
       154         0.0000     -0.0000      0.0000      0.0000      0.0000
       155         0.0000     -0.0000     -0.0000      0.0000      0.0000
       156         0.0000     -0.0000     -0.0000      0.0000      0.0000
       157        -0.0000     -0.0000      0.0000      0.0000      0.0000
       158         0.0000     -0.0001      0.0000      0.0000      0.0000
       159         0.0020      0.0038      0.0258      0.0007      0.0012
       160         0.0003      0.0259     -0.0038      0.0007      0.0012
       161         0.0261     -0.0006     -0.0019      0.0007      0.0012
       162         0.0057      0.0049      0.0471      0.0023      0.0043
       163         0.0008     -0.0474      0.0049      0.0023      0.0043
       164         0.0473      0.0002     -0.0057      0.0023      0.0043
       165        -0.0000     -0.0000      0.0000      0.0000      0.0000
       166         0.0000      0.0000      0.0000      0.0000      0.0000
       167         0.0000      0.0000     -0.0000      0.0000      0.0000
       168         0.0731      0.0735      0.0045      0.0108      0.0210
       169        -0.0730      0.0731     -0.0088      0.0108      0.0210
       170         0.0094     -0.0030     -0.1032      0.0108      0.0210
       171         0.0074     -0.0065     -0.0269      0.0008      0.0016
       172        -0.0271     -0.0078     -0.0056      0.0008      0.0016
       173         0.0060     -0.0269      0.0082      0.0008      0.0016
       174        -0.0000     -0.0000     -0.0000      0.0000      0.0000
       175        -0.0000      0.0000     -0.0000      0.0000      0.0000
       176        -0.0000     -0.0000     -0.0000      0.0000      0.0000
       177        -0.0000     -0.0000     -0.0000      0.0000      0.0000
       178        -0.0000      0.0000     -0.0000      0.0000      0.0000
       179        -0.0001     -0.0000      0.0000      0.0000      0.0000
       180        -0.0000      0.0000     -0.0000      0.0000      0.0000
       181        -0.0000      0.0000     -0.0001      0.0000      0.0000
       182         0.1413      0.0581      0.0060      0.0234      0.0521
       183         0.0584     -0.1404     -0.0163      0.0234      0.0521
       184        -0.0007      0.0174     -0.1519      0.0234      0.0521
       185         0.0000     -0.0001      0.0000      0.0000      0.0000
       186         0.1019      0.0025     -0.0021      0.0104      0.0253
       187         0.0023     -0.1015     -0.0103      0.0104      0.0253
       188        -0.0023      0.0102     -0.1015      0.0104      0.0253
 Ground to excited state transition velocity dipole moments (Au):
       state          X           Y           Z        Dip. S.      Osc.
         1        -0.0817      0.0627      0.2502      0.0732      0.1283
         2         0.2224      0.1501      0.0350      0.0732      0.1283
         3        -0.1307      0.2162     -0.0969      0.0732      0.1283
         4        -0.0001     -0.0000     -0.0002      0.0000      0.0000
         5        -0.0001      0.0001     -0.0001      0.0000      0.0000
         6         0.0000     -0.0000      0.0000      0.0000      0.0000
         7        -0.1540     -0.2817     -0.1280      0.1195      0.1676
         8        -0.2825      0.1864     -0.0702      0.1195      0.1676
         9        -0.1263     -0.0733      0.3133      0.1195      0.1675
        10         0.0000     -0.0000      0.0000      0.0000      0.0000
        11         0.0000     -0.0001      0.0000      0.0000      0.0000
        12         0.0000     -0.0000     -0.0000      0.0000      0.0000
        13        -0.0000      0.0000     -0.0000      0.0000      0.0000
        14         0.0000      0.0000     -0.0000      0.0000      0.0000
        15         0.0000      0.0000      0.0000      0.0000      0.0000
        16        -0.0000     -0.0000     -0.0000      0.0000      0.0000
        17         0.0000     -0.0000     -0.0000      0.0000      0.0000
        18         0.0042      0.0148      0.0712      0.0053      0.0067
        19        -0.0120     -0.0702      0.0153      0.0053      0.0067
        20         0.0716     -0.0127     -0.0016      0.0053      0.0067
        21        -0.0001      0.0000     -0.0001      0.0000      0.0000
        22        -0.0001     -0.0000      0.0001      0.0000      0.0000
        23        -0.0000      0.0000     -0.0000      0.0000      0.0000
        24        -0.7884     -0.0077      0.1983      0.6610      0.8070
        25        -0.0350      0.8050     -0.1079      0.6610      0.8070
        26        -0.1953     -0.1131     -0.7810      0.6610      0.8070
        27         0.0000      0.0000     -0.0000      0.0000      0.0000
        28         0.0711     -0.0445     -0.2763      0.0834      0.0889
        29        -0.2014     -0.2061     -0.0186      0.0834      0.0889
        30         0.1944     -0.1973      0.0818      0.0834      0.0889
        31         0.0444     -0.0366     -0.1403      0.0230      0.0225
        32        -0.1208     -0.0906     -0.0146      0.0230      0.0225
        33         0.0803     -0.1160      0.0557      0.0230      0.0225
        34        -0.0000     -0.0000     -0.0000      0.0000      0.0000
        35         0.0000      0.0000     -0.0000      0.0000      0.0000
        36         0.0846     -0.0504      0.0236      0.0102      0.0098
        37         0.0525      0.0865     -0.0033      0.0102      0.0098
        38         0.0185     -0.0150     -0.0984      0.0102      0.0098
        39        -0.0002     -0.0004     -0.0003      0.0000      0.0000
        40        -0.0001      0.0003     -0.0001      0.0000      0.0000
        41         0.0003      0.0001      0.0001      0.0000      0.0000
        42         0.0000      0.0000      0.0000      0.0000      0.0000
        43        -0.0000      0.0000     -0.0000      0.0000      0.0000
        44        -0.0000     -0.0000      0.0000      0.0000      0.0000
        45        -0.0000      0.0000     -0.0000      0.0000      0.0000
        46         0.0000      0.0000      0.0000      0.0000      0.0000
        47        -0.0000     -0.0000     -0.0000      0.0000      0.0000
        48         0.0000     -0.0000     -0.0000      0.0000      0.0000
        49         0.0479      0.3570      0.2417      0.1882      0.1722
        50        -0.1633      0.2401     -0.3223      0.1882      0.1722
        51        -0.3990     -0.0554      0.1609      0.1882      0.1722
        52        -0.0000      0.0001      0.0000      0.0000      0.0000
        53         0.0001      0.0001      0.0000      0.0000      0.0000
        54         0.0000      0.0001      0.0000      0.0000      0.0000
        55         0.0001      0.0000      0.0000      0.0000      0.0000
        56         0.0123      0.0558      0.0782      0.0094      0.0083
        57        -0.0002     -0.0788      0.0563      0.0094      0.0083
        58        -0.0961      0.0073      0.0099      0.0094      0.0083
        59         0.0000     -0.0000     -0.0000      0.0000      0.0000
        60        -0.0000      0.0001     -0.0000      0.0000      0.0000
        61        -0.0880      0.0832     -0.2243      0.0650      0.0543
        62         0.0117      0.2402      0.0845      0.0650      0.0543
        63        -0.2390     -0.0189      0.0867      0.0650      0.0543
        64         0.0000     -0.0000      0.0000      0.0000      0.0000
        65         0.0000      0.0000     -0.0000      0.0000      0.0000
        66         0.0000     -0.0000     -0.0000      0.0000      0.0000
        67        -0.0000      0.0000      0.0000      0.0000      0.0000
        68        -0.3324     -0.0529      0.2682      0.1852      0.1496
        69        -0.2424     -0.1383     -0.3277      0.1852      0.1496
        70         0.1264     -0.4041      0.0770      0.1852      0.1496
        71         0.4493      0.1319     -0.2311      0.2726      0.2160
        72         0.2604     -0.1248      0.4350      0.2726      0.2160
        73         0.0547     -0.4896     -0.1731      0.2726      0.2160
        74        -0.0000     -0.0001     -0.0000      0.0000      0.0000
        75        -0.0000      0.0000     -0.0000      0.0000      0.0000
        76        -0.0000      0.0000      0.0000      0.0000      0.0000
        77        -0.0000      0.0000     -0.0000      0.0000      0.0000
        78         0.0000     -0.0000     -0.0000      0.0000      0.0000
        79        -0.0000      0.0000      0.0000      0.0000      0.0000
        80        -0.0000     -0.0000     -0.0000      0.0000      0.0000
        81         0.0146      0.0060      0.0565      0.0034      0.0022
        82         0.0079     -0.0580      0.0041      0.0034      0.0022
        83        -0.0563     -0.0066      0.0152      0.0034      0.0022
        84        -0.0138     -0.0476     -0.0627      0.0064      0.0040
        85         0.0105     -0.0642      0.0464      0.0064      0.0040
        86        -0.0780     -0.0003      0.0173      0.0064      0.0040
        87        -0.0000     -0.0000      0.0000      0.0000      0.0000
        88         0.0000     -0.0000     -0.0000      0.0000      0.0000
        89         0.0000     -0.0000     -0.0000      0.0000      0.0000
        90        -0.0000      0.0000      0.0000      0.0000      0.0000
        91         0.0000      0.0000      0.0000      0.0000      0.0000
        92         0.0000      0.0000     -0.0000      0.0000      0.0000
        93         0.0000     -0.0001      0.0000      0.0000      0.0000
        94        -0.0001      0.0002      0.0001      0.0000      0.0000
        95         0.0448      0.2834      0.4541      0.2886      0.1650
        96         0.1802     -0.4371      0.2550      0.2886      0.1650
        97        -0.5041     -0.1310      0.1315      0.2886      0.1650
        98         0.0001     -0.0001      0.0000      0.0000      0.0000
        99         0.0001     -0.0002      0.0003      0.0000      0.0000
       100         0.0001      0.0000      0.0006      0.0000      0.0000
       101         0.3228     -0.0065     -0.0057      0.1043      0.0562
       102         0.0077      0.3129      0.0795      0.1043      0.0562
       103         0.0039     -0.0795      0.3130      0.1043      0.0562
       104         0.0001     -0.0000      0.0000      0.0000      0.0000
       105         0.0000     -0.0001      0.0000      0.0000      0.0000
       106        -0.1218     -0.0421      0.2982      0.1055      0.0560
       107         0.2697      0.1277      0.1282      0.1055      0.0560
       108        -0.1338      0.2957     -0.0130      0.1055      0.0560
       109        -0.0000     -0.0000     -0.0000      0.0000      0.0000
       110        -0.0791     -0.0011      0.0548      0.0093      0.0044
       111         0.0388      0.0669      0.0572      0.0093      0.0044
       112        -0.0388      0.0691     -0.0545      0.0093      0.0044
       113        -0.0119      0.0221      0.3155      0.1002      0.0461
       114         0.0999      0.2998     -0.0172      0.1002      0.0460
       115         0.3001     -0.0990      0.0182      0.1002      0.0460
       116         0.4337     -0.0363      0.0375      0.1909      0.0814
       117        -0.0363     -0.4354     -0.0014      0.1909      0.0814
       118         0.0375     -0.0017     -0.4353      0.1909      0.0814
       119         0.0000      0.0000      0.0000      0.0000      0.0000
       120         0.0000      0.0000      0.0000      0.0000      0.0000
       121        -0.0001     -0.0000     -0.0000      0.0000      0.0000
       122        -0.0000     -0.0000      0.0001      0.0000      0.0000
       123         0.0001      0.0000     -0.0000      0.0000      0.0000
       124        -0.6192     -0.4120     -0.0269      0.5538      0.1952
       125        -0.3710      0.5766     -0.2894      0.5538      0.1952
       126         0.1810     -0.2273     -0.6851      0.5538      0.1952
       127         0.0000      0.0000      0.0000      0.0000      0.0000
       128         0.0001     -0.0002      0.0004      0.0000      0.0000
       129         0.0001      0.0004     -0.0006      0.0000      0.0000
       130         0.0002      0.0004      0.0008      0.0000      0.0000
       131         0.5101     -0.0179     -0.0025      0.2605      0.0866
       132         0.0176      0.5079     -0.0475      0.2605      0.0866
       133        -0.0042     -0.0474     -0.5082      0.2605      0.0866
       134         0.0001      0.0006      0.0003      0.0000      0.0000
       135        -0.0002      0.0002     -0.0002      0.0000      0.0000
       136         0.0000     -0.0000      0.0000      0.0000      0.0000
       137        -0.0000     -0.0000     -0.0000      0.0000      0.0000
       138        -0.0000      0.0000     -0.0000      0.0000      0.0000
       139        -0.0001     -0.0000     -0.0000      0.0000      0.0000
       140        -0.0000     -0.0000      0.0001      0.0000      0.0000
       141        -0.0000     -0.0000     -0.0001      0.0000      0.0000
       142        -0.0001      0.0000     -0.0000      0.0000      0.0000
       143        -0.0000     -0.0002     -0.0001      0.0000      0.0000
       144         0.3915     -0.0100     -0.0076      0.1534      0.0461
       145         0.0111      0.3864      0.0631      0.1534      0.0461
       146         0.0058     -0.0633      0.3865      0.1534      0.0461
       147        -0.0000     -0.0000     -0.0000      0.0000      0.0000
       148         0.0000     -0.0000     -0.0000      0.0000      0.0000
       149        -0.0000      0.0000     -0.0000      0.0000      0.0000
       150        -0.0332     -0.0009      0.0022      0.0011      0.0003
       151         0.0006     -0.0330     -0.0042      0.0011      0.0003
       152         0.0023     -0.0041      0.0330      0.0011      0.0003
       153         0.0000     -0.0000      0.0000      0.0000      0.0000
       154        -0.0000      0.0000     -0.0000      0.0000      0.0000
       155        -0.0000      0.0000      0.0000      0.0000      0.0000
       156        -0.0000      0.0000      0.0000      0.0000      0.0000
       157         0.0001      0.0000     -0.0000      0.0000      0.0000
       158        -0.0001      0.0002     -0.0000      0.0000      0.0000
       159        -0.0067     -0.0126     -0.0865      0.0077      0.0020
       160        -0.0011     -0.0867      0.0128      0.0077      0.0020
       161        -0.0874      0.0021      0.0065      0.0077      0.0020
       162        -0.0115     -0.0100     -0.0952      0.0093      0.0022
       163        -0.0016      0.0958     -0.0099      0.0093      0.0022
       164        -0.0956     -0.0004      0.0116      0.0093      0.0022
       165         0.0000      0.0000     -0.0000      0.0000      0.0000
       166        -0.0001     -0.0000     -0.0000      0.0000      0.0000
       167        -0.0000     -0.0000      0.0000      0.0000      0.0000
       168        -0.2043     -0.2055     -0.0125      0.0841      0.0191
       169         0.2042     -0.2045      0.0246      0.0841      0.0191
       170        -0.0262      0.0085      0.2887      0.0841      0.0191
       171        -0.0069      0.0060      0.0247      0.0007      0.0002
       172         0.0249      0.0071      0.0051      0.0007      0.0002
       173        -0.0055      0.0247     -0.0075      0.0007      0.0002
       174         0.0000      0.0000      0.0000      0.0000      0.0000
       175         0.0000     -0.0000      0.0000      0.0000      0.0000
       176         0.0000      0.0000      0.0000      0.0000      0.0000
       177         0.0000      0.0001      0.0000      0.0000      0.0000
       178         0.0001     -0.0000      0.0000      0.0000      0.0000
       179         0.0002      0.0001     -0.0000      0.0000      0.0000
       180         0.0000     -0.0001      0.0001      0.0000      0.0000
       181         0.0001     -0.0000      0.0004      0.0000      0.0000
       182        -0.4109     -0.1689     -0.0175      0.1977      0.0394
       183        -0.1698      0.4081      0.0474      0.1977      0.0394
       184         0.0019     -0.0505      0.4417      0.1976      0.0394
       185        -0.0001      0.0003     -0.0001      0.0000      0.0000
       186        -0.3019     -0.0074      0.0061      0.0912      0.0167
       187        -0.0067      0.3004      0.0305      0.0912      0.0167
       188         0.0068     -0.0303      0.3004      0.0912      0.0167
 Ground to excited state transition magnetic dipole moments (Au):
       state          X           Y           Z
         1         0.0000      0.0000      0.0000
         2         0.0000     -0.0000     -0.0000
         3        -0.0000     -0.0000      0.0000
         4         0.5263     -0.0503      0.0819
         5         0.0687      0.5157     -0.1249
         6         0.0671     -0.1333     -0.5138
         7        -0.0002      0.0001     -0.0001
         8        -0.0002     -0.0002     -0.0000
         9         0.0002      0.0001      0.0001
        10         0.0000     -0.0000      0.0000
        11        -0.0000     -0.0000      0.0000
        12         0.1777     -0.7719      0.3505
        13         0.7594      0.3041      0.2848
        14         0.3769     -0.2489     -0.7391
        15        -0.0001      0.0002     -0.0001
        16        -0.0001     -0.0001      0.0000
        17        -0.0000      0.0000     -0.0000
        18         0.0006      0.0002     -0.0000
        19         0.0003      0.0001      0.0002
        20         0.0001      0.0002     -0.0004
        21         0.2942      0.0537     -0.1713
        22        -0.1773      0.1386     -0.2610
        23         0.0282      0.3109      0.1459
        24        -0.0000     -0.0000     -0.0000
        25        -0.0000     -0.0000      0.0000
        26        -0.0000      0.0000     -0.0000
        27         0.0000      0.0000     -0.0000
        28         0.0000      0.0000      0.0000
        29        -0.0000      0.0000     -0.0000
        30        -0.0000     -0.0000      0.0000
        31        -0.0000     -0.0000     -0.0000
        32        -0.0000      0.0000      0.0000
        33         0.0000      0.0000      0.0000
        34         0.0000      0.0000     -0.0000
        35        -0.0000      0.0000     -0.0000
        36         0.0004      0.0009      0.0008
        37         0.0013     -0.0012      0.0014
        38        -0.0011      0.0002     -0.0005
        39         0.3868     -0.1177      0.0772
        40         0.1293      0.3863     -0.0590
        41         0.0556     -0.0798     -0.4000
        42        -0.0000     -0.0001      0.0000
        43        -0.0000      0.0000      0.0000
        44        -0.0000     -0.0000     -0.0000
        45         0.0163      0.0655      0.0656
        46        -0.0221      0.0675     -0.0618
        47         0.0901      0.0048     -0.0270
        48        -0.0001      0.0002      0.0001
        49         0.0000     -0.0000      0.0000
        50        -0.0000     -0.0000     -0.0000
        51         0.0000     -0.0000      0.0000
        52         0.0000      0.0000     -0.0000
        53        -0.1637      0.0482     -0.0382
        54         0.0602      0.1482     -0.0706
        55         0.0129     -0.0792     -0.1554
        56         0.0001     -0.0001      0.0001
        57         0.0000      0.0001     -0.0000
        58        -0.0001     -0.0001     -0.0001
        59         0.0000      0.0000      0.0000
        60         0.0000      0.0000      0.0000
        61         0.0001      0.0000     -0.0000
        62        -0.0000     -0.0000      0.0000
        63        -0.0000      0.0000     -0.0000
        64        -0.3745     -0.0915      0.2710
        65         0.2857     -0.1423      0.3467
        66        -0.0145     -0.4399     -0.1685
        67         0.0000     -0.0000     -0.0000
        68         0.0000     -0.0000      0.0000
        69        -0.0000     -0.0000      0.0000
        70         0.0000      0.0000      0.0000
        71        -0.0000      0.0000     -0.0000
        72         0.0000      0.0000     -0.0000
        73        -0.0000      0.0000      0.0000
        74         0.0000      0.0000     -0.0000
        75         0.0000      0.0000      0.0000
        76         0.0000     -0.0000     -0.0000
        77        -0.0000      0.0000      0.0000
        78        -0.0146     -0.0019     -0.1109
        79         0.0193      0.1101     -0.0045
        80        -0.1092      0.0197      0.0140
        81         0.0000      0.0000      0.0000
        82         0.0000      0.0000      0.0000
        83        -0.0000     -0.0000     -0.0000
        84        -0.0000      0.0000      0.0000
        85         0.0000     -0.0000     -0.0000
        86         0.0000     -0.0000      0.0000
        87        -0.0000     -0.0004     -0.0000
        88        -0.0001      0.0001     -0.0001
        89        -0.5256      0.1702     -0.0649
        90         0.1748      0.5270     -0.0336
        91         0.0513     -0.0521     -0.5514
        92         0.0000     -0.0000     -0.0000
        93         0.0000      0.0000      0.0000
        94         0.0000     -0.0000      0.0000
        95        -0.0000     -0.0000      0.0000
        96        -0.0000     -0.0000     -0.0000
        97        -0.0000     -0.0000     -0.0000
        98        -0.0005      0.0094     -0.0195
        99         0.0007      0.0195      0.0094
       100         0.0216     -0.0004     -0.0007
       101        -0.0000     -0.0000      0.0000
       102        -0.0000      0.0000      0.0000
       103        -0.0001     -0.0000     -0.0000
       104         0.0000      0.0000     -0.0000
       105         0.0000      0.0000      0.0000
       106        -0.0000     -0.0000     -0.0000
       107        -0.0000      0.0000      0.0000
       108        -0.0000      0.0000     -0.0000
       109        -0.0000      0.0000     -0.0000
       110         0.0000      0.0000      0.0000
       111         0.0000      0.0000     -0.0000
       112        -0.0000     -0.0000      0.0000
       113        -0.0000      0.0000     -0.0000
       114         0.0000     -0.0000      0.0000
       115         0.0000      0.0000      0.0000
       116         0.0000      0.0000     -0.0000
       117         0.0000      0.0000      0.0000
       118        -0.0000     -0.0000     -0.0000
       119        -0.0000     -0.0000     -0.0000
       120        -0.0000     -0.0000      0.0000
       121         0.3895      0.2631     -0.3728
       122        -0.4198      0.3987     -0.1572
       123         0.1788      0.3629      0.4429
       124        -0.0000      0.0000      0.0001
       125        -0.0000      0.0000      0.0000
       126        -0.0000     -0.0000     -0.0000
       127         0.0015     -0.0036     -0.0000
       128         0.0590      0.1095      0.4660
       129         0.0478     -0.4685      0.1040
       130         0.4762      0.0335     -0.0682
       131        -0.0002      0.0001     -0.0001
       132        -0.0004      0.0005      0.0001
       133         0.0008      0.0007      0.0001
       134         0.0000     -0.0002      0.0000
       135        -0.0001      0.0004     -0.0000
       136        -0.0000      0.0000     -0.0000
       137         0.0000     -0.0002      0.0000
       138         0.0000      0.0000      0.0000
       139        -0.0634      0.1712     -0.3816
       140         0.0322     -0.3828     -0.1771
       141         0.4170      0.0556     -0.0444
       142        -0.0000     -0.0004     -0.0000
       143         0.0001     -0.0001      0.0002
       144         0.0000      0.0000     -0.0001
       145         0.0000     -0.0000     -0.0000
       146         0.0001      0.0001      0.0000
       147        -0.0471      0.0401     -0.4817
       148         0.0272      0.4834      0.0376
       149        -0.4826      0.0233      0.0492
       150         0.0000      0.0000      0.0000
       151        -0.0000     -0.0000      0.0000
       152        -0.0000     -0.0000     -0.0000
       153        -0.0000      0.0006      0.0000
       154        -0.0001      0.0003     -0.0001
       155        -0.4241     -0.0384      0.0314
       156         0.0425     -0.4208      0.0588
       157         0.0256      0.0615      0.4218
       158        -0.0000     -0.0000     -0.0000
       159        -0.0001     -0.0001      0.0000
       160         0.0000     -0.0000      0.0001
       161         0.0000      0.0001      0.0002
       162         0.0000     -0.0000     -0.0000
       163        -0.0000     -0.0000      0.0000
       164        -0.0000     -0.0000     -0.0000
       165        -0.0867      0.2462     -0.0710
       166        -0.0171      0.0692      0.2610
       167         0.2557      0.0881     -0.0066
       168        -0.0000     -0.0000     -0.0000
       169        -0.0000      0.0000      0.0000
       170        -0.0000      0.0000     -0.0000
       171        -0.0000      0.0000      0.0000
       172        -0.0000      0.0000      0.0000
       173         0.0000      0.0000     -0.0000
       174        -0.0000      0.0000     -0.0000
       175         0.0000     -0.0000      0.0000
       176         0.0000      0.0000     -0.0000
       177         0.0000      0.0000     -0.0000
       178         0.0000     -0.0000     -0.0000
       179        -0.0000     -0.0003      0.0011
       180         0.0001     -0.0011     -0.0003
       181        -0.0011     -0.0001     -0.0000
       182        -0.0000     -0.0000      0.0000
       183        -0.0000     -0.0000      0.0000
       184         0.0000     -0.0000      0.0000
       185         0.0000     -0.0000      0.0000
       186        -0.0000     -0.0000      0.0000
       187        -0.0000     -0.0000      0.0000
       188         0.0000      0.0000     -0.0000
 Ground to excited state transition velocity quadrupole moments (Au):
       state          XX          YY          ZZ          XY          XZ          YZ
         1         0.0952     -0.0568     -0.0384     -0.0757      0.0404     -0.2266
         2         0.0069      0.0819     -0.0888      0.2278     -0.0100     -0.0792
         3         0.2452     -0.0103     -0.2349     -0.0243     -0.0447      0.0729
         4         0.0000      0.0000     -0.0000     -0.0001     -0.0001      0.0005
         5         0.0004     -0.0000     -0.0004     -0.0001     -0.0001      0.0002
         6        -0.0001      0.0000      0.0001      0.0001      0.0000     -0.0001
         7        -0.4636     -0.1775      0.6411     -0.6273      0.0242      0.5350
         8         0.9218     -0.2054     -0.7164     -0.4966     -0.1126      0.2173
         9         0.0223     -0.2840      0.2617     -0.5056      0.2099     -0.7966
        10         0.0063      0.0051     -0.0113      0.0038      0.0642      0.0118
        11         0.0340     -0.0717      0.0376      0.0218      0.0020      0.0061
        12        -0.0001      0.0000      0.0001      0.0000     -0.0003     -0.0000
        13         0.0001     -0.0002      0.0000      0.0000     -0.0000      0.0001
        14         0.0000     -0.0001      0.0000      0.0000     -0.0000      0.0000
        15         0.0567     -0.3995      0.3417      0.0415     -0.9705     -0.1539
        16         0.5515     -1.0713      0.5193      0.3502      0.3199      0.1460
        17         0.3908      0.3896      0.3910      0.0002     -0.0009     -0.0001
        18        -0.0072      0.0052      0.0021      0.0000     -0.0085      0.0477
        19         0.0362      0.0087     -0.0450      0.0247     -0.0079      0.0018
        20         0.0339     -0.0161     -0.0178     -0.0387     -0.0010      0.0037
        21        -0.0000     -0.0000      0.0000      0.0000      0.0000     -0.0000
        22        -0.0000      0.0000     -0.0000      0.0000     -0.0000      0.0000
        23        -0.0000      0.0000      0.0000      0.0000     -0.0000     -0.0000
        24        -0.0931      0.0663      0.0269      0.1540     -0.0082      0.0198
        25        -0.1553     -0.0172      0.1725     -0.0573      0.0265      0.0027
        26        -0.0014     -0.0082      0.0095      0.0242      0.0316     -0.1715
        27         1.3297      1.3297      1.3297     -0.0000      0.0000     -0.0000
        28        -0.1998      0.1564      0.0434      0.2033     -0.1271      0.6647
        29        -0.1703     -0.2195      0.3898     -0.6168      0.0529      0.1863
        30        -0.7022      0.0939      0.6083      0.2257      0.1062     -0.1851
        31         0.2172     -0.1261     -0.0911     -0.1648      0.0908     -0.5142
        32         0.0452      0.1851     -0.2303      0.5134     -0.0296     -0.1626
        33         0.5522     -0.0338     -0.5184     -0.0844     -0.0998      0.1761
        34        -0.4539      0.6023     -0.1484     -0.2833     -1.2349     -0.2837
        35         0.5867     -1.4057      0.8189      0.3773     -0.5861     -0.0008
        36         1.1354     -0.2678     -0.8676     -0.6629     -0.1439      0.3231
        37        -0.5776     -0.3388      0.9163     -0.9569      0.1411      0.2043
        38         0.2981     -0.2482     -0.0498     -0.2899      0.2269     -1.1872
        39         0.0026      0.0007     -0.0033      0.0038      0.0000     -0.0046
        40        -0.0035     -0.0002      0.0039     -0.0007      0.0009     -0.0006
        41         0.0008     -0.0011      0.0004     -0.0033     -0.0000      0.0021
        42         0.5163      0.5161      0.5165     -0.0000     -0.0002      0.0000
        43         0.1802     -0.3001      0.1199      0.1133      0.2772      0.0769
        44         0.1144     -0.3218      0.2070      0.0746     -0.2794     -0.0278
        45        -0.0003     -0.0000      0.0003      0.0002     -0.0003     -0.0003
        46        -0.0002      0.0000      0.0002     -0.0004     -0.0006      0.0000
        47         0.0000      0.0003     -0.0003      0.0000     -0.0001     -0.0002
        48         0.0002     -0.0003      0.0001      0.0001      0.0002      0.0001
        49        -0.2419     -0.0122      0.2539     -0.1159     -0.0042      0.2482
        50        -0.2528     -0.0116      0.2644      0.0149      0.0819     -0.2504
        51        -0.1475      0.1435      0.0039      0.3280     -0.0322      0.0823
        52         0.3227      0.3226      0.3226     -0.0000     -0.0000     -0.0000
        53         0.0002      0.0002     -0.0004      0.0006      0.0000     -0.0005
        54         0.0006      0.0001     -0.0007      0.0003     -0.0002     -0.0002
        55        -0.0006      0.0004      0.0002      0.0009      0.0001     -0.0004
        56         0.4178     -0.0214     -0.3966      0.2037      0.0898     -0.8472
        57        -0.6777     -0.1578      0.8356     -0.3459      0.2120     -0.4215
        58         0.5929     -0.3426     -0.2503     -0.8169      0.0069      0.0134
        59         0.1886     -0.1024     -0.0861      0.1151      1.0276      0.2046
        60        -0.5295      1.1544     -0.6249     -0.3385      0.1310     -0.0664
        61         0.1440      0.0126     -0.1567     -0.0232     -0.0678      0.2575
        62         0.2432      0.0168     -0.2600      0.1005     -0.0152     -0.1425
        63         0.1397     -0.1182     -0.0216     -0.2700      0.0228     -0.0610
        64        -0.0000     -0.0000     -0.0001      0.0000     -0.0000      0.0000
        65         0.0000      0.0000      0.0000     -0.0000      0.0000     -0.0000
        66         0.0001      0.0001      0.0001     -0.0000      0.0000      0.0000
        67        -0.8958     -0.8957     -0.8956     -0.0000      0.0000      0.0000
        68        -0.2139      0.2478     -0.0339      0.5229     -0.0917      0.3204
        69        -0.0195      0.0749     -0.0555      0.3346      0.0777     -0.5622
        70         0.6456      0.0080     -0.6536      0.0634     -0.1023      0.0452
        71        -0.0428      0.0646     -0.0218      0.1472     -0.0195      0.0464
        72        -0.0793      0.0045      0.0748      0.0406      0.0334     -0.1369
        73        -0.1444     -0.0005      0.1446     -0.0323      0.0082      0.0737
        74        -0.3899      0.7524     -0.3624     -0.2474     -0.2431     -0.1061
        75         0.0498     -0.3010      0.2513      0.0353     -0.6823     -0.1066
        76        -0.7552     -0.7552     -0.7552      0.0000     -0.0000     -0.0000
        77        -0.7039     -0.7039     -0.7039      0.0000      0.0000     -0.0000
        78         0.0000     -0.0000     -0.0000      0.0000     -0.0000     -0.0000
[...]
      7  -0.379356D-01 -0.419560D-02  0.435197D+00 -0.339189D-04 -0.149561D-04
      8  -0.122631D-05 -0.191639D-05  0.625713D-05  0.000000D+00  0.110371D-05
      9   0.235640D-05  0.000000D+00  0.000000D+00  0.000000D+00  0.000000D+00
     10   0.650975D-05  0.000000D+00  0.000000D+00  0.000000D+00 -0.430747D-05
     11  -0.179855D-02 -0.235706D-02 -0.799934D-04  0.709133D+00  0.815268D+00
     12   0.795986D-03 -0.291237D-03  0.637142D-03  0.709182D+00  0.815256D+00
     13   0.826262D-03  0.281652D-02 -0.379924D-03  0.709226D+00  0.815243D+00
     14  -0.244012D-02  0.117237D-02 -0.578186D-03  0.000000D+00 -0.647471D-05
     15   0.516688D-04  0.380668D-03 -0.554459D-03  0.102439D-04 -0.466489D-05
     16   0.566122D-03 -0.510054D-03 -0.277380D-02  0.538872D-05  0.506127D-05
               121           122           123           124           125 
      1  -0.386026D+02 -0.386026D+02 -0.386026D+02 -0.385560D+02 -0.385559D+02
      2  -0.326941D-04 -0.106379D-04  0.478374D-04 -0.396063D+00 -0.229684D+00
      3   0.203832D-05  0.639456D-05 -0.918767D-05  0.255389D+00 -0.366302D+00
      4  -0.278262D-04  0.405879D-04 -0.105520D-04 -0.137278D-01 -0.187991D+00
      5   0.501476D-04  0.167137D-04 -0.732089D-04  0.625190D+00  0.362561D+00
      6  -0.210645D-05 -0.103030D-04  0.142786D-04 -0.403134D+00  0.578214D+00
      7   0.409191D-04 -0.624360D-04  0.151975D-04  0.216705D-01  0.296745D+00
      8  -0.393231D+00  0.413909D+00 -0.184217D+00  0.000000D+00  0.223982D-04
      9   0.252555D+00  0.402777D+00  0.365901D+00  0.430250D-05  0.402798D-05
     10   0.376144D+00  0.162296D+00 -0.438270D+00 -0.575753D-04 -0.198593D-04
     11  -0.429119D-05  0.675647D-05 -0.511784D-05  0.123973D-01 -0.248951D+00
     12  -0.210887D-05 -0.196860D-05  0.660283D-05  0.806221D-01  0.839247D-02
     13   0.120485D-04 -0.488831D-05 -0.111437D-04 -0.929339D-01  0.240657D+00
     14   0.598489D-05 -0.450188D-05 -0.105850D-04 -0.241548D+00 -0.343083D-01
     15  -0.270460D-05 -0.187668D-04 -0.130032D-04 -0.192382D-01  0.454078D-01
     16  -0.250352D-04  0.171319D-04 -0.132055D-04  0.604698D-01  0.823146D-01
               126           127           128           129           130 
      1  -0.385559D+02 -0.384444D+02 -0.384435D+02 -0.384435D+02 -0.384435D+02
      2   0.112499D+00  0.184870D-05  0.469244D-04  0.885981D-04  0.131200D-03
      3   0.151241D+00  0.000000D+00  0.897460D-04 -0.250533D-03 -0.258611D-03
      4  -0.432138D+00  0.000000D+00  0.253594D-03 -0.385144D-03  0.482125D-03
      5  -0.177581D+00 -0.315042D-05 -0.804680D-04 -0.150334D-03 -0.223111D-03
      6  -0.238739D+00  0.109884D-05 -0.152361D-03  0.426100D-03  0.439515D-03
      7   0.682136D+00 -0.158608D-05 -0.431119D-03  0.654782D-03 -0.819309D-03
      8   0.437129D-04 -0.144733D-02 -0.606837D-01 -0.409261D-01 -0.476653D+00
      9  -0.211427D-05 -0.363687D-02  0.114548D+00 -0.467748D+00  0.255829D-01
     10   0.800400D-05 -0.100133D-04 -0.464524D+00 -0.110004D+00  0.685770D-01
     11   0.104951D+00 -0.108708D-03  0.462053D-03 -0.938102D-03 -0.594700D-03
     12  -0.555998D-01  0.195275D-03  0.159024D-03 -0.525947D-03 -0.104351D-03
     13  -0.493340D-01 -0.865011D-04 -0.623927D-03  0.146389D-02  0.689919D-03
     14   0.597233D-01  0.692802D-04 -0.113731D-03  0.968730D-03  0.550523D-03
     15   0.364134D-01 -0.119585D-03 -0.656550D-04 -0.883392D-03 -0.483359D-03
     16   0.238380D+00  0.339010D-04 -0.102227D-02  0.157892D-02 -0.219254D-02
               131           132           133           134           135 
      1  -0.384416D+02 -0.384416D+02 -0.384416D+02 -0.384374D+02 -0.384374D+02
      2   0.299553D+00  0.146919D-01 -0.291423D-02  0.898096D-04 -0.134826D-03
      3   0.149367D-01 -0.297886D+00  0.316485D-01 -0.338062D-03 -0.137681D-03
      4  -0.134430D-02 -0.317495D-01 -0.298271D+00  0.164775D-03 -0.139573D-03
      5  -0.509747D+00 -0.250009D-01  0.495915D-02 -0.153389D-03  0.229776D-03
      6  -0.254183D-01  0.506909D+00 -0.538559D-01  0.575068D-03  0.233791D-03
      7   0.228773D-02  0.540279D-01  0.507566D+00 -0.281122D-03  0.238337D-03
      8   0.205599D-03  0.352252D-03 -0.797470D-03  0.000000D+00  0.107891D-03
      9   0.827945D-04  0.484047D-03  0.698854D-03 -0.194807D-03  0.393334D-03
     10   0.802820D-04 -0.113240D-03 -0.130015D-03 -0.250849D-04  0.224088D-04
     11   0.704345D+00 -0.108043D+01  0.990435D-01  0.856909D+00  0.200760D+00
     12  -0.402276D+00 -0.132059D+00 -0.202190D+00 -0.158731D+01 -0.839729D+00
     13  -0.302044D+00  0.121245D+01  0.103168D+00  0.730407D+00  0.638955D+00
     14   0.109661D+01  0.476223D+00  0.107649D+00 -0.506199D+00 -0.100510D+00
     15   0.526230D-02  0.187845D+00  0.225728D+00  0.685941D+00 -0.144275D+01
     16  -0.146056D+00 -0.945974D-01  0.122687D+01 -0.277262D+00  0.169713D+00
               136           137           138           139           140 
      1  -0.383025D+02 -0.382823D+02 -0.382823D+02 -0.382516D+02 -0.382516D+02
      2   0.162200D-04 -0.611285D-05  0.000000D+00 -0.500787D-04 -0.883974D-05
      3   0.203279D-04  0.554532D-05 -0.378032D-05  0.914788D-05  0.173046D-04
      4   0.150536D-04 -0.151812D-04 -0.437191D-05 -0.168719D-05  0.281358D-04
      5  -0.314064D-04  0.107019D-04  0.000000D+00  0.100884D-03  0.188724D-04
      6  -0.389955D-04 -0.106080D-04  0.101163D-04 -0.191684D-04 -0.356033D-04
      7  -0.281219D-04  0.291408D-04  0.784949D-05  0.306532D-05 -0.573754D-04
      8   0.350386D-05 -0.146686D-04 -0.100824D-04  0.609513D-01 -0.265207D-01
      9   0.229183D-05 -0.183645D-03  0.369184D-05  0.167236D+00 -0.385493D+00
     10   0.367586D-05 -0.994438D-05 -0.254865D-04  0.383764D+00  0.172203D+00
     11   0.502016D+00 -0.684017D-01 -0.292185D+00 -0.195569D-03  0.873242D-04
     12   0.501793D+00 -0.158015D-01  0.611299D+00  0.196547D-03  0.118596D-03
     13   0.501831D+00  0.842211D-01 -0.318875D+00 -0.543102D-04 -0.191103D-03
     14  -0.225636D-04  0.461586D-01  0.169807D+00 -0.104765D-03 -0.825586D-04
     15  -0.204579D-04 -0.543899D+00  0.925986D-02 -0.245556D-03  0.453759D-03
     16  -0.526285D-04  0.934740D-01  0.586635D-01  0.928487D-04 -0.174826D-03
               141           142           143           144           145 
      1  -0.382515D+02 -0.382440D+02 -0.382440D+02 -0.382313D+02 -0.382313D+02
      2  -0.144859D-04 -0.276056D-04 -0.218740D-04  0.188762D+00  0.808818D-02
      3   0.798439D-05 -0.925719D-05  0.781383D-04  0.763083D-02 -0.186679D+00
      4  -0.660679D-04 -0.120030D-04 -0.255176D-04 -0.357423D-02  0.280643D-01
      5   0.288941D-04  0.558309D-04  0.440793D-04 -0.391287D+00 -0.167630D-01
      6  -0.168031D-04  0.195625D-04 -0.161927D-03 -0.158200D-01  0.386970D+00
      7   0.133579D-03  0.246632D-04  0.518778D-04  0.741012D-02 -0.581766D-01
      8  -0.417811D+00  0.333460D-04 -0.670219D-04 -0.134112D-04 -0.319625D-04
      9   0.488813D-01 -0.390964D-03 -0.126458D-03  0.345184D-04 -0.157012D-04
     10   0.450661D-01  0.300561D-04 -0.155089D-03  0.819981D-04  0.285157D-04
     11   0.224765D-04  0.126620D-01 -0.194828D+00  0.465646D+00 -0.720877D+00
     12  -0.721524D-04 -0.125709D+00  0.377964D+00 -0.272712D+00 -0.510732D-01
     13   0.719366D-04  0.113075D+00 -0.183148D+00 -0.193028D+00  0.772155D+00
     14  -0.412568D-04 -0.351380D-02  0.114375D+00  0.740228D+00  0.285345D+00
     15  -0.112611D-04 -0.340760D+00 -0.973460D-01  0.741077D-02  0.838857D-01
     16   0.267108D-03  0.471789D-01  0.544505D-01 -0.877786D-01 -0.268678D+00
               146           147           148           149           150 
      1  -0.382313D+02 -0.381351D+02 -0.381351D+02 -0.381351D+02 -0.379489D+02
      2   0.240025D-02  0.000000D+00  0.191971D-05  0.000000D+00 -0.388651D-01
      3   0.281957D-01  0.143912D-05  0.000000D+00 -0.133257D-05  0.475835D-03
      4   0.186806D+00  0.000000D+00 -0.359666D-05 -0.219636D-05  0.259237D-02
      5  -0.497499D-02  0.247165D-05 -0.434442D-05  0.115878D-05  0.332507D-01
      6  -0.584467D-01 -0.437600D-05 -0.121657D-05  0.335275D-05 -0.410988D-03
      7  -0.387240D+00  0.000000D+00  0.943056D-05  0.000000D+00 -0.221852D-02
      8  -0.120097D-03  0.466183D-01 -0.342922D-01  0.482188D+00 -0.444688D-05
      9   0.750661D-04  0.345899D-01  0.483427D+00  0.310364D-01  0.427982D-05
     10  -0.133479D-04  0.482176D+00 -0.313625D-01 -0.488468D-01 -0.108478D-04
     11   0.126082D+00  0.614498D-05  0.134659D-04 -0.779981D-05  0.221858D-01
     12   0.149331D+00  0.501168D-05 -0.256422D-05 -0.230424D-05 -0.147472D-01
     13  -0.275494D+00 -0.764507D-05 -0.770218D-05  0.687503D-05 -0.744974D-02
     14  -0.139029D+00  0.231562D-05  0.932519D-05 -0.279794D-05  0.395479D-01
     15  -0.177646D+00  0.174469D-05  0.206827D-05  0.706469D-05  0.110580D-02
     16  -0.782215D+00  0.445414D-05  0.103973D-04  0.114507D-04 -0.295413D-02
               151           152           153           154           155 
      1  -0.379489D+02 -0.379489D+02 -0.379075D+02 -0.379075D+02 -0.378949D+02
      2   0.178016D-03  0.262589D-02  0.000000D+00 -0.386067D-05 -0.150671D-05
      3   0.386985D-01  0.437148D-02  0.976467D-05 -0.192887D-04 -0.285322D-05
      4  -0.439145D-02  0.386060D-01  0.000000D+00 -0.308012D-05  0.112602D-04
      5  -0.149290D-03 -0.224271D-02 -0.239506D-05  0.888411D-05  0.406206D-05
      6  -0.330974D-01 -0.373990D-02 -0.226172D-04  0.481538D-04  0.699093D-05
      7   0.375304D-02 -0.330079D-01 -0.357522D-05  0.553225D-05 -0.346265D-04
      8   0.160925D-05  0.192822D-05  0.317763D-04  0.505687D-04  0.424637D+00
      9  -0.100715D-04 -0.102281D-04  0.558490D-03  0.254846D-03 -0.317645D-01
     10  -0.133892D-05  0.729201D-05 -0.195331D-04  0.973652D-04 -0.318391D-01
     11  -0.389906D-01 -0.640391D-02  0.126547D+00 -0.604013D+00  0.135134D-04
     12  -0.212312D-02 -0.688084D-02 -0.560727D+00  0.112507D+01 -0.721324D-04
     13   0.411695D-01  0.132834D-01  0.434153D+00 -0.521036D+00  0.412053D-04
     14   0.133588D-01  0.460972D-02 -0.615827D-01  0.356494D+00 -0.408868D-04
     15   0.470508D-02  0.907870D-02 -0.102150D+01 -0.455469D+00 -0.288764D-04
     16  -0.122769D-01  0.415809D-01  0.123086D+00  0.190480D+00 -0.730723D-04
               156           157           158           159           160 
      1  -0.378949D+02 -0.378948D+02 -0.378842D+02 -0.378757D+02 -0.378757D+02
      2   0.000000D+00  0.181643D-04 -0.206506D-04 -0.205249D-02 -0.706691D-03
      3  -0.454366D-05 -0.735451D-05 -0.600509D-04  0.407258D-02  0.258196D-01
      4   0.617765D-05  0.000000D+00 -0.159067D-05 -0.257687D-01  0.413976D-02
      5   0.307116D-05 -0.548877D-04  0.659412D-04  0.687705D-02  0.237097D-02
      6   0.130094D-04  0.215927D-04  0.186178D-03 -0.136436D-01 -0.865090D-01
      7  -0.176160D-04  0.216691D-05  0.572180D-05  0.863202D-01 -0.138690D-01
      8  -0.362865D-01 -0.265855D-01  0.762483D-05  0.144299D-03 -0.189942D-04
      9  -0.420619D+00  0.665520D-01 -0.217832D-04 -0.519236D-04 -0.343728D-04
     10  -0.642079D-01 -0.420996D+00  0.121719D-04 -0.460639D-04 -0.956095D-04
     11  -0.261659D-03 -0.835932D-04  0.294732D+00  0.201445D-01  0.198986D+00
     12  -0.199693D-04  0.259119D-03  0.295169D+00 -0.303877D-01  0.259152D-01
     13   0.242829D-03 -0.147488D-03  0.295691D+00  0.104348D-01 -0.223180D+00
     14   0.132698D-03  0.206365D-03 -0.198349D-05  0.168158D-02 -0.833705D-01
     15  -0.152895D-02  0.189775D-03  0.417254D-04  0.388819D-01 -0.364132D-01
     16   0.239337D-03 -0.278115D-04 -0.538536D-04  0.226079D+00  0.490517D-02
               161           162           163           164           165 
      1  -0.378757D+02 -0.375935D+02 -0.375935D+02 -0.375935D+02 -0.375638D+02
      2  -0.260614D-01 -0.575459D-02 -0.800229D-04 -0.473178D-01  0.234393D-05
      3  -0.102244D-02  0.546442D-02 -0.473598D-01 -0.592355D-03 -0.220622D-05
      4   0.191537D-02 -0.470258D-01 -0.549587D-02  0.572795D-02 -0.121540D-04
      5   0.873350D-01  0.116254D-01  0.164794D-03  0.956068D-01 -0.604380D-05
      6   0.342499D-02 -0.110412D-01  0.956977D-01  0.119961D-02  0.774530D-05
      7  -0.642044D-02  0.950331D-01  0.111062D-01 -0.115742D-01  0.304481D-04
      8  -0.445088D-04 -0.302893D-04  0.000000D+00  0.161434D-05  0.831166D-01
      9   0.598608D-04 -0.372514D-05 -0.215463D-05 -0.775621D-05  0.246547D+00
     10  -0.245431D-03  0.952068D-05  0.000000D+00  0.378591D-04  0.741219D-01
     11  -0.126248D+00  0.101450D-01 -0.307801D+00 -0.181845D+00  0.107959D-04
     12   0.758963D-01 -0.425165D-01 -0.320767D-01  0.118510D+00  0.329697D-05
     13   0.496586D-01  0.323745D-01  0.339858D+00  0.633350D-01  0.000000D+00
     14  -0.202694D+00 -0.586961D-02  0.116382D+00 -0.310972D+00  0.737443D-05
     15  -0.446233D-02  0.607643D-01  0.524354D-01 -0.111358D-01 -0.125943D-04
     16   0.118569D-01  0.342244D+00 -0.208261D-01  0.372243D-02  0.000000D+00
               166           167           168           169           170 
      1  -0.375638D+02 -0.375638D+02 -0.375129D+02 -0.375129D+02 -0.375129D+02
      2  -0.354667D-04 -0.265970D-05 -0.741268D-01  0.719371D-01 -0.931932D-02
      3   0.485133D-05  0.000000D+00  0.724459D-01  0.740737D-01 -0.450628D-02
      4  -0.270419D-05  0.197772D-04 -0.353589D-02  0.973081D-02  0.103201D+00
      5   0.912932D-04  0.903863D-05  0.207263D+00 -0.201143D+00  0.260568D-01
      6  -0.134830D-04  0.000000D+00 -0.202571D+00 -0.207118D+00  0.125978D-01
      7   0.598281D-05 -0.457894D-04  0.987993D-02 -0.272057D-01 -0.288556D+00
      8   0.160318D-01 -0.256957D+00  0.710217D-05  0.000000D+00  0.206955D-04
      9   0.727891D-01  0.842802D-01 -0.119640D-04  0.146258D-04  0.177386D-04
     10  -0.260059D+00  0.775200D-02  0.383646D-04 -0.275781D-04  0.908613D-05
     11  -0.224250D-04 -0.355674D-05 -0.626876D-01 -0.248295D+00  0.186453D-01
     12   0.000000D+00  0.786175D-05 -0.690885D-01  0.388010D-01 -0.492354D-01
     13   0.608077D-05 -0.576125D-05  0.131772D+00  0.209464D+00  0.305891D-01
     14  -0.197141D-04  0.455548D-05  0.213907D+00 -0.932923D-01  0.485821D-01
     15   0.249712D-05 -0.862854D-05  0.227834D-01  0.257885D-01  0.469128D-01
     16   0.725509D-05 -0.418355D-04 -0.613045D-01  0.142400D-01  0.238115D+00
               171           172           173           174           175 
      1  -0.374895D+02 -0.374895D+02 -0.374895D+02 -0.372297D+02 -0.372297D+02
      2  -0.734771D-02  0.271987D-01 -0.562878D-02  0.113010D-04  0.564202D-05
      3  -0.698435D-02 -0.745087D-02 -0.268560D-01 -0.335113D-05  0.103677D-05
      4   0.268627D-01  0.548007D-02 -0.851186D-02  0.985181D-05  0.314295D-05
      5   0.676300D-02 -0.249637D-01  0.514155D-02 -0.311619D-04 -0.160272D-04
      6   0.640744D-02  0.683040D-02  0.246555D-01  0.985759D-05 -0.366013D-05
      7  -0.246145D-01 -0.501766D-02  0.780110D-02 -0.286813D-04 -0.883416D-05
      8   0.147176D-04  0.103507D-04 -0.311872D-05  0.000000D+00  0.000000D+00
      9   0.470943D-05  0.000000D+00  0.387876D-05  0.365100D-05  0.000000D+00
     10   0.000000D+00 -0.295820D-05  0.108060D-05  0.000000D+00  0.000000D+00
     11   0.463194D-01 -0.356646D-01  0.128022D+00 -0.594267D-01 -0.133837D+00
     12  -0.309077D-01  0.399972D-01  0.769725D-02  0.481335D-01  0.294395D+00
     13  -0.154165D-01 -0.432529D-02 -0.135731D+00  0.113022D-01 -0.160552D+00
     14   0.369055D-01 -0.123274D+00 -0.227454D-01  0.375870D-01  0.771702D-01
     15   0.208417D-01 -0.890186D-03 -0.241245D-01 -0.259852D+00  0.540497D-01
     16   0.124434D+00  0.480172D-01 -0.204946D-01  0.501463D-01  0.195971D-01
               176           177           178           179           180 
      1  -0.371745D+02 -0.371505D+02 -0.371505D+02 -0.371131D+02 -0.371131D+02
      2   0.000000D+00  0.177846D-04  0.210370D-04  0.784764D-04  0.651925D-05
      3  -0.156878D-04 -0.410666D-04  0.100428D-04 -0.356663D-04  0.464426D-04
      4   0.000000D+00  0.550699D-05  0.169114D-04 -0.233033D-05  0.375757D-04
      5   0.000000D+00 -0.496898D-04 -0.601624D-04 -0.226978D-03 -0.203591D-04
      6   0.453910D-04  0.121188D-03 -0.296984D-04  0.102083D-03 -0.135854D-03
      7   0.000000D+00 -0.156785D-04 -0.484586D-04  0.817067D-05 -0.107064D-03
      8   0.000000D+00  0.000000D+00 -0.149035D-05  0.908010D-05 -0.123400D-03
      9   0.000000D+00  0.125011D-05  0.000000D+00 -0.255672D-03 -0.110603D-02
     10   0.000000D+00  0.114251D-05  0.000000D+00 -0.110222D-02  0.252630D-03
     11   0.994725D-01  0.215820D+00 -0.952988D-02  0.582873D-05 -0.340695D-04
     12   0.994432D-01 -0.420463D+00  0.130048D+00  0.858130D-05 -0.181759D-04
     13   0.994708D-01  0.204636D+00 -0.120521D+00  0.202254D-04  0.253155D-04
     14  -0.108112D-04 -0.126655D+00  0.109458D-02  0.387603D-04  0.113026D-04
     15   0.379503D-05  0.995614D-01  0.378714D+00 -0.520036D-04 -0.263672D-03
     16   0.000000D+00 -0.588463D-01 -0.533079D-01  0.494143D-05  0.426480D-04
               181           182           183           184           185 
      1  -0.371131D+02 -0.371024D+02 -0.371024D+02 -0.371024D+02 -0.370776D+02
      2   0.249611D-04 -0.142136D+00 -0.563239D-01  0.429421D-03 -0.212931D-04
      3   0.866177D-05  0.560801D-01 -0.141394D+00  0.154246D-01 -0.899836D-04
      4   0.148574D-03 -0.528592D-02  0.144968D-01  0.152103D+00 -0.223176D-04
      5  -0.731774D-04  0.413314D+00  0.163786D+00 -0.124805D-02  0.623296D-04
      6  -0.264961D-04 -0.163075D+00  0.411157D+00 -0.448530D-01  0.264533D-03
      7  -0.430599D-03  0.153710D-01 -0.421548D-01 -0.442300D+00  0.650391D-04
      8   0.114621D-02  0.000000D+00  0.118006D-05 -0.361550D-05  0.000000D+00
      9  -0.118660D-03  0.000000D+00 -0.156553D-05 -0.129224D-05 -0.141367D-05
     10   0.314799D-04 -0.232103D-05 -0.171371D-05  0.000000D+00 -0.178361D-05
     11   0.595665D-05 -0.539795D-02 -0.354351D-01  0.354435D-02 -0.690846D-01
     12  -0.109651D-04  0.112097D-01  0.248940D-02  0.620448D-02 -0.690534D-01
     13  -0.100088D-04 -0.583193D-02  0.330932D-01 -0.980431D-02 -0.690353D-01
     14  -0.870551D-05 -0.329573D-01 -0.141066D-02 -0.557074D-02  0.611249D-05
     15   0.113027D-04 -0.172911D-02  0.342974D-02 -0.723671D-02  0.545939D-05
     16  -0.509990D-04  0.757960D-02 -0.710552D-02 -0.329902D-01  0.303171D-05
               186           187           188 
      1  -0.368055D+02 -0.368055D+02 -0.368055D+02
      2  -0.101975D+00 -0.779545D-03  0.217019D-02
      3   0.971580D-03 -0.101599D+00  0.897321D-02
      4   0.209353D-02  0.898794D-02  0.101578D+00
      5   0.301980D+00  0.230879D-02 -0.642605D-02
      6  -0.287705D-02  0.300867D+00 -0.265719D-01
      7  -0.620089D-02 -0.266169D-01 -0.300804D+00
      8   0.000000D+00  0.000000D+00 -0.151772D-05
      9  -0.141454D-05  0.000000D+00  0.000000D+00
     10   0.000000D+00  0.000000D+00  0.000000D+00
     11  -0.105566D+00 -0.184620D+00  0.206901D-01
     12   0.680445D-01 -0.115072D-01  0.355303D-01
     13   0.375276D-01  0.196130D+00 -0.562228D-01
     14  -0.185859D+00  0.631305D-01 -0.287476D-01
     15  -0.324989D-02  0.232112D-01 -0.423725D-01
     16   0.231075D-01 -0.530436D-01 -0.196556D+00
 Unable to Open any file for archive entry.
 1\1\GINC-HEL10\SP\RM11 TD-FC\Gen\C1H4\SABYASACHI\21-Mar-2022\0\\#P TD(
 Nstates=10000) m11/Gen SCF(maxcycles=100) Int(Grid=ultrafine)\\xGDB7_0
 0001_tier4.com\\0,1\C,0,0.000001,0.000006,0.\H,0,0.985233,0.46299,-0.0
 28035\H,0,-0.05618,-0.682943,0.846305\H,0,-0.168125,-0.551911,-0.92353
 6\H,0,-0.760937,0.771825,0.105269\\Version=EM64L-G16RevC.01\State=1-A\
 HF=-40.44757\RMSD=3.338e-09\PG=C01 [X(C1H4)]\\@
 The archive entry for this job was punched.


 A SCIENTIST IS SOMEONE WHOSE CURIOSITY SURVIVES
 EDUCATION'S ASSAULTS ON IT.
                          - SIR HERMANN BONDI
 Job cpu time:       0 days  0 hours  1 minutes 44.8 seconds.
 Elapsed time:       0 days  0 hours  0 minutes 13.4 seconds.
 File lengths (MBytes):  RWF=     49 Int=      0 D2E=      0 Chk=     13 Scr=      1
 Normal termination of Gaussian 16 at Mon Mar 21 20:15:24 2022.
