 Entering Gaussian System, Link 0=g16
 Input=000023.com
 Output=000023.log
 Initial command:
 /home/sabyasachi/g16/l1.exe "/scratch/sabyasachi/PBS_7976157.helios/Gau-156521.inp" -scrdir="/scratch/sabyasachi/PBS_7976157.helios/"
 Entering Link 1 = /home/sabyasachi/g16/l1.exe PID=    156522.
  
 Copyright (c) 1988-2019, Gaussian, Inc.  All Rights Reserved.
  
 This is part of the Gaussian(R) 16 program.  It is based on
 the Gaussian(R) 09 system (copyright 2009, Gaussian, Inc.),
 the Gaussian(R) 03 system (copyright 2003, Gaussian, Inc.),
 the Gaussian(R) 98 system (copyright 1998, Gaussian, Inc.),
 the Gaussian(R) 94 system (copyright 1995, Gaussian, Inc.),
 the Gaussian 92(TM) system (copyright 1992, Gaussian, Inc.),
 the Gaussian 90(TM) system (copyright 1990, Gaussian, Inc.),
 the Gaussian 88(TM) system (copyright 1988, Gaussian, Inc.),
 the Gaussian 86(TM) system (copyright 1986, Carnegie Mellon
 University), and the Gaussian 82(TM) system (copyright 1983,
 Carnegie Mellon University). Gaussian is a federally registered
 trademark of Gaussian, Inc.
  
 This software contains proprietary and confidential information,
 including trade secrets, belonging to Gaussian, Inc.
  
 This software is provided under written license and may be
 used, copied, transmitted, or stored only in accord with that
 written license.
  
 The following legend is applicable only to US Government
 contracts under FAR:
  
                    RESTRICTED RIGHTS LEGEND
  
 Use, reproduction and disclosure by the US Government is
 subject to restrictions as set forth in subparagraphs (a)
 and (c) of the Commercial Computer Software - Restricted
 Rights clause in FAR 52.227-19.
  
 Gaussian, Inc.
 340 Quinnipiac St., Bldg. 40, Wallingford CT 06492
  
  
 ---------------------------------------------------------------
 Warning -- This program may not be used in any manner that
 competes with the business of Gaussian, Inc. or will provide
 assistance to any competitor of Gaussian, Inc.  The licensee
 of this program is prohibited from giving any competitor of
 Gaussian, Inc. access to this program.  By using this program,
 the user acknowledges that Gaussian, Inc. is engaged in the
 business of creating and licensing software in the field of
 computational chemistry and represents and warrants to the
 licensee that it is not a competitor of Gaussian, Inc. and that
 it will not use this program in any manner prohibited above.
 ---------------------------------------------------------------
  

 Cite this work as:
 Gaussian 16, Revision C.01,
 M. J. Frisch, G. W. Trucks, H. B. Schlegel, G. E. Scuseria, 
 M. A. Robb, J. R. Cheeseman, G. Scalmani, V. Barone, 
 G. A. Petersson, H. Nakatsuji, X. Li, M. Caricato, A. V. Marenich, 
 J. Bloino, B. G. Janesko, R. Gomperts, B. Mennucci, H. P. Hratchian, 
 J. V. Ortiz, A. F. Izmaylov, J. L. Sonnenberg, D. Williams-Young, 
 F. Ding, F. Lipparini, F. Egidi, J. Goings, B. Peng, A. Petrone, 
 T. Henderson, D. Ranasinghe, V. G. Zakrzewski, J. Gao, N. Rega, 
 G. Zheng, W. Liang, M. Hada, M. Ehara, K. Toyota, R. Fukuda, 
 J. Hasegawa, M. Ishida, T. Nakajima, Y. Honda, O. Kitao, H. Nakai, 
 T. Vreven, K. Throssell, J. A. Montgomery, Jr., J. E. Peralta, 
 F. Ogliaro, M. J. Bearpark, J. J. Heyd, E. N. Brothers, K. N. Kudin, 
 V. N. Staroverov, T. A. Keith, R. Kobayashi, J. Normand, 
 K. Raghavachari, A. P. Rendell, J. C. Burant, S. S. Iyengar, 
 J. Tomasi, M. Cossi, J. M. Millam, M. Klene, C. Adamo, R. Cammi, 
 J. W. Ochterski, R. L. Martin, K. Morokuma, O. Farkas, 
 J. B. Foresman, and D. J. Fox, Gaussian, Inc., Wallingford CT, 2019.
 
 ******************************************
 Gaussian 16:  EM64L-G16RevC.01  3-Jul-2019
                21-Mar-2022 
 ******************************************
 %mem=64gb
 %nproc=8
 Will use up to    8 processors via shared memory.
 -------------------------------------------------------------------
 #P TD(Nstates=10000) m11/Gen SCF(maxcycles=100) Int(Grid=ultrafine)
 -------------------------------------------------------------------
 1/38=1,172=1/1;
 2/12=2,17=6,18=5,40=1/2;
 3/5=7,11=9,25=1,30=1,74=-64,75=-5/1,2,3,8;
 4//1;
 5/5=2,7=100,38=5/2;
 8/6=1,10=1,108=10000/1;
 9/41=10000,42=1,70=2/14;
 6/7=2,8=2,9=2,10=2/1;
 99/5=1,9=1/99;
 Leave Link    1 at Mon Mar 21 20:16:17 2022, MaxMem=  8589934592 cpu:               0.4 elap:               0.1
 (Enter /home/sabyasachi/g16/l101.exe)
 ---------------------
 xGDB7_00001_tier4.com
 ---------------------
 Symbolic Z-matrix:
 Charge =  0 Multiplicity = 1
 6                     0.        0.       -1.17365 
 6                     0.        0.        0.28099 
 7                     0.        0.        1.42744 
 1                     0.        1.02409  -1.54537 
 1                    -0.88689  -0.51204  -1.54537 
 1                     0.88689  -0.51204  -1.54537 
 
 ITRead=  0  0  0  0  0  0
 MicOpt= -1 -1 -1 -1 -1 -1
 NAtoms=      6 NQM=        6 NQMF=       0 NMMI=      0 NMMIF=      0
                NMic=       0 NMicF=      0.
                    Isotopes and Nuclear Properties:
 (Nuclear quadrupole moments (NQMom) in fm**2, nuclear magnetic moments (NMagM)
  in nuclear magnetons)

  Atom         1           2           3           4           5           6
 IAtWgt=          12          12          14           1           1           1
 AtmWgt=  12.0000000  12.0000000  14.0030740   1.0078250   1.0078250   1.0078250
 NucSpn=           0           0           2           1           1           1
 AtZEff=  -0.0000000  -0.0000000  -0.0000000  -0.0000000  -0.0000000  -0.0000000
 NQMom=    0.0000000   0.0000000   2.0440000   0.0000000   0.0000000   0.0000000
 NMagM=    0.0000000   0.0000000   0.4037610   2.7928460   2.7928460   2.7928460
 AtZNuc=   6.0000000   6.0000000   7.0000000   1.0000000   1.0000000   1.0000000
 Leave Link  101 at Mon Mar 21 20:16:17 2022, MaxMem=  8589934592 cpu:               0.7 elap:               0.1
 (Enter /home/sabyasachi/g16/l202.exe)
                          Input orientation:                          
 ---------------------------------------------------------------------
 Center     Atomic      Atomic             Coordinates (Angstroms)
 Number     Number       Type             X           Y           Z
 ---------------------------------------------------------------------
      1          6           0        0.000000    0.000000   -1.173653
      2          6           0        0.000000    0.000000    0.280989
      3          7           0        0.000000    0.000000    1.427442
      4          1           0        0.000000    1.024088   -1.545371
      5          1           0       -0.886886   -0.512044   -1.545371
      6          1           0        0.886886   -0.512044   -1.545371
 ---------------------------------------------------------------------
                    Distance matrix (angstroms):
                    1          2          3          4          5
     1  C    0.000000
     2  C    1.454642   0.000000
     3  N    2.601095   1.146453   0.000000
     4  H    1.089463   2.093883   3.144260   0.000000
     5  H    1.089463   2.093883   3.144260   1.773772   0.000000
     6  H    1.089463   2.093883   3.144260   1.773772   1.773772
                    6
     6  H    0.000000
 Stoichiometry    C2H3N
 Framework group  C3V[C3(CCN),3SGV(H)]
 Deg. of freedom     4
 Full point group                 C3V     NOp   6
 Largest Abelian subgroup         CS      NOp   2
 Largest concise Abelian subgroup CS      NOp   2
                         Standard orientation:                         
 ---------------------------------------------------------------------
 Center     Atomic      Atomic             Coordinates (Angstroms)
 Number     Number       Type             X           Y           Z
 ---------------------------------------------------------------------
      1          6           0        0.000000    0.000000   -1.173653
      2          6           0        0.000000    0.000000    0.280989
      3          7           0        0.000000    0.000000    1.427442
      4          1           0        0.000000    1.024088   -1.545371
      5          1           0       -0.886886   -0.512044   -1.545371
      6          1           0        0.886886   -0.512044   -1.545371
 ---------------------------------------------------------------------
 Rotational constants (GHZ):         159.3808899           9.3073631           9.3073631
 Leave Link  202 at Mon Mar 21 20:16:17 2022, MaxMem=  8589934592 cpu:               0.1 elap:               0.0
 (Enter /home/sabyasachi/g16/l301.exe)
 General basis read from cards:  (5D, 7F)
 Centers:       4      5      6
 S 3 1.00
     Exponent=  1.3010701000D+01 Coefficients=  1.9682158000D-02
     Exponent=  1.9622572000D+00 Coefficients=  1.3796524000D-01
     Exponent=  4.4453796000D-01 Coefficients=  4.7831935000D-01
 S 1 1.00
     Exponent=  1.2194962000D-01 Coefficients=  1.0000000000D+00
 P 1 1.00
     Exponent=  8.0000000000D-01 Coefficients=  1.0000000000D+00
 P 1 1.00
     Exponent=  1.1704099050D-01 Coefficients=  1.0000000000D+00
 ****
 Centers:       1      2
 S 5 1.00
     Exponent=  1.2384016938D+03 Coefficients=  5.4568832082D-03
     Exponent=  1.8629004992D+02 Coefficients=  4.0638409211D-02
     Exponent=  4.2251176346D+01 Coefficients=  1.8025593888D-01
     Exponent=  1.1676557932D+01 Coefficients=  4.6315121755D-01
     Exponent=  3.5930506482D+00 Coefficients=  4.4087173314D-01
 S 1 1.00
     Exponent=  4.0245147363D-01 Coefficients=  1.0000000000D+00
 S 1 1.00
     Exponent=  1.3090182668D-01 Coefficients=  1.0000000000D+00
 S 1 1.00
     Exponent=  6.7053540256D-02 Coefficients=  1.0000000000D+00
 P 3 1.00
     Exponent=  9.4680970621D+00 Coefficients=  3.8387871728D-02
     Exponent=  2.0103545142D+00 Coefficients=  2.1117025112D-01
     Exponent=  5.4771004707D-01 Coefficients=  5.1328172114D-01
 P 1 1.00
     Exponent=  1.5268613795D-01 Coefficients=  1.0000000000D+00
 D 1 1.00
     Exponent=  8.0000000000D-01 Coefficients=  1.0000000000D+00
 D 1 1.00
     Exponent=  1.1713185140D-01 Coefficients=  1.0000000000D+00
 ****
 Centers:       3
 S 5 1.00
     Exponent=  1.7128415853D+03 Coefficients= -5.3934125305D-03
     Exponent=  2.5764812677D+02 Coefficients= -4.0221581118D-02
     Exponent=  5.8458245853D+01 Coefficients= -1.7931144990D-01
     Exponent=  1.6198367905D+01 Coefficients= -4.6376317823D-01
     Exponent=  5.0052600809D+00 Coefficients= -4.4171422662D-01
 S 1 1.00
     Exponent=  5.8731856571D-01 Coefficients=  1.0000000000D+00
 S 1 1.00
     Exponent=  1.8764592253D-01 Coefficients=  1.0000000000D+00
 S 1 1.00
     Exponent=  9.6171241529D-02 Coefficients=  1.0000000000D+00
 P 3 1.00
     Exponent=  1.3571470233D+01 Coefficients= -4.0072398852D-02
     Exponent=  2.9257372874D+00 Coefficients= -2.1807045028D-01
     Exponent=  7.9927750754D-01 Coefficients= -5.1294466049D-01
 P 1 1.00
     Exponent=  2.1954348034D-01 Coefficients=  1.0000000000D+00
 D 1 1.00
     Exponent=  1.0000000000D+00 Coefficients=  1.0000000000D+00
 D 1 1.00
     Exponent=  1.6697708112D-01 Coefficients=  1.0000000000D+00
 ****
 Ernie: Thresh=  0.10000D-02 Tol=  0.10000D-05 Strict=F.
 There are    62 symmetry adapted cartesian basis functions of A'  symmetry.
 There are    28 symmetry adapted cartesian basis functions of A"  symmetry.
 There are    56 symmetry adapted basis functions of A'  symmetry.
 There are    28 symmetry adapted basis functions of A"  symmetry.
    84 basis functions,   126 primitive gaussians,    90 cartesian basis functions
    11 alpha electrons       11 beta electrons
       nuclear repulsion energy        58.7485374816 Hartrees.
 IExCor= 5042 DFT=T Ex+Corr=M11 ExCW=0 ScaHFX=  1.000000
 ScaDFX=  1.000000  1.000000  1.000000  1.000000 ScalE2=  1.000000  1.000000
 IRadAn=      5 IRanWt=     -1 IRanGd=            0 ICorTp=0 IEmpDi=  4
 HFx  wShort=  0.000000 wLong=  0.250000 cFull=  0.428000 cShort=  0.000000 cLong=  0.572000
 DFx  wShort=  0.000000 wLong=  0.250000 cFull=  0.000000 cShort=  0.000000 cLong=  1.000000
 NAtoms=    6 NActive=    6 NUniq=    4 SFac= 2.25D+00 NAtFMM=   60 NAOKFM=F Big=F
 Integral buffers will be    131072 words long.
 Raffenetti 1 integral format.
 Two-electron integral symmetry is turned on.
 Leave Link  301 at Mon Mar 21 20:16:17 2022, MaxMem=  8589934592 cpu:               0.6 elap:               0.1
 (Enter /home/sabyasachi/g16/l302.exe)
 NPDir=0 NMtPBC=     1 NCelOv=     1 NCel=       1 NClECP=     1 NCelD=      1
         NCelK=      1 NCelE2=     1 NClLst=     1 CellRange=     0.0.
 One-electron integrals computed using PRISM.
 One-electron integral symmetry used in STVInt
 NBasis=    84 RedAO= T EigKep=  2.41D-04  NBF=    56    28
 NBsUse=    84 1.00D-06 EigRej= -1.00D+00 NBFU=    56    28
 Precomputing XC quadrature grid using
 IXCGrd= 4 IRadAn=           5 IRanWt=          -1 IRanGd=           0 AccXCQ= 0.00D+00.
 Generated NRdTot=       0 NPtTot=           0 NUsed=           0 NTot=          32
 NSgBfM=    90    90    90    90    90 MxSgAt=     6 MxSgA2=     6.
 Leave Link  302 at Mon Mar 21 20:16:17 2022, MaxMem=  8589934592 cpu:               0.9 elap:               0.1
 (Enter /home/sabyasachi/g16/l303.exe)
 DipDrv:  MaxL=1.
 Leave Link  303 at Mon Mar 21 20:16:17 2022, MaxMem=  8589934592 cpu:               0.2 elap:               0.0
 (Enter /home/sabyasachi/g16/l308.exe)
 Leave Link  308 at Mon Mar 21 20:16:17 2022, MaxMem=  8589934592 cpu:               0.2 elap:               0.0
 (Enter /home/sabyasachi/g16/l401.exe)
 ExpMin= 6.71D-02 ExpMax= 1.71D+03 ExpMxC= 2.58D+02 IAcc=3 IRadAn=         5 AccDes= 0.00D+00
 Harris functional with IExCor= 1009 and IRadAn=       5 diagonalized for initial guess.
 HarFok:  IExCor= 1009 AccDes= 0.00D+00 IRadAn=         5 IDoV= 1 UseB2=F ITyADJ=14
 ICtDFT=  3500011 ScaDFX=  1.000000  1.000000  1.000000  1.000000
 FoFCou: FMM=F IPFlag=           0 FMFlag=      100000 FMFlg1=           0
         NFxFlg=           0 DoJE=T BraDBF=F KetDBF=T FulRan=T
         wScrn=  0.000000 ICntrl=       500 IOpCl=  0 I1Cent=   200000004 NGrid=           0
         NMat0=    1 NMatS0=      1 NMatT0=    0 NMatD0=    1 NMtDS0=    0 NMtDT0=    0
 Petite list used in FoFCou.
 Harris En= -129.373504566826    
 JPrj=0 DoOrth=F DoCkMO=F.
 Initial guess orbital symmetries:
       Occupied  (A1) (A1) (A1) (A1) (A1) (A1) (E) (E) (A1) (E)
                 (E)
       Virtual   (E) (E) (A1) (A1) (E) (E) (A1) (E) (E) (A1) (E)
                 (E) (A1) (E) (E) (A1) (E) (E) (A1) (E) (E) (A2)
                 (A1) (A1) (E) (E) (E) (E) (E) (E) (A1) (E) (E)
                 (A1) (E) (E) (A1) (A1) (E) (E) (A1) (E) (E) (A1)
                 (A1) (E) (E) (A1) (E) (E) (A1) (A2) (E) (E) (E)
                 (E) (E) (E) (A1) (E) (E) (A1) (E) (E) (E) (E)
                 (A1) (E) (E) (A1) (E) (E) (A1)
 The electronic state of the initial guess is 1-A1.
 Leave Link  401 at Mon Mar 21 20:16:18 2022, MaxMem=  8589934592 cpu:               1.6 elap:               0.2
 (Enter /home/sabyasachi/g16/l502.exe)
 Keep R1 ints in memory in symmetry-blocked form, NReq=20384744.
 FoFCou: FMM=F IPFlag=           0 FMFlag=           0 FMFlg1=           0
         NFxFlg=           0 DoJE=F BraDBF=F KetDBF=F FulRan=T
         wScrn=  0.000000 ICntrl=       600 IOpCl=  0 I1Cent=           0 NGrid=           0
         NMat0=    1 NMatS0=   3570 NMatT0=    0 NMatD0=    1 NMtDS0=    0 NMtDT0=    0
 Petite list used in FoFCou.
 Closed shell SCF:
 Using DIIS extrapolation, IDIIS=  1040.
 NGot=  8589934592 LenX=  8586672929 LenY=  8586664388
 Requested convergence on RMS density matrix=1.00D-08 within 100 cycles.
 Requested convergence on MAX density matrix=1.00D-06.
 Requested convergence on             energy=1.00D-06.
 No special actions if energy rises.
 Integral accuracy reduced to 1.0D-05 until final iterations.

 Cycle   1  Pass 0  IDiag  1:
 E= -132.522001200663    
 DIIS: error= 2.83D-02 at cycle   1 NSaved=   1.
 NSaved= 1 IEnMin= 1 EnMin= -132.522001200663     IErMin= 1 ErrMin= 2.83D-02
 ErrMax= 2.83D-02  0.00D+00 EMaxC= 1.00D-01 BMatC= 5.15D-02 BMatP= 5.15D-02
 IDIUse=3 WtCom= 7.17D-01 WtEn= 2.83D-01
 Coeff-Com:  0.100D+01
 Coeff-En:   0.100D+01
 Coeff:      0.100D+01
 Gap=     0.549 Goal=   None    Shift=    0.000
 GapD=    0.549 DampG=2.000 DampE=0.500 DampFc=1.0000 IDamp=-1.
 RMSDP=9.00D-03 MaxDP=1.91D-01              OVMax= 9.99D-02

 Cycle   2  Pass 0  IDiag  1:
 E= -132.545426772942     Delta-E=       -0.023425572279 Rises=F Damp=F
 DIIS: error= 2.06D-02 at cycle   2 NSaved=   2.
 NSaved= 2 IEnMin= 2 EnMin= -132.545426772942     IErMin= 2 ErrMin= 2.06D-02
 ErrMax= 2.06D-02  0.00D+00 EMaxC= 1.00D-01 BMatC= 3.42D-02 BMatP= 5.15D-02
 IDIUse=3 WtCom= 7.94D-01 WtEn= 2.06D-01
 Coeff-Com:  0.443D+00 0.557D+00
 Coeff-En:   0.301D+00 0.699D+00
 Coeff:      0.414D+00 0.586D+00
 Gap=     0.479 Goal=   None    Shift=    0.000
 RMSDP=3.88D-03 MaxDP=9.27D-02 DE=-2.34D-02 OVMax= 5.96D-02

 Cycle   3  Pass 0  IDiag  1:
 E= -132.570147548098     Delta-E=       -0.024720775155 Rises=F Damp=F
 DIIS: error= 7.72D-03 at cycle   3 NSaved=   3.
 NSaved= 3 IEnMin= 3 EnMin= -132.570147548098     IErMin= 3 ErrMin= 7.72D-03
 ErrMax= 7.72D-03  0.00D+00 EMaxC= 1.00D-01 BMatC= 4.15D-03 BMatP= 3.42D-02
 IDIUse=3 WtCom= 9.23D-01 WtEn= 7.72D-02
 Coeff-Com:  0.153D+00 0.295D+00 0.552D+00
 Coeff-En:   0.000D+00 0.000D+00 0.100D+01
 Coeff:      0.141D+00 0.272D+00 0.587D+00
 Gap=     0.480 Goal=   None    Shift=    0.000
 RMSDP=1.02D-03 MaxDP=2.48D-02 DE=-2.47D-02 OVMax= 2.51D-02

 Cycle   4  Pass 0  IDiag  1:
 E= -132.573392307323     Delta-E=       -0.003244759225 Rises=F Damp=F
 DIIS: error= 2.27D-03 at cycle   4 NSaved=   4.
 NSaved= 4 IEnMin= 4 EnMin= -132.573392307323     IErMin= 4 ErrMin= 2.27D-03
 ErrMax= 2.27D-03  0.00D+00 EMaxC= 1.00D-01 BMatC= 4.18D-04 BMatP= 4.15D-03
 IDIUse=3 WtCom= 9.77D-01 WtEn= 2.27D-02
 Coeff-Com: -0.816D-02-0.655D-02 0.235D+00 0.780D+00
 Coeff-En:   0.000D+00 0.000D+00 0.338D-01 0.966D+00
 Coeff:     -0.797D-02-0.640D-02 0.231D+00 0.784D+00
 Gap=     0.483 Goal=   None    Shift=    0.000
 RMSDP=3.09D-04 MaxDP=5.20D-03 DE=-3.24D-03 OVMax= 4.61D-03

 Cycle   5  Pass 0  IDiag  1:
 E= -132.573752633607     Delta-E=       -0.000360326285 Rises=F Damp=F
 DIIS: error= 2.04D-04 at cycle   5 NSaved=   5.
 NSaved= 5 IEnMin= 5 EnMin= -132.573752633607     IErMin= 5 ErrMin= 2.04D-04
 ErrMax= 2.04D-04  0.00D+00 EMaxC= 1.00D-01 BMatC= 4.81D-06 BMatP= 4.18D-04
 IDIUse=3 WtCom= 9.98D-01 WtEn= 2.04D-03
 Coeff-Com: -0.812D-02-0.178D-01 0.522D-02 0.112D+00 0.909D+00
 Coeff-En:   0.000D+00 0.000D+00 0.000D+00 0.000D+00 0.100D+01
 Coeff:     -0.810D-02-0.177D-01 0.521D-02 0.111D+00 0.909D+00
 Gap=     0.482 Goal=   None    Shift=    0.000
 RMSDP=9.38D-05 MaxDP=2.00D-03 DE=-3.60D-04 OVMax= 8.41D-04

 Cycle   6  Pass 0  IDiag  1:
 E= -132.573760058847     Delta-E=       -0.000007425240 Rises=F Damp=F
 DIIS: error= 1.13D-04 at cycle   6 NSaved=   6.
 NSaved= 6 IEnMin= 6 EnMin= -132.573760058847     IErMin= 6 ErrMin= 1.13D-04
 ErrMax= 1.13D-04  0.00D+00 EMaxC= 1.00D-01 BMatC= 3.89D-07 BMatP= 4.81D-06
 IDIUse=3 WtCom= 9.99D-01 WtEn= 1.13D-03
 Coeff-Com:  0.994D-04-0.167D-02-0.229D-01-0.724D-01 0.810D-01 0.102D+01
 Coeff-En:   0.000D+00 0.000D+00 0.000D+00 0.000D+00 0.000D+00 0.100D+01
 Coeff:      0.993D-04-0.167D-02-0.229D-01-0.723D-01 0.809D-01 0.102D+01
 Gap=     0.482 Goal=   None    Shift=    0.000
 RMSDP=3.38D-05 MaxDP=5.82D-04 DE=-7.43D-06 OVMax= 4.84D-04

 Cycle   7  Pass 0  IDiag  1:
 E= -132.573760807677     Delta-E=       -0.000000748830 Rises=F Damp=F
 DIIS: error= 9.12D-06 at cycle   7 NSaved=   7.
 NSaved= 7 IEnMin= 7 EnMin= -132.573760807677     IErMin= 7 ErrMin= 9.12D-06
 ErrMax= 9.12D-06  0.00D+00 EMaxC= 1.00D-01 BMatC= 7.48D-09 BMatP= 3.89D-07
 IDIUse=1 WtCom= 1.00D+00 WtEn= 0.00D+00
 Coeff-Com:  0.251D-03 0.338D-03-0.173D-02-0.899D-02-0.253D-01 0.719D-01
 Coeff-Com:  0.963D+00
 Coeff:      0.251D-03 0.338D-03-0.173D-02-0.899D-02-0.253D-01 0.719D-01
 Coeff:      0.963D+00
 Gap=     0.482 Goal=   None    Shift=    0.000
 RMSDP=5.72D-06 MaxDP=1.49D-04 DE=-7.49D-07 OVMax= 4.93D-05

 Initial convergence to 1.0D-05 achieved.  Increase integral accuracy.
 Cycle   8  Pass 1  IDiag  1:
 E= -132.573753004026     Delta-E=        0.000007803652 Rises=F Damp=F
 DIIS: error= 1.05D-05 at cycle   1 NSaved=   1.
 NSaved= 1 IEnMin= 1 EnMin= -132.573753004026     IErMin= 1 ErrMin= 1.05D-05
 ErrMax= 1.05D-05  0.00D+00 EMaxC= 1.00D-01 BMatC= 1.19D-08 BMatP= 1.19D-08
 IDIUse=1 WtCom= 1.00D+00 WtEn= 0.00D+00
 Coeff-Com:  0.100D+01
 Coeff:      0.100D+01
 Gap=     0.482 Goal=   None    Shift=    0.000
 RMSDP=5.72D-06 MaxDP=1.49D-04 DE= 7.80D-06 OVMax= 2.29D-05

 Cycle   9  Pass 1  IDiag  1:
 E= -132.573753015531     Delta-E=       -0.000000011505 Rises=F Damp=F
 DIIS: error= 2.12D-06 at cycle   2 NSaved=   2.
 NSaved= 2 IEnMin= 2 EnMin= -132.573753015531     IErMin= 2 ErrMin= 2.12D-06
 ErrMax= 2.12D-06  0.00D+00 EMaxC= 1.00D-01 BMatC= 3.22D-10 BMatP= 1.19D-08
 IDIUse=1 WtCom= 1.00D+00 WtEn= 0.00D+00
 Coeff-Com: -0.863D-01 0.109D+01
 Coeff:     -0.863D-01 0.109D+01
 Gap=     0.482 Goal=   None    Shift=    0.000
 RMSDP=1.18D-06 MaxDP=2.39D-05 DE=-1.15D-08 OVMax= 6.73D-06

 Cycle  10  Pass 1  IDiag  1:
 E= -132.573753015907     Delta-E=       -0.000000000377 Rises=F Damp=F
 DIIS: error= 1.09D-06 at cycle   3 NSaved=   3.
 NSaved= 3 IEnMin= 3 EnMin= -132.573753015907     IErMin= 3 ErrMin= 1.09D-06
 ErrMax= 1.09D-06  0.00D+00 EMaxC= 1.00D-01 BMatC= 8.56D-11 BMatP= 3.22D-10
 IDIUse=1 WtCom= 1.00D+00 WtEn= 0.00D+00
 Coeff-Com: -0.485D-01 0.371D+00 0.677D+00
 Coeff:     -0.485D-01 0.371D+00 0.677D+00
 Gap=     0.482 Goal=   None    Shift=    0.000
 RMSDP=2.41D-07 MaxDP=3.81D-06 DE=-3.77D-10 OVMax= 2.59D-06

 Cycle  11  Pass 1  IDiag  1:
 E= -132.573753015984     Delta-E=       -0.000000000077 Rises=F Damp=F
 DIIS: error= 5.03D-07 at cycle   4 NSaved=   4.
 NSaved= 4 IEnMin= 4 EnMin= -132.573753015984     IErMin= 4 ErrMin= 5.03D-07
 ErrMax= 5.03D-07  0.00D+00 EMaxC= 1.00D-01 BMatC= 1.28D-11 BMatP= 8.56D-11
 IDIUse=1 WtCom= 1.00D+00 WtEn= 0.00D+00
 Coeff-Com: -0.135D-01 0.563D-01 0.269D+00 0.688D+00
 Coeff:     -0.135D-01 0.563D-01 0.269D+00 0.688D+00
 Gap=     0.482 Goal=   None    Shift=    0.000
 RMSDP=9.46D-08 MaxDP=3.06D-06 DE=-7.73D-11 OVMax= 1.51D-06

 Cycle  12  Pass 1  IDiag  1:
 E= -132.573753015993     Delta-E=       -0.000000000009 Rises=F Damp=F
 DIIS: error= 2.28D-07 at cycle   5 NSaved=   5.
 NSaved= 5 IEnMin= 5 EnMin= -132.573753015993     IErMin= 5 ErrMin= 2.28D-07
 ErrMax= 2.28D-07  0.00D+00 EMaxC= 1.00D-01 BMatC= 3.44D-12 BMatP= 1.28D-11
 IDIUse=1 WtCom= 1.00D+00 WtEn= 0.00D+00
 Coeff-Com:  0.333D-02-0.473D-01-0.208D-02 0.363D+00 0.683D+00
 Coeff:      0.333D-02-0.473D-01-0.208D-02 0.363D+00 0.683D+00
 Gap=     0.482 Goal=   None    Shift=    0.000
 RMSDP=4.66D-08 MaxDP=9.59D-07 DE=-8.67D-12 OVMax= 5.71D-07

 Cycle  13  Pass 1  IDiag  1:
 E= -132.573753015998     Delta-E=       -0.000000000005 Rises=F Damp=F
 DIIS: error= 3.56D-08 at cycle   6 NSaved=   6.
 NSaved= 6 IEnMin= 6 EnMin= -132.573753015998     IErMin= 6 ErrMin= 3.56D-08
 ErrMax= 3.56D-08  0.00D+00 EMaxC= 1.00D-01 BMatC= 5.73D-14 BMatP= 3.44D-12
 IDIUse=1 WtCom= 1.00D+00 WtEn= 0.00D+00
 Coeff-Com:  0.154D-02-0.851D-02-0.267D-01-0.471D-01 0.318D-01 0.105D+01
 Coeff:      0.154D-02-0.851D-02-0.267D-01-0.471D-01 0.318D-01 0.105D+01
 Gap=     0.482 Goal=   None    Shift=    0.000
 RMSDP=1.71D-08 MaxDP=4.71D-07 DE=-5.17D-12 OVMax= 1.67D-07

 Cycle  14  Pass 1  IDiag  1:
 E= -132.573753015999     Delta-E=       -0.000000000001 Rises=F Damp=F
 DIIS: error= 6.83D-09 at cycle   7 NSaved=   7.
 NSaved= 7 IEnMin= 7 EnMin= -132.573753015999     IErMin= 7 ErrMin= 6.83D-09
 ErrMax= 6.83D-09  0.00D+00 EMaxC= 1.00D-01 BMatC= 1.34D-15 BMatP= 5.73D-14
 IDIUse=1 WtCom= 1.00D+00 WtEn= 0.00D+00
 Coeff-Com: -0.174D-03 0.193D-02 0.106D-03-0.126D-01-0.280D-01 0.153D-01
 Coeff-Com:  0.102D+01
 Coeff:     -0.174D-03 0.193D-02 0.106D-03-0.126D-01-0.280D-01 0.153D-01
 Coeff:      0.102D+01
 Gap=     0.482 Goal=   None    Shift=    0.000
 RMSDP=2.02D-09 MaxDP=2.89D-08 DE=-8.24D-13 OVMax= 2.77D-08

 SCF Done:  E(RM11) =  -132.573753016     A.U. after   14 cycles
            NFock= 14  Conv=0.20D-08     -V/T= 2.0112
 KE= 1.311074416492D+02 PE=-4.249457823274D+02 EE= 1.025160501806D+02
 Leave Link  502 at Mon Mar 21 20:16:19 2022, MaxMem=  8589934592 cpu:              14.4 elap:               1.8
 (Enter /home/sabyasachi/g16/l801.exe)
 DoSCS=F DFT=T ScalE2(SS,OS)=  1.000000  1.000000
 ExpMin= 6.71D-02 ExpMax= 1.71D+03 ExpMxC= 2.58D+02 IAcc=3 IRadAn=         5 AccDes= 0.00D+00
 HarFok:  IExCor=  205 AccDes= 0.00D+00 IRadAn=         5 IDoV=-2 UseB2=F ITyADJ=14
 ICtDFT= 12500011 ScaDFX=  1.000000  1.000000  1.000000  1.000000
 Largest valence mixing into a core orbital is  7.17D-05
 Largest core mixing into a valence orbital is  1.51D-05
 Range of M.O.s used for correlation:     4    84
 NBasis=    84 NAE=    11 NBE=    11 NFC=     3 NFV=     0
 NROrb=     81 NOA=     8 NOB=     8 NVA=    73 NVB=    73

 **** Warning!!: The largest alpha MO coefficient is  0.37492903D+02

 Leave Link  801 at Mon Mar 21 20:16:20 2022, MaxMem=  8589934592 cpu:               0.5 elap:               0.1
 (Enter /home/sabyasachi/g16/l914.exe)
 RHF ground state
 Keep R1, R2, and R3 ints in memory in symmetry-blocked form, NReq=416043124.
 FoFCou: FMM=F IPFlag=           0 FMFlag=           0 FMFlg1=           0
         NFxFlg=           0 DoJE=F BraDBF=F KetDBF=F FulRan=T
         wScrn=  0.000000 ICntrl=       600 IOpCl=  0 I1Cent=           0 NGrid=           0
         NMat0=    1 NMatS0=   3570 NMatT0=    0 NMatD0=    1 NMtDS0=    0 NMtDT0=    0
 Petite list used in FoFCou.
 MDV=  8589934592 DFT=T DoStab=F Mixed=T DoRPA=T DoScal=F NonHer=T
 Making orbital integer symmetry assigments:
 Orbital symmetries:
       Occupied  (A1) (A1) (A1) (A1) (A1) (A1) (E) (E) (A1) (E)
                 (E)
       Virtual   (A1) (A1) (E) (E) (E) (E) (E) (E) (A1) (E) (E)
                 (A1) (A1) (A1) (E) (E) (A2) (A1) (E) (E) (E) (E)
                 (A1) (A1) (E) (E) (E) (E) (A1) (E) (E) (E) (E)
                 (A1) (E) (E) (A1) (A1) (E) (E) (A1) (E) (E) (A1)
                 (A1) (E) (E) (A1) (E) (E) (A1) (A2) (E) (E) (E)
                 (E) (E) (E) (A1) (E) (E) (A1) (E) (E) (E) (E)
                 (A1) (E) (E) (A1) (E) (E) (A1)
   584 initial guesses have been made.
 Convergence on wavefunction:    0.001000000000000
 Davidson Disk Diagonalization:  ConvIn= 1.00D-03 SkipCon=T Conv= 1.00D-03.
 Max sub-space:  3504 roots to seek:  1168 dimension of matrix:         1168
 *** WARNING: Number of orthogonal guesses is          584
 Iteration     1 Dimension   584 NMult     0 NNew    584
 CISAX will form   584 AO SS matrices at one time.
 NMat=   584 NSing=   584 JSym2X=-1.
 New state      1 was old state      9
 New state      2 was old state      8
 New state      3 was old state      6
 New state      4 was old state      1
 New state      5 was old state      2
 New state      6 was old state     11
 New state      7 was old state     12
 New state      8 was old state      3
 New state      9 was old state      4
 New state     10 was old state      5
 New state     11 was old state      7
 New state     12 was old state     13
 New state     13 was old state     10
 New state     14 was old state     16
 New state     16 was old state     17
 New state     17 was old state     18
 New state     18 was old state     20
 New state     19 was old state     26
 New state     20 was old state     25
 New state     21 was old state     19
 New state     22 was old state     21
 New state     23 was old state     22
 New state     24 was old state     14
 New state     25 was old state     34
 New state     26 was old state     35
 New state     27 was old state     36
 New state     28 was old state     29
 New state     29 was old state     24
 New state     30 was old state     23
 New state     31 was old state     32
 New state     32 was old state     31
 New state     33 was old state     30
 New state     34 was old state     28
 New state     35 was old state     27
 New state     36 was old state     33
 New state     39 was old state     40
 New state     40 was old state     44
 New state     41 was old state     45
 New state     42 was old state     51
 New state     43 was old state     50
 New state     44 was old state     39
 New state     45 was old state     43
 New state     46 was old state     42
 New state     47 was old state     48
 New state     48 was old state     47
 New state     50 was old state     52
 New state     51 was old state     53
 New state     52 was old state     58
 New state     53 was old state     41
 New state     54 was old state     56
 New state     55 was old state     61
 New state     56 was old state     60
 New state     57 was old state     54
 New state     58 was old state     62
 New state     59 was old state     63
 New state     60 was old state     59
 New state     61 was old state     55
 New state     62 was old state     57
 New state     63 was old state     68
 New state     64 was old state     46
 New state     65 was old state     66
 New state     66 was old state     71
 New state     67 was old state     70
 New state     68 was old state     69
 New state     69 was old state     67
 New state     70 was old state     78
 New state     71 was old state     77
 New state     72 was old state     79
 New state     73 was old state     65
 New state     74 was old state     64
 New state     75 was old state     81
 New state     76 was old state     82
 New state     77 was old state     75
 New state     78 was old state     74
 New state     79 was old state     83
 New state     80 was old state     72
 New state     81 was old state     73
 New state     82 was old state     87
 New state     83 was old state     76
 New state     84 was old state     85
 New state     85 was old state     84
 New state     86 was old state     94
 New state     87 was old state     95
 New state     88 was old state    102
 New state     89 was old state    103
 New state     90 was old state     92
 New state     92 was old state     93
 New state     93 was old state     90
 New state     94 was old state     80
 New state     95 was old state     86
 New state     96 was old state    107
 New state     97 was old state    106
 New state     98 was old state     89
 New state     99 was old state    104
 New state    100 was old state    105
 New state    102 was old state    100
 New state    103 was old state     88
 New state    104 was old state    114
 New state    105 was old state     96
 New state    106 was old state     97
 New state    107 was old state     98
 New state    108 was old state     99
 New state    109 was old state    117
 New state    110 was old state    118
 New state    111 was old state    120
 New state    112 was old state    119
 New state    113 was old state    121
 New state    114 was old state    125
 New state    115 was old state    126
 New state    116 was old state    127
 New state    117 was old state    110
 New state    118 was old state    113
 New state    119 was old state    111
 New state    120 was old state    112
 New state    121 was old state    108
 New state    122 was old state    116
 New state    123 was old state    115
 New state    125 was old state    123
 New state    126 was old state    109
 New state    127 was old state    122
 New state    128 was old state    139
 New state    129 was old state    138
 New state    131 was old state    129
 New state    132 was old state    128
 New state    133 was old state    135
 New state    134 was old state    147
 New state    135 was old state    148
 New state    136 was old state    134
 New state    137 was old state    133
 New state    138 was old state    137
 New state    139 was old state    146
 New state    140 was old state    132
 New state    141 was old state    131
 New state    142 was old state    141
 New state    143 was old state    144
 New state    144 was old state    154
 New state    145 was old state    153
 New state    146 was old state    142
 New state    147 was old state    140
 New state    148 was old state    152
 New state    149 was old state    151
 New state    150 was old state    136
 New state    151 was old state    156
 New state    152 was old state    155
 New state    153 was old state    145
 New state    154 was old state    143
 New state    155 was old state    149
 New state    156 was old state    150
 New state    157 was old state    160
 New state    158 was old state    159
 New state    159 was old state    172
 New state    160 was old state    173
 New state    161 was old state    164
 New state    162 was old state    161
 New state    163 was old state    167
 New state    164 was old state    166
 New state    165 was old state    174
 New state    166 was old state    158
 New state    167 was old state    157
 New state    168 was old state    175
 New state    169 was old state    189
 New state    170 was old state    188
 New state    171 was old state    165
 New state    172 was old state    169
 New state    173 was old state    170
 New state    174 was old state    179
 New state    175 was old state    171
 New state    176 was old state    194
 New state    177 was old state    193
 New state    178 was old state    180
 New state    179 was old state    181
 New state    180 was old state    191
 New state    181 was old state    192
 New state    182 was old state    183
 New state    183 was old state    176
 New state    184 was old state    178
 New state    185 was old state    177
 New state    186 was old state    168
 New state    187 was old state    184
 New state    188 was old state    186
 New state    189 was old state    185
 New state    190 was old state    187
 New state    191 was old state    182
 No map to state    192
 New state    193 was old state    162
 New state    194 was old state    196
 New state    196 was old state    190
 New state    199 was old state    206
 New state    200 was old state    205
 New state    201 was old state    199
 New state    202 was old state    201
 New state    203 was old state    200
 New state    204 was old state    203
 New state    205 was old state    202
 New state    206 was old state    204
 New state    209 was old state    210
 New state    210 was old state    211
 New state    211 was old state    209
 New state    212 was old state    215
 New state    213 was old state    212
 New state    214 was old state    213
 New state    215 was old state    221
 New state    216 was old state    222
 New state    217 was old state    226
 New state    218 was old state    214
 New state    219 was old state    225
 New state    221 was old state    217
 New state    222 was old state    219
 New state    223 was old state    227
 New state    224 was old state    228
 New state    225 was old state    216
 New state    226 was old state    218
 New state    227 was old state    223
 New state    228 was old state    224
 New state    229 was old state    231
 New state    230 was old state    232
 New state    231 was old state    230
 New state    232 was old state    229
 New state    233 was old state    240
 New state    234 was old state    241
 New state    235 was old state    243
 New state    236 was old state    239
 New state    237 was old state    238
 New state    238 was old state    236
 New state    239 was old state    234
 New state    240 was old state    233
 New state    241 was old state    237
 New state    242 was old state    235
 New state    243 was old state    242
 New state    244 was old state    245
 New state    245 was old state    246
 New state    246 was old state    252
 New state    247 was old state    248
 New state    248 was old state    249
 New state    249 was old state    257
 New state    250 was old state    258
 New state    251 was old state    244
 New state    252 was old state    251
 New state    253 was old state    250
 New state    254 was old state    259
 New state    255 was old state    260
 New state    256 was old state    265
 New state    257 was old state    266
 New state    258 was old state    263
 New state    259 was old state    256
 New state    260 was old state    255
 New state    261 was old state    247
 New state    262 was old state    269
 New state    263 was old state    268
 New state    264 was old state    267
 New state    265 was old state    254
 New state    266 was old state    264
 New state    267 was old state    253
 New state    268 was old state    261
 New state    269 was old state    262
 New state    270 was old state    277
 New state    271 was old state    275
 New state    272 was old state    274
 New state    273 was old state    270
 New state    274 was old state    278
 New state    275 was old state    279
 New state    277 was old state    273
 New state    278 was old state    272
 New state    279 was old state    280
 New state    280 was old state    285
 New state    281 was old state    286
 New state    282 was old state    271
 New state    283 was old state    303
 New state    284 was old state    302
 New state    285 was old state    304
 New state    286 was old state    290
 New state    287 was old state    289
 New state    288 was old state    296
 New state    289 was old state    295
 New state    290 was old state    283
 New state    291 was old state    282
 New state    292 was old state    307
 New state    293 was old state    291
 New state    294 was old state    281
 New state    295 was old state    293
 New state    296 was old state    294
 New state    297 was old state    292
 New state    298 was old state    310
 New state    299 was old state    309
 New state    300 was old state    312
 New state    301 was old state    311
 New state    302 was old state    284
 New state    303 was old state    288
 New state    304 was old state    287
 New state    305 was old state    308
 New state    306 was old state    318
 New state    307 was old state    317
 New state    308 was old state    306
 New state    309 was old state    305
 New state    310 was old state    298
 New state    311 was old state    297
 New state    312 was old state    300
 New state    313 was old state    299
 New state    314 was old state    313
 New state    315 was old state    314
 New state    317 was old state    320
 New state    318 was old state    319
 New state    319 was old state    315
 New state    320 was old state    323
 New state    321 was old state    335
 New state    322 was old state    333
 New state    323 was old state    322
 New state    324 was old state    321
 New state    325 was old state    327
 New state    326 was old state    334
 New state    327 was old state    328
 New state    328 was old state    329
 New state    329 was old state    325
 New state    330 was old state    339
 New state    331 was old state    338
 New state    332 was old state    324
 New state    333 was old state    326
 New state    334 was old state    301
 New state    335 was old state    331
 New state    336 was old state    330
 New state    337 was old state    344
 New state    338 was old state    340
 New state    339 was old state    341
 New state    340 was old state    337
 New state    341 was old state    336
 New state    342 was old state    346
 New state    343 was old state    347
 New state    344 was old state    345
 New state    345 was old state    342
 New state    346 was old state    343
 New state    347 was old state    348
 New state    348 was old state    350
 New state    349 was old state    357
 New state    350 was old state    356
 New state    351 was old state    349
 New state    352 was old state    355
 New state    353 was old state    364
 New state    354 was old state    360
 New state    355 was old state    361
 New state    356 was old state    362
 New state    357 was old state    363
 New state    358 was old state    352
 New state    359 was old state    354
 New state    360 was old state    353
 New state    361 was old state    351
 New state    362 was old state    359
 New state    363 was old state    358
 New state    364 was old state    365
 No map to state    365
 New state    366 was old state    377
 New state    367 was old state    376
 New state    368 was old state    366
 New state    370 was old state    368
 New state    371 was old state    367
 New state    372 was old state    380
 New state    373 was old state    375
 New state    374 was old state    371
 New state    375 was old state    370
 New state    376 was old state    372
 New state    377 was old state    374
 New state    378 was old state    373
 New state    379 was old state    381
 New state    380 was old state    382
 New state    381 was old state    379
 New state    382 was old state    378
 New state    383 was old state    391
 New state    384 was old state    383
 New state    385 was old state    388
 New state    386 was old state    389
 New state    387 was old state    385
 New state    388 was old state    384
 New state    389 was old state    390
 New state    390 was old state    386
 New state    391 was old state    387
 New state    392 was old state    397
 New state    393 was old state    399
 New state    394 was old state    398
 New state    395 was old state    403
 New state    396 was old state    405
 New state    397 was old state    392
 New state    398 was old state    393
 New state    399 was old state    402
 New state    400 was old state    404
 New state    401 was old state    395
 New state    402 was old state    396
 New state    403 was old state    406
 New state    404 was old state    400
 New state    405 was old state    394
 New state    406 was old state    407
 New state    407 was old state    408
 New state    408 was old state    409
 New state    409 was old state    410
 New state    410 was old state    401
 New state    411 was old state    417
 New state    412 was old state    418
 New state    413 was old state    415
 New state    414 was old state    416
 New state    415 was old state    414
 New state    416 was old state    413
 New state    417 was old state    419
 New state    418 was old state    411
 New state    419 was old state    412
 New state    420 was old state    422
 New state    422 was old state    420
 New state    424 was old state    425
 New state    425 was old state    426
 New state    426 was old state    424
 New state    427 was old state    429
 New state    428 was old state    427
 New state    429 was old state    430
 New state    430 was old state    428
 New state    431 was old state    435
 New state    432 was old state    436
 New state    433 was old state    431
 New state    434 was old state    433
 New state    435 was old state    434
 New state    436 was old state    432
 New state    437 was old state    439
 New state    438 was old state    440
 New state    439 was old state    441
 New state    440 was old state    438
 New state    441 was old state    437
 New state    442 was old state    444
 New state    443 was old state    446
 New state    444 was old state    447
 New state    446 was old state    449
 New state    447 was old state    442
 New state    448 was old state    443
 New state    449 was old state    451
 New state    451 was old state    454
 New state    452 was old state    458
 New state    453 was old state    455
 New state    454 was old state    453
 New state    455 was old state    457
 New state    457 was old state    448
 New state    458 was old state    463
 New state    459 was old state    464
 New state    460 was old state    452
 New state    463 was old state    459
 New state    464 was old state    460
 New state    465 was old state    468
 New state    466 was old state    469
 New state    467 was old state    470
 New state    468 was old state    473
 New state    469 was old state    472
 New state    470 was old state    471
 New state    471 was old state    474
 New state    472 was old state    466
 New state    473 was old state    467
 New state    474 was old state    465
 New state    475 was old state    477
 New state    477 was old state    478
 New state    478 was old state    479
 New state    479 was old state    482
 New state    480 was old state    483
 New state    481 was old state    475
 New state    482 was old state    480
 New state    483 was old state    481
 New state    484 was old state    485
 New state    485 was old state    484
 New state    486 was old state    491
 New state    487 was old state    492
 New state    488 was old state    486
 New state    491 was old state    487
 New state    492 was old state    488
 New state    493 was old state    497
 New state    494 was old state    496
 New state    496 was old state    493
 New state    497 was old state    494
 New state    498 was old state    503
 New state    499 was old state    502
 New state    500 was old state    499
 New state    501 was old state    498
 New state    502 was old state    501
 New state    503 was old state    500
 New state    504 was old state    507
 New state    505 was old state    504
 New state    507 was old state    505
 New state    508 was old state    513
 New state    509 was old state    512
 New state    510 was old state    519
 New state    511 was old state    508
 New state    512 was old state    511
 New state    513 was old state    510
 New state    514 was old state    509
 New state    515 was old state    514
 New state    516 was old state    518
 New state    518 was old state    516
 New state    519 was old state    515
 New state    520 was old state    522
 New state    522 was old state    520
 New state    525 was old state    526
 New state    526 was old state    525
 New state    527 was old state    528
 New state    528 was old state    527
 New state    529 was old state    530
 New state    530 was old state    529
 New state    531 was old state    533
 New state    532 was old state    534
 New state    533 was old state    532
 New state    534 was old state    531
 New state    535 was old state    539
 New state    536 was old state    540
 New state    537 was old state    538
 New state    538 was old state    537
 New state    539 was old state    535
 New state    540 was old state    536
 New state    541 was old state    546
 New state    542 was old state    549
 New state    543 was old state    551
 New state    544 was old state    543
 New state    545 was old state    542
 New state    546 was old state    541
 New state    547 was old state    552
 New state    548 was old state    555
 New state    549 was old state    556
 New state    550 was old state    548
 New state    551 was old state    550
 New state    552 was old state    553
 New state    553 was old state    554
 New state    554 was old state    547
 No map to state    555
 No map to state    556
 New state    557 was old state    558
 New state    558 was old state    557
 New state    559 was old state    563
 New state    560 was old state    561
 New state    561 was old state    560
 New state    563 was old state    559
 New state    564 was old state    565
 New state    565 was old state    566
 New state    566 was old state    564
 New state    570 was old state    574
 New state    571 was old state    575
 New state    574 was old state    576
 New state    575 was old state    570
 New state    576 was old state    571
 New state    580 was old state    581
 New state    581 was old state    580
 Excitation Energies [eV] at current iteration:
 Root      1 :     7.302079750481285
 Root      2 :     8.571124576872174
 Root      3 :     8.571159777062723
 Root      4 :     8.644402641461685
 Root      5 :     8.644466794260184
 Root      6 :     9.290879752492540
 Root      7 :     9.290881798477265
 Root      8 :     9.807686608497843
 Root      9 :    10.377807587746610
 Root     10 :    10.377833840381850
 Root     11 :    11.097057977755750
 Root     12 :    11.662565635762200
 Root     13 :    11.694977758353870
 Root     14 :    11.777192579891610
 Root     15 :    11.777201872207670
 Root     16 :    12.150105504312210
 Root     17 :    12.150108169964230
 Root     18 :    12.198464391692780
 Root     19 :    12.329505219737800
 Root     20 :    12.329513197499500
 Root     21 :    12.392542248773680
 Root     22 :    12.392588888988350
 Root     23 :    12.425708439910360
 Root     24 :    12.533734774747470
 Root     25 :    12.843029625014810
 Root     26 :    13.108077115237910
 Root     27 :    13.108091886512260
 Root     28 :    13.254336288464770
 Root     29 :    13.299410939510740
 Root     30 :    13.299414256609240
 Root     31 :    13.673932774538430
 Root     32 :    13.762875359653120
 Root     33 :    13.762888987637000
 Root     34 :    13.789769629629510
 Root     35 :    13.789771734441410
 Root     36 :    13.857297012554740
 Root     37 :    14.041350686490550
 Root     38 :    14.044620009030190
 Root     39 :    14.044678103624270
 Root     40 :    14.121568151331840
 Root     41 :    14.121592060403990
 Root     42 :    14.457650792221160
 Root     43 :    14.457651566983180
 Root     44 :    14.564246258717120
 Root     45 :    14.643848627399180
 Root     46 :    14.643861877610940
 Root     47 :    14.791526431572540
 Root     48 :    14.913769603711230
 Root     49 :    14.913782384936510
 Root     50 :    15.062072122500330
 Root     51 :    15.062072228267470
 Root     52 :    15.067631249810230
 Root     53 :    15.133682215041130
 Root     54 :    15.342803756618850
 Root     55 :    15.446914203170640
 Root     56 :    15.446920381459630
 Root     57 :    15.679394794461560
 Root     58 :    15.859470122506450
 Root     59 :    15.859500635185440
 Root     60 :    15.893872456741930
 Root     61 :    16.122145784130820
 Root     62 :    16.122148501607380
 Root     63 :    16.134964082263010
 Root     64 :    16.157952199151970
 Root     65 :    16.303537619392540
 Root     66 :    16.491801328798780
 Root     67 :    16.491815461589800
 Root     68 :    16.557177129057580
 Root     69 :    16.557346681571580
 Root     70 :    16.835527004899890
 Root     71 :    16.996587385297830
 Root     72 :    16.996768772580640
 Root     73 :    17.031655649144670
 Root     74 :    17.031665143666700
 Root     75 :    17.326556569016050
 Root     76 :    17.326557047447280
 Root     77 :    17.428352225902080
 Root     78 :    17.428380505971580
 Root     79 :    17.519618024212690
 Root     80 :    17.754370048957120
 Root     81 :    17.754377316720710
 Root     82 :    17.783685962138990
 Root     83 :    17.834401707756100
 Root     84 :    17.914831574854550
 Root     85 :    17.914834478177170
 Root     86 :    18.012736418136850
 Root     87 :    18.012742725459630
 Root     88 :    18.061506489314850
 Root     89 :    18.061518721948170
 Root     90 :    18.120756121259200
 Root     91 :    18.205470071857120
 Root     92 :    18.205510462700350
 Root     93 :    18.229732650135570
 Root     94 :    18.566702829049750
 Root     95 :    18.627008277324020
 Root     96 :    18.712693826651110
 Root     97 :    18.712826493309460
 Root     98 :    19.088355054621390
 Root     99 :    19.186133178277520
 Root    100 :    19.186133725130360
 Root    101 :    19.263233813305060
 Root    102 :    19.263246856909870
 Root    103 :    19.297367573350870
 Root    104 :    19.339181163726010
 Root    105 :    19.395315756417990
 Root    106 :    19.395337832298810
 Root    107 :    19.422743908560310
 Root    108 :    19.422769631975810
 Root    109 :    19.813325353596490
 Root    110 :    20.048481365837660
 Root    111 :    20.091356706599130
 Root    112 :    20.091379006465270
 Root    113 :    20.177628509396430
 Root    114 :    20.275670930202150
 Root    115 :    20.275674344198270
 Root    116 :    20.363287506732920
 Root    117 :    20.478175997984910
 Root    118 :    20.495373287727570
 Root    119 :    20.495375949717420
 Root    120 :    20.541249525042410
 Root    121 :    20.565197320776360
 Root    122 :    20.588104910637740
 Root    123 :    20.588112578795560
 Root    124 :    20.683065789881940
 Root    125 :    20.683091109010160
 Root    126 :    20.773564687086780
 Root    127 :    20.804945179102770
 Root    128 :    20.926990986849020
 Root    129 :    20.927007763798960
 Root    130 :    21.059192847069950
 Root    131 :    21.059201436419040
 Root    132 :    21.130392486528290
 Root    133 :    21.352776072330690
 Root    134 :    21.363632646761860
 Root    135 :    21.363635071753210
 Root    136 :    21.467232898390510
 Root    137 :    21.467233661492200
 Root    138 :    21.557284074445820
 Root    139 :    21.678353372588500
 Root    140 :    21.701519432608490
 Root    141 :    21.701523057887050
 Root    142 :    21.816734754639120
 Root    143 :    21.843640967217160
 Root    144 :    21.886277812098210
 Root    145 :    21.886297859880550
 Root    146 :    21.920675434611950
 Root    147 :    21.920690195003010
 Root    148 :    22.168198955529850
 Root    149 :    22.168223529919730
 Root    150 :    22.188054572013450
 Root    151 :    22.592003665973290
 Root    152 :    22.592025783243030
 Root    153 :    22.654423662611620
 Root    154 :    22.836404850665170
 Root    155 :    22.851379084660780
 Root    156 :    22.851427018678500
 Root    157 :    22.953633442478180
 Root    158 :    22.953755398018760
 Root    159 :    23.364858150688100
 Root    160 :    23.364880452348050
 Root    161 :    23.433570654709690
 Root    162 :    23.446482641492830
 Root    163 :    23.541687246317000
 Root    164 :    23.541692566823050
 Root    165 :    23.557048839340490
 Root    166 :    23.676207011418040
 Root    167 :    23.676370792893580
 Root    168 :    23.726120990440740
 Root    169 :    23.912653718391520
 Root    170 :    23.912658578309810
 Root    171 :    23.948469643510450
 Root    172 :    24.020336720630400
 Root    173 :    24.020348619164040
 Root    174 :    24.049159497554520
 Root    175 :    24.064271490199830
 Root    176 :    24.191106913431640
 Root    177 :    24.191115050410640
 Root    178 :    24.351545835298500
 Root    179 :    24.351673493210260
 Root    180 :    24.417217761691110
 Root    181 :    24.417256993190740
 Root    182 :    24.517406584046730
 Root    183 :    24.640918418034210
 Root    184 :    24.713756211095580
 Root    185 :    24.713764304461270
 Root    186 :    24.794543013144900
 Root    187 :    24.887197963086120
 Root    188 :    24.916086047763760
 Root    189 :    25.018686423319570
 Root    190 :    25.018688632080200
 Root    191 :    25.041066283965890
 Root    192 :    25.041070507966730
 Root    193 :    25.358886365219130
 Root    194 :    26.124131486074490
 Root    195 :    26.124141079396580
 Root    196 :    26.530966456795450
 Root    197 :    26.676987034378850
 Root    198 :    26.676991694341200
 Root    199 :    27.316138172473630
 Root    200 :    27.316287562833000
 Root    201 :    27.502206792983440
 Root    202 :    27.956115222683790
 Root    203 :    27.956204510637980
 Root    204 :    28.040176812461870
 Root    205 :    28.040187000885150
 Root    206 :    28.084959487808220
 Root    207 :    28.471249652263970
 Root    208 :    28.471259355470690
 Root    209 :    28.548612479928970
 Root    210 :    28.550887150644740
 Root    211 :    28.550887719619920
 Root    212 :    28.568122490543770
 Root    213 :    28.718354266550850
 Root    214 :    28.903450451503430
 Root    215 :    28.939939484222900
 Root    216 :    28.939940030146520
 Root    217 :    29.093887933990920
 Root    218 :    29.179309702490370
 Root    219 :    29.234891605815400
 Root    220 :    29.260861357882350
 Root    221 :    29.327104875726550
 Root    222 :    29.327108145133670
 Root    223 :    29.343548743132050
 Root    224 :    29.343565708673450
 Root    225 :    29.392374444078280
 Root    226 :    29.563488215849020
 Root    227 :    29.635372370265660
 Root    228 :    29.635377785945750
 Root    229 :    30.013089205178130
 Root    230 :    30.013101371193580
 Root    231 :    30.100159176721200
 Root    232 :    30.100175972142210
 Root    233 :    30.196406791212470
 Root    234 :    30.196436851078140
 Root    235 :    30.368032939026000
 Root    236 :    30.585465875040920
 Root    237 :    30.585508169890100
 Root    238 :    30.607855367704010
 Root    239 :    30.669571619135980
 Root    240 :    30.669636016469910
 Root    241 :    30.782087330437420
 Root    242 :    31.073646859868050
 Root    243 :    31.378479305835490
 Root    244 :    31.917729552403020
 Root    245 :    31.917731396915850
 Root    246 :    32.006146710008790
 Root    247 :    32.090727398248710
 Root    248 :    32.090733863654930
 Root    249 :    32.235001067364230
 Root    250 :    32.235008381696290
 Root    251 :    32.274350924070990
 Root    252 :    32.337150135403040
 Root    253 :    32.337161987523080
 Root    254 :    32.701903471298020
 Root    255 :    32.701916163470090
 Root    256 :    33.071964353197270
 Root    257 :    33.071982465108060
 Root    258 :    33.074085344882310
 Root    259 :    33.192827015906360
 Root    260 :    33.192834367320060
 Root    261 :    33.275342980079950
 Root    262 :    33.420351772788380
 Root    263 :    33.636241392961800
 Root    264 :    33.636242982227340
 Root    265 :    33.793489539078630
 Root    266 :    34.007285058125090
 Root    267 :    34.033915950796870
 Root    268 :    34.137697981061460
 Root    269 :    34.137698134712520
 Root    270 :    34.469935295621350
 Root    271 :    34.586413924590520
 Root    272 :    34.586418132846360
 Root    273 :    34.613060460359230
 Root    274 :    34.780816484734050
 Root    275 :    34.780903933785030
 Root    276 :    34.820148662892200
 Root    277 :    34.916803231798810
 Root    278 :    34.916834731717570
 Root    279 :    35.221372810974030
 Root    280 :    35.418819433065290
 Root    281 :    35.418825920738050
 Root    282 :    35.707570954027150
 Root    283 :    35.879229975403000
 Root    284 :    35.963264370411740
 Root    285 :    35.963321444188830
 Root    286 :    36.019309644309990
 Root    287 :    36.019311837258930
 Root    288 :    36.179375726717960
 Root    289 :    36.179379872909370
 Root    290 :    36.431028270130650
 Root    291 :    36.431040537271240
 Root    292 :    36.444001277065730
 Root    293 :    36.567694506561830
 Root    294 :    36.649391871143900
 Root    295 :    36.690499087129880
 Root    296 :    36.690573127848400
 Root    297 :    36.910964534579470
 Root    298 :    36.911364775660810
 Root    299 :    36.911366333290270
 Root    300 :    37.204722333015460
 Root    301 :    37.204816427806210
 Root    302 :    37.230899095045250
 Root    303 :    37.260813468339020
 Root    304 :    37.260837801383580
 Root    305 :    37.523849736844750
 Root    306 :    37.566098354082920
 Root    307 :    37.566106813701590
 Root    308 :    37.710858322497960
 Root    309 :    37.710860506621390
 Root    310 :    37.775375540265930
 Root    311 :    37.775383262914000
 Root    312 :    37.872318333965690
 Root    313 :    37.872347562626490
 Root    314 :    37.958927484786120
 Root    315 :    37.958930134133250
 Root    316 :    38.319857049520510
 Root    317 :    38.723445873834280
 Root    318 :    39.140508384689800
 Root    319 :    39.413129230211940
 Root    320 :    39.470807362636460
 Root    321 :    39.492411497157260
 Root    322 :    39.492506809856830
 Root    323 :    39.620140515509110
 Root    324 :    39.620206606057250
 Root    325 :    39.867587106233160
 Root    326 :    40.192402398514820
 Root    327 :    40.206852941736090
 Root    328 :    40.206865525367040
 Root    329 :    40.275400237911430
 Root    330 :    40.331406201485630
 Root    331 :    40.331423015606800
 Root    332 :    40.522435033441030
 Root    333 :    40.522437741201000
 Root    334 :    40.989704553885570
 Root    335 :    41.193742980862800
 Root    336 :    41.193743882234120
 Root    337 :    42.675504609147760
 Root    338 :    42.741249829315640
 Root    339 :    42.741282098572520
 Root    340 :    42.944531662912190
 Root    341 :    42.944541627984900
 Root    342 :    43.132439628264650
 Root    343 :    43.132457872734970
 Root    344 :    43.265385440307530
 Root    345 :    43.736168082298480
 Root    346 :    43.736184880359930
 Root    347 :    44.308938452135470
 Root    348 :    44.529275270726380
 Root    349 :    44.598286677312490
 Root    350 :    44.598298741072770
 Root    351 :    44.678666759042150
 Root    352 :    45.185579992421120
 Root    353 :    45.766613441442080
 Root    354 :    46.127059180396730
 Root    355 :    46.127070090853240
 Root    356 :    46.256962951619630
 Root    357 :    46.256977459219060
 Root    358 :    46.395291608610270
 Root    359 :    46.395946979689410
 Root    360 :    46.395952434652710
 Root    361 :    46.465832620047910
 Root    362 :    47.002516873452240
 Root    363 :    47.002520115746710
 Root    364 :    47.264190137329030
 Root    365 :    47.402225645802120
 Root    366 :    48.472135840332520
 Root    367 :    48.472237909034810
 Root    368 :    48.492941486316490
 Root    369 :    48.790547412346490
 Root    370 :    48.790552369799060
 Root    371 :    48.949592254506650
 Root    372 :    49.471057787771780
 Root    373 :    49.639712720812150
 Root    374 :    49.697222211732890
 Root    375 :    49.697229206092800
 Root    376 :    49.941194793695300
 Root    377 :    49.941222340682610
 Root    378 :    50.368731081026340
 Root    379 :    51.372530772921160
 Root    380 :    51.674674841519650
 Root    381 :    51.797938244663370
 Root    382 :    51.797952539973500
 Root    383 :    52.045046072973170
 Root    384 :    52.173230599596760
 Root    385 :    52.482152640710000
 Root    386 :    52.482189701692680
 Root    387 :    52.575166536613600
 Root    388 :    52.575167840579460
 Root    389 :    53.246507158509820
 Root    390 :    53.484794295516820
 Root    391 :    53.484815132258920
 Root    392 :    53.649806346913900
 Root    393 :    54.013149432460650
 Root    394 :    54.013275778486760
 Root    395 :    54.073573453225510
 Root    396 :    54.255529751293170
 Root    397 :    54.311240986584840
 Root    398 :    54.311260795678980
 Root    399 :    54.343044875063240
 Root    400 :    54.343066577851650
 Root    401 :    54.598017166290060
 Root    402 :    54.598034694186610
 Root    403 :    54.978236508485200
 Root    404 :    55.237043115342680
 Root    405 :    55.295657003406000
 Root    406 :    55.419798932835630
 Root    407 :    55.419813869657790
 Root    408 :    55.890364543334410
 Root    409 :    55.890386773934350
 Root    410 :    55.969741731574490
 Root    411 :    56.239998419386620
 Root    412 :    56.240014468439630
 Root    413 :    56.519804120662130
 Root    414 :    56.519808333833190
 Root    415 :    56.576259262560380
 Root    416 :    56.585217364824800
 Root    417 :    56.927016796746630
 Root    418 :    57.096046891008930
 Root    419 :    57.096057477541920
 Root    420 :    57.927375227661360
 Root    421 :    58.063468484884110
 Root    422 :    58.063475168960180
 Root    423 :    58.318435427934400
 Root    424 :    59.153246973758650
 Root    425 :    59.153256386030970
 Root    426 :    59.308886233768490
 Root    427 :    59.925300763439450
 Root    428 :    60.179780336356020
 Root    429 :    60.394273278792350
 Root    430 :    60.394278368407060
 Root    431 :    60.768464316584140
 Root    432 :    60.768521305381380
 Root    433 :    61.079636231017570
 Root    434 :    61.098115651914290
 Root    435 :    61.098137920637840
 Root    436 :    61.268357910543760
 Root    437 :    61.565846780365360
 Root    438 :    61.565865909828630
 Root    439 :    63.004905311221080
 Root    440 :    63.024756942937230
 Root    441 :    63.024780248999180
 Root    442 :    63.348205266912720
 Root    443 :    63.539128971277150
 Root    444 :    63.539135218583000
 Root    445 :    63.628185773554140
 Root    446 :    64.230504088830060
 Root    447 :    64.297403192673460
 Root    448 :    64.297439021860300
 Root    449 :    64.753675441027130
 Root    450 :    64.753722532877030
 Root    451 :    65.403864563138950
 Root    452 :    65.408770670445520
 Root    453 :    65.493137467857950
 Root    454 :    65.493152607080550
 Root    455 :    66.247433738249280
 Root    456 :    66.247440074429520
 Root    457 :    66.299957572272350
 Root    458 :    66.523986059765900
 Root    459 :    66.523992488625270
 Root    460 :    66.604271532344100
 Root    461 :    66.965356116466150
 Root    462 :    66.965392478734970
 Root    463 :    67.183294509889310
 Root    464 :    67.183295837453260
 Root    465 :    68.188622853538930
 Root    466 :    68.312459135469180
 Root    467 :    68.312471655555540
 Root    468 :    68.815860970679310
 Root    469 :    68.819104025298710
 Root    470 :    68.819128400638210
 Root    471 :    69.281640046944570
 Root    472 :    69.320542763937280
 Root    473 :    69.320585289866780
 Root    474 :    70.075222126412240
 Root    475 :    70.191971486891080
 Root    476 :    70.191984949303670
 Root    477 :    70.496766228108750
 Root    478 :    70.496767973475500
 Root    479 :    70.988617106357300
 Root    480 :    70.988665019643160
 Root    481 :    71.326729207704220
 Root    482 :    71.628976677933420
 Root    483 :    71.629022274893390
 Root    484 :    72.205101310012040
 Root    485 :    72.205145176118950
 Root    486 :    72.872756869576020
 Root    487 :    72.872809822680050
 Root    488 :    73.033515493440420
 Root    489 :    74.859218568594610
 Root    490 :    74.859232215177510
 Root    491 :    75.116051751134720
 Root    492 :    75.295426617553030
 Root    493 :    75.483607923589010
 Root    494 :    75.879769320327640
 Root    495 :    75.879785632470190
 Root    496 :    76.011444398257230
 Root    497 :    76.397686624429230
 Root    498 :    77.407285994193700
 Root    499 :    77.407328780483170
 Root    500 :    77.623975791648680
 Root    501 :    77.623977066051210
 Root    502 :    77.775897993143490
 Root    503 :    77.775907027112790
 Root    504 :    78.233383194647470
 Root    505 :    78.547393176061890
 Root    506 :    78.547447469601980
 Root    507 :    78.783908696854820
 Root    508 :    79.791373572932220
 Root    509 :    79.791506065619500
 Root    510 :    80.297580173173030
 Root    511 :    80.443815492594570
 Root    512 :    80.449511632265440
 Root    513 :    80.449528174976290
 Root    514 :    80.585429443827140
 Root    515 :    80.779287607017270
 Root    516 :    80.991732775087160
 Root    517 :    80.991774624882620
 Root    518 :    81.092486332112560
 Root    519 :    81.092488627676370
 Root    520 :    81.780702313314220
 Root    521 :    81.780704269107960
 Root    522 :    83.041965754195300
 Root    523 :    83.658883810173070
 Root    524 :    83.658911196844470
 Root    525 :    84.998302966346090
 Root    526 :    85.776205797652310
 Root    527 :    87.158117050280810
 Root    528 :    87.158126489232330
 Root    529 :    88.150494478685300
 Root    530 :    88.150543138711190
 Root    531 :    88.779787808412450
 Root    532 :    89.230164301465140
 Root    533 :    89.230166841970970
 Root    534 :    89.415873124648000
 Root    535 :    89.776972222267660
 Root    536 :    89.776998135884410
 Root    537 :    89.885868839557470
 Root    538 :    89.885903493705870
 Root    539 :    90.677127693678470
 Root    540 :    90.677153135958450
 Root    541 :    91.119156268551550
 Root    542 :    91.353438654104080
 Root    543 :    91.353518032343120
 Root    544 :    91.469881718160110
 Root    545 :    92.142565772474110
 Root    546 :    92.142572644627800
 Root    547 :    92.448474208777140
 Root    548 :    92.480925195995970
 Root    549 :    92.481011017266610
 Root    550 :    92.673789352017320
 Root    551 :    92.755200443173440
 Root    552 :    92.922250753465290
 Root    553 :    92.922298624311760
 Root    554 :    93.195650861198940
 Root    555 :    93.955826524948380
 Root    556 :    93.955836771187340
 Root    557 :    94.953361975953430
 Root    558 :    94.953433424402600
 Root    559 :    96.041738163905890
 Root    560 :    96.312081036308500
 Root    561 :    96.591460336807090
 Root    562 :    96.591543982019730
 Root    563 :    96.728557787060300
 Root    564 :    97.408626311466160
 Root    565 :    97.408699596229470
 Root    566 :    97.456841642819310
 Root    567 :   100.633151067007600
 Root    568 :   100.633305176172300
 Root    569 :   103.587280834295300
 Root    570 :   103.965230428396800
 Root    571 :   103.965245571373700
 Root    572 :   104.519687602283400
 Root    573 :   104.519709421974300
 Root    574 :   105.281477226268400
 Root    575 :   105.496561077420400
 Root    576 :   105.496565044289500
 Root    577 :   106.361435142362800
 Root    578 :   107.920614823027800
 Root    579 :   107.920616988915700
 Root    580 :   110.694471694417900
 Root    581 :   110.694488334929300
 Root    582 :   111.365920659466700
 Root    583 :   119.070643328776400
 Root    584 :   120.577777546997100
 Convergence achieved for final wavefunctions.
 ***********************************************************************
 Excited states from <AA,BB:AA,BB> singles matrix:
 ***********************************************************************
 
 1PDM for each excited state written to RWF  633
 Ground to excited state transition densities written to RWF  633
 Ground to excited state transition electric dipole moments (Au):
       state          X           Y           Z        Dip. S.      Osc.
         1         0.0000      0.0000     -0.0000      0.0000      0.0000
         2        -0.0000      0.1082     -0.0000      0.0117      0.0025
         3         0.1082      0.0000     -0.0000      0.0117      0.0025
         4         0.0000      0.1371     -0.0000      0.0188      0.0040
         5         0.1371     -0.0000      0.0000      0.0188      0.0040
         6        -0.2754     -0.0000     -0.0000      0.0758      0.0173
         7        -0.0000      0.2754      0.0000      0.0758      0.0173
         8         0.0000      0.0000     -0.4293      0.1843      0.0443
         9         0.0000      0.5355     -0.0000      0.2867      0.0729
        10         0.5355     -0.0000     -0.0000      0.2867      0.0729
        11         0.0000     -0.0000      1.6158      2.6107      0.7098
        12         0.0000      0.0000      0.0000      0.0000      0.0000
        13        -0.0000      0.0000      0.4154      0.1726      0.0495
        14        -0.3462     -0.0000      0.0000      0.1198      0.0346
        15        -0.0000      0.3462     -0.0000      0.1199      0.0346
        16        -0.5286     -0.0000      0.0000      0.2794      0.0832
        17         0.0000     -0.5285      0.0000      0.2794      0.0832
        18        -0.0001      0.0000     -0.0000      0.0000      0.0000
        19        -0.2166     -0.0000     -0.0000      0.0469      0.0142
        20         0.0000     -0.2166     -0.0001      0.0469      0.0142
        21         0.0000     -0.1056      0.0003      0.0111      0.0034
        22        -0.1055     -0.0000      0.0000      0.0111      0.0034
        23         0.0000      0.0001      0.2757      0.0760      0.0231
        24         0.0000      0.0000     -1.3884      1.9275      0.5919
        25         0.0000      0.0000     -0.0000      0.0000      0.0000
        26        -0.2907     -0.0000     -0.0000      0.0845      0.0271
        27        -0.0000      0.2907      0.0000      0.0845      0.0271
        28         0.0000     -0.0000     -0.4491      0.2017      0.0655
        29         0.0000     -0.2060      0.0000      0.0424      0.0138
        30         0.2060      0.0000     -0.0000      0.0424      0.0138
        31         0.0000     -0.0000      0.7204      0.5189      0.1738
        32         0.0000     -0.0950     -0.0001      0.0090      0.0030
        33        -0.0949     -0.0000     -0.0000      0.0090      0.0030
        34        -0.1882     -0.0000     -0.0000      0.0354      0.0120
        35         0.0000     -0.1882     -0.0001      0.0354      0.0120
        36        -0.0000      0.0001     -0.4294      0.1844      0.0626
        37         0.0007     -0.0000      0.0000      0.0000      0.0000
        38        -0.0000      0.1455     -0.0000      0.0212      0.0073
        39        -0.1455     -0.0000     -0.0000      0.0212      0.0073
        40         0.2368     -0.0000     -0.0000      0.0561      0.0194
        41        -0.0000     -0.2368     -0.0000      0.0561      0.0194
        42        -0.0044     -0.0000     -0.0000      0.0000      0.0000
        43         0.0000     -0.0044      0.0000      0.0000      0.0000
        44        -0.0000     -0.0001      0.1684      0.0284      0.0101
        45         0.0968     -0.0000      0.0000      0.0094      0.0034
        46         0.0000      0.0969     -0.0001      0.0094      0.0034
        47        -0.0000     -0.0000      0.0000      0.0000      0.0000
        48         0.3534     -0.0000     -0.0000      0.1249      0.0456
        49         0.0000      0.3534      0.0000      0.1249      0.0456
        50         0.3917     -0.0000     -0.0000      0.1535      0.0566
        51        -0.0000     -0.3917     -0.0000      0.1534      0.0566
        52         0.0002      0.0000     -0.0000      0.0000      0.0000
        53        -0.0000      0.0001     -0.0766      0.0059      0.0022
        54        -0.0000     -0.0001     -0.0633      0.0040      0.0015
        55         0.0000      0.4131     -0.0000      0.1706      0.0646
        56         0.4130     -0.0000      0.0000      0.1706      0.0646
        57         0.0000      0.0000      0.0853      0.0073      0.0028
        58         0.8500     -0.0000     -0.0000      0.7224      0.2807
        59        -0.0000     -0.8499     -0.0000      0.7224      0.2807
        60         0.0000     -0.0001      0.5794      0.3357      0.1307
        61        -0.4434     -0.0000     -0.0000      0.1966      0.0777
        62        -0.0000      0.4434     -0.0000      0.1966      0.0776
        63         0.0026      0.0000      0.0000      0.0000      0.0000
        64         0.0000     -0.0002     -0.0714      0.0051      0.0020
        65         0.0000      0.0000     -0.0067      0.0000      0.0000
        66         0.1969     -0.0000     -0.0000      0.0388      0.0157
        67        -0.0000     -0.1973      0.0000      0.0389      0.0157
        68        -0.0000     -1.0787      0.0000      1.1636      0.4720
        69        -1.0789      0.0000     -0.0000      1.1640      0.4722
        70         0.0003     -0.0000      0.0000      0.0000      0.0000
        71        -0.6091      0.0000     -0.0000      0.3709      0.1545
        72         0.0000      0.6091     -0.0001      0.3710      0.1545
        73         0.0043     -0.0000      0.0000      0.0000      0.0000
        74         0.0000      0.0053      0.0000      0.0000      0.0000
        75        -0.0000      0.0479      0.0000      0.0023      0.0010
        76        -0.0480     -0.0000     -0.0000      0.0023      0.0010
        77         0.1529      0.0000      0.0000      0.0234      0.0100
        78        -0.0000      0.1529      0.0003      0.0234      0.0100
        79         0.0000     -0.0000      0.9991      0.9982      0.4285
        80        -0.0224      0.0000     -0.0000      0.0005      0.0002
        81         0.0000      0.0224     -0.0000      0.0005      0.0002
        82         0.0000     -0.0000      0.0000      0.0000      0.0000
        83        -0.0000     -0.0001     -0.1857      0.0345      0.0151
        84        -0.0000     -0.3141     -0.0000      0.0987      0.0433
        85        -0.3141      0.0000      0.0000      0.0987      0.0433
        86        -0.0000      0.0733      0.0000      0.0054      0.0024
        87        -0.0734     -0.0000      0.0000      0.0054      0.0024
        88         0.6576      0.0000      0.0000      0.4324      0.1913
        89        -0.0000      0.6576      0.0001      0.4324      0.1913
        90         0.0001     -0.0000      0.0000      0.0000      0.0000
        91         0.3474     -0.0000     -0.0000      0.1207      0.0538
        92         0.0000      0.3475      0.0002      0.1207      0.0539
        93         0.0000      0.0004     -0.1319      0.0174      0.0078
        94         0.0000     -0.0000      0.1625      0.0264      0.0120
        95         0.0000     -0.0001     -0.0599      0.0036      0.0016
        96         0.2206     -0.0000     -0.0000      0.0486      0.0223
        97         0.0000      0.2207      0.0001      0.0487      0.0223
        98         0.0000      0.0000     -0.2463      0.0607      0.0284
        99        -0.0423     -0.0000     -0.0000      0.0018      0.0008
       100        -0.0000      0.0423      0.0000      0.0018      0.0008
       101        -0.0000      0.2145      0.0000      0.0460      0.0217
       102        -0.2145     -0.0000     -0.0000      0.0460      0.0217
       103         0.0000      0.0000     -0.0000      0.0000      0.0000
       104         0.0000      0.0000      0.8777      0.7703      0.3650
       105         0.1189     -0.0000      0.0000      0.0141      0.0067
       106         0.0000      0.1189     -0.0001      0.0141      0.0067
       107         0.0000      0.3037     -0.0002      0.0922      0.0439
       108         0.3036     -0.0000     -0.0000      0.0922      0.0439
       109         0.0000     -0.0000      0.0000      0.0000      0.0000
       110        -0.0000      0.0000      0.0992      0.0098      0.0048
       111         0.3089     -0.0000      0.0000      0.0954      0.0470
       112         0.0000      0.3090      0.0000      0.0955      0.0470
       113         0.0000     -0.0000      0.5114      0.2615      0.1293
       114         0.0398      0.0000      0.0000      0.0016      0.0008
       115        -0.0000      0.0397     -0.0000      0.0016      0.0008
       116        -0.0000      0.0000     -0.0000      0.0000      0.0000
       117         0.0001     -0.0000     -0.0000      0.0000      0.0000
       118        -0.0223      0.0000      0.0000      0.0005      0.0002
       119         0.0000      0.0223      0.0000      0.0005      0.0003
       120        -0.0000      0.0001      0.0462      0.0021      0.0011
       121         0.0000      0.0001     -0.1750      0.0306      0.0154
       122         0.0000     -0.0771     -0.0000      0.0059      0.0030
       123        -0.0770     -0.0000     -0.0000      0.0059      0.0030
       124         0.0693      0.0000      0.0000      0.0048      0.0024
       125         0.0000     -0.0693     -0.0000      0.0048      0.0024
       126        -0.0000     -0.0000      0.0388      0.0015      0.0008
       127         0.0000     -0.0000     -0.2437      0.0594      0.0303
       128        -0.5961     -0.0000     -0.0000      0.3553      0.1822
       129        -0.0000      0.5961     -0.0000      0.3553      0.1822
       130         0.4373      0.0000     -0.0000      0.1912      0.0987
       131         0.0000     -0.4374      0.0000      0.1913      0.0987
       132         0.0000     -0.0001      0.1216      0.0148      0.0077
       133        -0.0000      0.0000     -0.0000      0.0000      0.0000
       134         0.0000      0.0417      0.0000      0.0017      0.0009
       135        -0.0417      0.0000      0.0000      0.0017      0.0009
       136        -0.0046      0.0000      0.0000      0.0000      0.0000
[...]
     10   0.462530D-01  0.561350D-05  0.000000D+00  0.000000D+00  0.000000D+00
     11   0.000000D+00  0.000000D+00 -0.834428D-01  0.102774D+00 -0.133983D+00
     12   0.000000D+00  0.000000D+00  0.834269D-01  0.102818D+00 -0.133977D+00
     13   0.000000D+00  0.000000D+00 -0.703818D-05  0.672699D+00  0.108736D+01
     14   0.803505D-05 -0.834067D-01  0.000000D+00  0.000000D+00  0.000000D+00
     15  -0.218520D-04  0.190418D+00  0.000000D+00  0.000000D+00  0.000000D+00
     16   0.000000D+00  0.000000D+00  0.190411D+00 -0.781216D-05 -0.121138D-04
               516           517           518           519           520 
      1  -0.129597D+03 -0.129597D+03 -0.129594D+03 -0.129594D+03 -0.129568D+03
      2   0.155085D-01  0.000000D+00  0.000000D+00  0.490535D-01  0.000000D+00
      3   0.000000D+00 -0.155222D-01  0.490466D-01  0.000000D+00  0.169184D+00
      4   0.000000D+00  0.160035D-05  0.000000D+00  0.000000D+00  0.000000D+00
      5  -0.406260D-01  0.000000D+00  0.000000D+00 -0.131114D+00  0.000000D+00
      6   0.000000D+00  0.406627D-01 -0.131096D+00  0.000000D+00 -0.441012D+00
      7   0.000000D+00 -0.410172D-05 -0.172535D-05  0.000000D+00 -0.160509D-05
      8   0.000000D+00  0.237787D+00  0.260464D+00  0.000000D+00  0.867270D+00
      9   0.237802D+00  0.000000D+00  0.000000D+00 -0.260422D+00  0.000000D+00
     10  -0.100190D-05  0.000000D+00  0.000000D+00  0.000000D+00  0.000000D+00
     11   0.000000D+00  0.177729D+00 -0.123662D+00  0.000000D+00  0.401394D-01
     12   0.000000D+00 -0.177728D+00  0.123661D+00  0.000000D+00 -0.401356D-01
     13   0.000000D+00  0.118841D-05 -0.142042D-04  0.000000D+00  0.000000D+00
     14  -0.177739D+00  0.000000D+00  0.000000D+00 -0.123677D+00  0.000000D+00
     15   0.228442D+00  0.000000D+00  0.000000D+00 -0.364622D+00  0.000000D+00
     16   0.000000D+00 -0.228401D+00 -0.364665D+00  0.000000D+00 -0.816559D+00
               521           522           523           524           525 
      1  -0.129568D+03 -0.129522D+03 -0.129499D+03 -0.129499D+03 -0.129450D+03
      2  -0.169184D+00  0.000000D+00 -0.753230D-01  0.000000D+00  0.000000D+00
      3   0.000000D+00  0.100170D-05  0.000000D+00 -0.753272D-01 -0.228462D-05
      4   0.000000D+00  0.455723D-01  0.000000D+00  0.102053D-05  0.341452D-01
      5   0.441012D+00  0.000000D+00  0.161679D+00  0.000000D+00  0.000000D+00
      6   0.000000D+00 -0.245413D-05  0.000000D+00  0.161690D+00  0.466001D-05
      7   0.000000D+00 -0.149783D+00  0.000000D+00 -0.280480D-05 -0.116091D+00
      8   0.000000D+00  0.235357D-05  0.000000D+00 -0.302890D-01  0.765119D-05
      9   0.867270D+00  0.000000D+00  0.303287D-01  0.000000D+00  0.000000D+00
     10   0.000000D+00  0.000000D+00  0.000000D+00  0.000000D+00  0.000000D+00
     11   0.000000D+00  0.173737D-01  0.000000D+00  0.317916D-01 -0.724720D-01
     12   0.000000D+00  0.173761D-01  0.000000D+00 -0.317842D-01 -0.724723D-01
     13   0.000000D+00 -0.625803D+00  0.000000D+00 -0.786972D-05  0.109162D+01
     14  -0.401389D-01  0.000000D+00  0.318004D-01  0.000000D+00  0.000000D+00
     15   0.816557D+00  0.000000D+00 -0.685274D-01  0.000000D+00  0.000000D+00
     16   0.000000D+00 -0.117489D-05  0.000000D+00 -0.685685D-01 -0.108395D-04
               526           527           528           529           530 
      1  -0.129422D+03 -0.129371D+03 -0.129371D+03 -0.129334D+03 -0.129334D+03
      2   0.000000D+00 -0.284445D-01  0.000000D+00  0.312113D-01  0.000000D+00
      3   0.000000D+00  0.000000D+00 -0.284408D-01  0.000000D+00 -0.312103D-01
      4  -0.391222D-01  0.000000D+00  0.000000D+00  0.000000D+00  0.000000D+00
      5   0.000000D+00  0.710130D-01  0.000000D+00 -0.840759D-01  0.000000D+00
      6   0.000000D+00  0.000000D+00  0.710035D-01  0.000000D+00  0.840734D-01
      7   0.129523D+00  0.000000D+00  0.144121D-05  0.000000D+00  0.000000D+00
      8   0.000000D+00  0.000000D+00  0.192001D+00  0.000000D+00  0.951677D-01
      9   0.000000D+00 -0.192020D+00  0.000000D+00  0.951755D-01  0.000000D+00
     10   0.000000D+00 -0.287353D-05  0.000000D+00  0.000000D+00  0.000000D+00
     11  -0.639200D-01  0.000000D+00  0.278255D-01  0.000000D+00  0.381105D+00
     12  -0.639199D-01  0.000000D+00 -0.278268D-01  0.000000D+00 -0.381108D+00
     13   0.928449D+00  0.000000D+00 -0.242330D-04  0.000000D+00  0.000000D+00
     14   0.000000D+00  0.278135D-01  0.000000D+00 -0.381102D+00  0.000000D+00
     15   0.000000D+00 -0.353072D+00  0.000000D+00  0.126951D+00  0.000000D+00
     16   0.000000D+00  0.000000D+00 -0.353068D+00  0.000000D+00 -0.126952D+00
               531           532           533           534           535 
      1  -0.129311D+03 -0.129295D+03 -0.129295D+03 -0.129288D+03 -0.129275D+03
      2  -0.449866D-05  0.000000D+00  0.542279D-01  0.000000D+00 -0.424410D-01
      3   0.000000D+00  0.542265D-01  0.000000D+00  0.000000D+00  0.000000D+00
      4   0.000000D+00 -0.745656D-05  0.000000D+00  0.143490D+00  0.000000D+00
      5   0.122868D-04  0.000000D+00 -0.158703D+00  0.000000D+00  0.106385D+00
      6   0.000000D+00 -0.158699D+00  0.000000D+00  0.000000D+00  0.000000D+00
      7   0.000000D+00  0.224646D-04  0.000000D+00 -0.439732D+00  0.000000D+00
      8   0.000000D+00 -0.243936D+00  0.000000D+00  0.000000D+00  0.000000D+00
      9  -0.260572D-04  0.000000D+00  0.243941D+00  0.000000D+00 -0.123976D+00
     10  -0.131674D-02  0.000000D+00  0.000000D+00  0.000000D+00  0.000000D+00
     11   0.000000D+00  0.185822D+00  0.000000D+00  0.398051D-02  0.000000D+00
     12   0.000000D+00 -0.185817D+00  0.000000D+00  0.396962D-02  0.000000D+00
     13   0.000000D+00  0.197769D-04  0.000000D+00 -0.943919D+00  0.000000D+00
     14   0.192807D-05  0.000000D+00  0.185832D+00  0.000000D+00  0.520882D-01
     15  -0.334403D-04  0.000000D+00  0.147013D+00  0.000000D+00 -0.364867D+00
     16   0.000000D+00  0.147029D+00  0.000000D+00 -0.954243D-05  0.000000D+00
               536           537           538           539           540 
      1  -0.129275D+03 -0.129271D+03 -0.129271D+03 -0.129241D+03 -0.129241D+03
      2   0.000000D+00  0.343199D-01  0.000000D+00 -0.139551D+00  0.000000D+00
      3  -0.424335D-01  0.000000D+00  0.343203D-01  0.000000D+00  0.139554D+00
      4  -0.240433D-05  0.000000D+00  0.213469D-05  0.000000D+00  0.000000D+00
      5   0.000000D+00 -0.950347D-01  0.000000D+00  0.409762D+00  0.000000D+00
      6   0.106363D+00  0.000000D+00 -0.950354D-01  0.000000D+00 -0.409769D+00
      7   0.730659D-05  0.000000D+00 -0.676537D-05  0.000000D+00  0.137649D-05
      8   0.123978D+00  0.000000D+00 -0.175574D+00  0.000000D+00  0.114709D+01
      9   0.000000D+00  0.175556D+00  0.000000D+00  0.114710D+01  0.000000D+00
     10   0.000000D+00  0.000000D+00  0.000000D+00  0.000000D+00  0.000000D+00
     11   0.521062D-01  0.000000D+00  0.191072D+00  0.000000D+00  0.573016D-01
     12  -0.520997D-01  0.000000D+00 -0.191070D+00  0.000000D+00 -0.573067D-01
     13   0.299360D-05  0.000000D+00 -0.187767D-04  0.000000D+00 -0.975471D-05
     14   0.000000D+00  0.191066D+00  0.000000D+00 -0.573062D-01  0.000000D+00
     15   0.000000D+00  0.197590D+00  0.000000D+00  0.162377D+01  0.000000D+00
     16  -0.364881D+00  0.000000D+00  0.197630D+00  0.000000D+00 -0.162375D+01
               541           542           543           544           545 
      1  -0.129225D+03 -0.129217D+03 -0.129217D+03 -0.129212D+03 -0.129188D+03
      2  -0.183410D-04  0.841375D-01  0.000000D+00  0.000000D+00  0.584686D-01
      3   0.000000D+00  0.000000D+00  0.841422D-01 -0.295559D-04  0.000000D+00
      4   0.000000D+00  0.000000D+00 -0.628592D-05 -0.189719D-01  0.000000D+00
      5   0.534259D-04 -0.248594D+00  0.000000D+00  0.000000D+00 -0.173055D+00
      6   0.000000D+00  0.000000D+00 -0.248610D+00  0.872752D-04  0.000000D+00
      7   0.000000D+00  0.000000D+00  0.179458D-04  0.596768D-01  0.000000D+00
      8   0.000000D+00  0.000000D+00 -0.635359D+00  0.210482D-03  0.000000D+00
      9  -0.704363D-04  0.635375D+00  0.000000D+00  0.000000D+00 -0.495084D+00
     10   0.736160D-03  0.000000D+00  0.000000D+00  0.000000D+00  0.000000D+00
     11   0.000000D+00  0.000000D+00  0.176029D-01 -0.329194D-02  0.000000D+00
     12   0.000000D+00  0.000000D+00 -0.175920D-01 -0.328372D-02  0.000000D+00
     13   0.000000D+00  0.000000D+00 -0.823041D-04  0.966268D-01  0.000000D+00
     14   0.731786D-05  0.176128D-01  0.000000D+00  0.000000D+00  0.230850D-01
     15  -0.506471D-04  0.533647D+00  0.000000D+00  0.000000D+00 -0.544469D+00
     16   0.000000D+00  0.000000D+00  0.533632D+00 -0.172515D-03  0.000000D+00
               546           547           548           549           550 
      1  -0.129188D+03 -0.129176D+03 -0.129175D+03 -0.129175D+03 -0.129168D+03
      2   0.000000D+00  0.000000D+00  0.581841D-01  0.000000D+00  0.000000D+00
      3  -0.584792D-01 -0.124938D-04  0.000000D+00 -0.581566D-01  0.254817D-05
      4   0.000000D+00 -0.499224D-01  0.000000D+00  0.182548D-04 -0.646720D-01
      5   0.000000D+00  0.000000D+00 -0.176202D+00  0.000000D+00  0.000000D+00
      6   0.173086D+00  0.379373D-04  0.000000D+00  0.176121D+00 -0.627676D-05
      7   0.000000D+00  0.152534D+00  0.000000D+00 -0.655330D-04  0.247461D+00
      8  -0.495119D+00 -0.433591D-04  0.000000D+00 -0.410394D+00 -0.102847D-03
      9   0.000000D+00  0.000000D+00 -0.410405D+00  0.000000D+00  0.000000D+00
     10   0.000000D+00  0.000000D+00  0.000000D+00  0.000000D+00  0.000000D+00
     11  -0.230742D-01  0.133815D+00  0.000000D+00  0.131402D+00 -0.279981D-01
     12   0.230767D-01  0.133766D+00  0.000000D+00 -0.131446D+00 -0.280517D-01
     13   0.000000D+00 -0.751467D-02  0.000000D+00 -0.646020D-03  0.352040D+01
     14   0.000000D+00  0.000000D+00 -0.131422D+00  0.000000D+00  0.000000D+00
     15   0.000000D+00  0.000000D+00 -0.466594D+00  0.000000D+00  0.000000D+00
     16   0.544516D+00  0.501679D-04  0.000000D+00  0.466568D+00  0.102654D-03
               551           552           553           554           555 
      1  -0.129165D+03 -0.129159D+03 -0.129159D+03 -0.129149D+03 -0.129121D+03
      2  -0.172715D-04  0.130401D+00  0.000000D+00  0.000000D+00 -0.531988D-01
      3   0.000000D+00  0.000000D+00 -0.130403D+00 -0.136967D-04  0.000000D+00
      4   0.000000D+00  0.000000D+00 -0.199634D-04  0.140071D+00  0.000000D+00
      5   0.501101D-04 -0.386235D+00  0.000000D+00  0.000000D+00  0.155393D+00
      6   0.000000D+00  0.000000D+00  0.386244D+00  0.411157D-04  0.000000D+00
      7   0.000000D+00  0.000000D+00  0.660176D-04 -0.445957D+00  0.000000D+00
      8   0.000000D+00  0.000000D+00 -0.251186D-01 -0.239162D-04  0.000000D+00
      9  -0.314601D-04 -0.250780D-01  0.000000D+00  0.000000D+00  0.464805D+00
     10  -0.227325D-02  0.000000D+00  0.000000D+00  0.000000D+00  0.000000D+00
     11   0.000000D+00  0.000000D+00 -0.552950D-02  0.805713D-01  0.000000D+00
     12   0.000000D+00  0.000000D+00  0.550482D-02  0.805635D-01  0.000000D+00
     13   0.000000D+00  0.000000D+00  0.484676D-03 -0.203548D+01  0.000000D+00
     14  -0.131668D-04  0.553202D-02  0.000000D+00  0.000000D+00  0.202712D-01
     15  -0.361714D-04 -0.736783D-01  0.000000D+00  0.000000D+00  0.764463D+00
     16   0.000000D+00  0.000000D+00  0.737204D-01  0.297828D-04  0.000000D+00
               556           557           558           559           560 
      1  -0.129121D+03 -0.129084D+03 -0.129084D+03 -0.129044D+03 -0.129034D+03
      2   0.000000D+00  0.000000D+00 -0.829279D-02  0.000000D+00 -0.254283D-05
      3  -0.531973D-01 -0.828994D-02  0.000000D+00  0.000000D+00  0.000000D+00
      4  -0.240350D-05  0.000000D+00  0.000000D+00  0.673474D-01  0.000000D+00
      5   0.000000D+00  0.000000D+00  0.331122D-01  0.000000D+00  0.760473D-05
      6   0.155388D+00  0.331039D-01  0.000000D+00  0.000000D+00  0.000000D+00
      7   0.774283D-05  0.309469D-05  0.000000D+00 -0.216431D+00  0.000000D+00
      8  -0.464801D+00  0.444228D+00  0.000000D+00  0.151462D-05  0.000000D+00
      9   0.000000D+00  0.000000D+00 -0.444254D+00  0.000000D+00 -0.100054D-04
     10   0.000000D+00  0.000000D+00  0.000000D+00  0.000000D+00  0.845205D-02
     11   0.202673D-01  0.698178D-01  0.000000D+00 -0.648766D-01  0.000000D+00
     12  -0.202687D-01 -0.698169D-01  0.000000D+00 -0.648746D-01  0.000000D+00
     13   0.171020D-04  0.190826D-04  0.000000D+00  0.108488D+01  0.000000D+00
     14   0.000000D+00  0.000000D+00  0.698174D-01  0.000000D+00  0.110612D-05
     15   0.000000D+00  0.000000D+00 -0.600275D+00  0.000000D+00  0.523583D-05
     16   0.764465D+00 -0.600249D+00  0.000000D+00 -0.157555D-05  0.000000D+00
               561           562           563           564           565 
      1  -0.129024D+03 -0.129024D+03 -0.129019D+03 -0.128994D+03 -0.128994D+03
      2  -0.192465D-01  0.000000D+00  0.000000D+00  0.357002D-01  0.000000D+00
      3   0.000000D+00  0.192448D-01 -0.365328D-05  0.000000D+00  0.356996D-01
      4   0.000000D+00 -0.138085D-04 -0.837928D-01  0.000000D+00  0.000000D+00
      5   0.631918D-01  0.000000D+00  0.000000D+00 -0.912663D-01  0.000000D+00
      6   0.000000D+00 -0.631886D-01  0.113248D-04  0.000000D+00 -0.912648D-01
      7   0.000000D+00  0.535058D-04  0.324140D+00  0.000000D+00  0.000000D+00
      8   0.000000D+00 -0.177959D+00  0.355768D-04  0.000000D+00  0.283976D+00
      9  -0.177971D+00  0.000000D+00  0.000000D+00 -0.283973D+00  0.000000D+00
     10   0.000000D+00  0.000000D+00  0.000000D+00  0.000000D+00  0.000000D+00
     11   0.000000D+00 -0.100327D-01  0.246565D-01  0.000000D+00 -0.159308D-02
     12   0.000000D+00  0.100448D-01  0.246549D-01  0.000000D+00  0.158767D-02
     13   0.000000D+00 -0.498543D-04 -0.431518D+00  0.000000D+00  0.540107D-04
     14   0.100404D-01  0.000000D+00  0.000000D+00 -0.158938D-02  0.000000D+00
     15  -0.327858D-01  0.000000D+00  0.000000D+00 -0.310029D+00  0.000000D+00
     16   0.000000D+00  0.327742D-01 -0.129475D-04  0.000000D+00 -0.310032D+00
               566           567           568           569           570 
      1  -0.128992D+03 -0.128876D+03 -0.128876D+03 -0.128767D+03 -0.128753D+03
      2   0.000000D+00  0.100234D+00  0.000000D+00  0.000000D+00 -0.351503D-01
      3  -0.136274D-05  0.000000D+00 -0.100237D+00  0.000000D+00  0.000000D+00
      4  -0.424269D-01  0.000000D+00  0.000000D+00 -0.489734D-01  0.000000D+00
      5   0.000000D+00 -0.297518D+00  0.000000D+00  0.000000D+00  0.110737D+00
      6   0.352075D-05  0.000000D+00  0.297526D+00  0.159124D-05  0.000000D+00
      7   0.159485D+00  0.000000D+00 -0.178785D-05  0.135493D+00  0.000000D+00
      8  -0.105096D-04  0.000000D+00  0.681266D+00 -0.962338D-05  0.000000D+00
      9   0.000000D+00  0.681252D+00  0.000000D+00  0.000000D+00  0.533306D+00
     10   0.000000D+00  0.000000D+00  0.000000D+00  0.000000D+00  0.000000D+00
     11  -0.309212D-01  0.000000D+00  0.140205D+00  0.417608D-01  0.000000D+00
     12  -0.309203D-01  0.000000D+00 -0.140212D+00  0.417624D-01  0.000000D+00
     13   0.106988D+01  0.000000D+00  0.282417D-05 -0.682097D+00  0.000000D+00
     14   0.000000D+00 -0.140204D+00  0.000000D+00  0.000000D+00  0.432989D-02
     15   0.000000D+00  0.609838D+00  0.000000D+00  0.000000D+00  0.797821D+00
     16   0.126941D-04  0.000000D+00 -0.609848D+00  0.124783D-04  0.000000D+00
               571           572           573           574           575 
      1  -0.128753D+03 -0.128733D+03 -0.128733D+03 -0.128705D+03 -0.128697D+03
      2   0.000000D+00  0.108881D-01  0.000000D+00  0.000000D+00  0.238328D-01
      3  -0.351512D-01  0.000000D+00 -0.108898D-01  0.000000D+00  0.000000D+00
      4   0.000000D+00  0.000000D+00  0.000000D+00 -0.144894D+00  0.000000D+00
      5   0.000000D+00 -0.511217D-01  0.000000D+00  0.000000D+00 -0.711445D-01
      6   0.110740D+00  0.000000D+00  0.511274D-01  0.101787D-05  0.000000D+00
      7  -0.209403D-05  0.000000D+00 -0.152304D-05  0.486362D+00  0.000000D+00
      8  -0.533305D+00  0.000000D+00  0.118254D+00 -0.426144D-05  0.000000D+00
      9   0.000000D+00  0.118238D+00  0.000000D+00  0.000000D+00 -0.227573D+00
     10   0.000000D+00  0.000000D+00  0.000000D+00  0.000000D+00  0.000000D+00
     11   0.433114D-02  0.000000D+00  0.440680D-01 -0.132445D+00  0.000000D+00
     12  -0.432919D-02  0.000000D+00 -0.440734D-01 -0.132443D+00  0.000000D+00
     13   0.622851D-05  0.000000D+00 -0.796992D-05  0.267564D+01  0.000000D+00
     14   0.000000D+00 -0.440671D-01  0.000000D+00  0.000000D+00  0.586171D-01
     15   0.000000D+00  0.427483D-01  0.000000D+00  0.000000D+00 -0.299249D+00
     16   0.797820D+00  0.000000D+00 -0.427631D-01  0.589761D-05  0.000000D+00
               576           577           578           579           580 
      1  -0.128697D+03 -0.128665D+03 -0.128608D+03 -0.128608D+03 -0.128506D+03
      2   0.000000D+00  0.000000D+00  0.508581D-02  0.000000D+00  0.000000D+00
      3   0.238317D-01  0.000000D+00  0.000000D+00  0.508528D-02  0.112722D-01
      4  -0.218825D-05  0.672753D-01  0.000000D+00  0.000000D+00  0.112553D-05
      5   0.000000D+00  0.000000D+00 -0.152037D-01  0.000000D+00  0.000000D+00
      6  -0.711403D-01  0.000000D+00  0.000000D+00 -0.152018D-01 -0.313292D-01
      7   0.720294D-05 -0.270922D+00  0.000000D+00  0.000000D+00 -0.395220D-05
      8   0.227581D+00 -0.119843D-05  0.000000D+00  0.203701D+00 -0.107438D+00
      9   0.000000D+00  0.000000D+00 -0.203698D+00  0.000000D+00  0.000000D+00
     10   0.000000D+00  0.000000D+00  0.000000D+00  0.000000D+00  0.000000D+00
     11   0.586155D-01  0.423480D-01  0.000000D+00  0.974215D-02 -0.569351D-01
     12  -0.586237D-01  0.423485D-01  0.000000D+00 -0.974319D-02  0.569245D-01
     13   0.315622D-04 -0.261546D+01  0.000000D+00  0.174951D-05  0.178866D-04
     14   0.000000D+00  0.000000D+00  0.974206D-02  0.000000D+00  0.000000D+00
     15   0.000000D+00  0.000000D+00 -0.278355D+00  0.000000D+00  0.000000D+00
     16  -0.299254D+00  0.144775D-05  0.000000D+00 -0.278357D+00  0.157734D+00
               581           582           583           584 
      1  -0.128506D+03 -0.128481D+03 -0.128198D+03 -0.128143D+03
      2   0.112715D-01  0.000000D+00  0.000000D+00  0.000000D+00
      3   0.000000D+00  0.000000D+00  0.000000D+00  0.000000D+00
      4   0.000000D+00 -0.594284D-01  0.517250D-01 -0.462931D-01
      5  -0.313266D-01  0.000000D+00  0.000000D+00  0.000000D+00
      6   0.000000D+00  0.000000D+00  0.000000D+00  0.000000D+00
      7   0.000000D+00  0.199911D+00 -0.176370D+00  0.204456D+00
      8   0.000000D+00  0.000000D+00 -0.122120D-05  0.000000D+00
      9   0.107432D+00  0.000000D+00  0.000000D+00  0.000000D+00
     10   0.000000D+00  0.000000D+00  0.000000D+00  0.000000D+00
     11   0.000000D+00  0.151330D+00  0.922813D-02  0.160557D-01
     12   0.000000D+00  0.151329D+00  0.922858D-02  0.160547D-01
     13   0.000000D+00 -0.751980D+00  0.586308D-01  0.989794D+00
     14  -0.569283D-01  0.000000D+00  0.000000D+00  0.000000D+00
     15   0.157729D+00  0.000000D+00  0.000000D+00  0.000000D+00
     16   0.000000D+00  0.184797D-05  0.176167D-05  0.000000D+00
 Unable to Open any file for archive entry.
 1\1\GINC-HEL10\SP\RM11 TD-FC\Gen\C2H3N1\SABYASACHI\21-Mar-2022\0\\#P T
 D(Nstates=10000) m11/Gen SCF(maxcycles=100) Int(Grid=ultrafine)\\xGDB7
 _00001_tier4.com\\0,1\C,0,0.,0.,-1.173653\C,0,0.,0.,0.280989\N,0,0.,0.
 ,1.427442\H,0,0.,1.024088,-1.545371\H,0,-0.886886,-0.512044,-1.545371\
 H,0,0.886886,-0.512044,-1.545371\\Version=EM64L-G16RevC.01\State=1-A1\
 HF=-132.573753\RMSD=2.018e-09\PG=C03V [C3(C1C1N1),3SGV(H1)]\\@
 The archive entry for this job was punched.


 "MATHEMATICS IS THE ART OF GIVING THE SAME NAME
 TO DIFFERENT THINGS."
                    - H. POINCARE
 Job cpu time:       0 days  0 hours  6 minutes 11.8 seconds.
 Elapsed time:       0 days  0 hours  0 minutes 46.7 seconds.
 File lengths (MBytes):  RWF=    441 Int=      0 D2E=      0 Chk=    101 Scr=      1
 Normal termination of Gaussian 16 at Mon Mar 21 20:17:04 2022.
