 Entering Gaussian System, Link 0=g16
 Input=000026.com
 Output=000026.log
 Initial command:
 /home/sabyasachi/g16/l1.exe "/scratch/sabyasachi/PBS_7976160.helios/Gau-44187.inp" -scrdir="/scratch/sabyasachi/PBS_7976160.helios/"
 Entering Link 1 = /home/sabyasachi/g16/l1.exe PID=     44188.
  
 Copyright (c) 1988-2019, Gaussian, Inc.  All Rights Reserved.
  
 This is part of the Gaussian(R) 16 program.  It is based on
 the Gaussian(R) 09 system (copyright 2009, Gaussian, Inc.),
 the Gaussian(R) 03 system (copyright 2003, Gaussian, Inc.),
 the Gaussian(R) 98 system (copyright 1998, Gaussian, Inc.),
 the Gaussian(R) 94 system (copyright 1995, Gaussian, Inc.),
 the Gaussian 92(TM) system (copyright 1992, Gaussian, Inc.),
 the Gaussian 90(TM) system (copyright 1990, Gaussian, Inc.),
 the Gaussian 88(TM) system (copyright 1988, Gaussian, Inc.),
 the Gaussian 86(TM) system (copyright 1986, Carnegie Mellon
 University), and the Gaussian 82(TM) system (copyright 1983,
 Carnegie Mellon University). Gaussian is a federally registered
 trademark of Gaussian, Inc.
  
 This software contains proprietary and confidential information,
 including trade secrets, belonging to Gaussian, Inc.
  
 This software is provided under written license and may be
 used, copied, transmitted, or stored only in accord with that
 written license.
  
 The following legend is applicable only to US Government
 contracts under FAR:
  
                    RESTRICTED RIGHTS LEGEND
  
 Use, reproduction and disclosure by the US Government is
 subject to restrictions as set forth in subparagraphs (a)
 and (c) of the Commercial Computer Software - Restricted
 Rights clause in FAR 52.227-19.
  
 Gaussian, Inc.
 340 Quinnipiac St., Bldg. 40, Wallingford CT 06492
  
  
 ---------------------------------------------------------------
 Warning -- This program may not be used in any manner that
 competes with the business of Gaussian, Inc. or will provide
 assistance to any competitor of Gaussian, Inc.  The licensee
 of this program is prohibited from giving any competitor of
 Gaussian, Inc. access to this program.  By using this program,
 the user acknowledges that Gaussian, Inc. is engaged in the
 business of creating and licensing software in the field of
 computational chemistry and represents and warrants to the
 licensee that it is not a competitor of Gaussian, Inc. and that
 it will not use this program in any manner prohibited above.
 ---------------------------------------------------------------
  

 Cite this work as:
 Gaussian 16, Revision C.01,
 M. J. Frisch, G. W. Trucks, H. B. Schlegel, G. E. Scuseria, 
 M. A. Robb, J. R. Cheeseman, G. Scalmani, V. Barone, 
 G. A. Petersson, H. Nakatsuji, X. Li, M. Caricato, A. V. Marenich, 
 J. Bloino, B. G. Janesko, R. Gomperts, B. Mennucci, H. P. Hratchian, 
 J. V. Ortiz, A. F. Izmaylov, J. L. Sonnenberg, D. Williams-Young, 
 F. Ding, F. Lipparini, F. Egidi, J. Goings, B. Peng, A. Petrone, 
 T. Henderson, D. Ranasinghe, V. G. Zakrzewski, J. Gao, N. Rega, 
 G. Zheng, W. Liang, M. Hada, M. Ehara, K. Toyota, R. Fukuda, 
 J. Hasegawa, M. Ishida, T. Nakajima, Y. Honda, O. Kitao, H. Nakai, 
 T. Vreven, K. Throssell, J. A. Montgomery, Jr., J. E. Peralta, 
 F. Ogliaro, M. J. Bearpark, J. J. Heyd, E. N. Brothers, K. N. Kudin, 
 V. N. Staroverov, T. A. Keith, R. Kobayashi, J. Normand, 
 K. Raghavachari, A. P. Rendell, J. C. Burant, S. S. Iyengar, 
 J. Tomasi, M. Cossi, J. M. Millam, M. Klene, C. Adamo, R. Cammi, 
 J. W. Ochterski, R. L. Martin, K. Morokuma, O. Farkas, 
 J. B. Foresman, and D. J. Fox, Gaussian, Inc., Wallingford CT, 2019.
 
 ******************************************
 Gaussian 16:  EM64L-G16RevC.01  3-Jul-2019
                21-Mar-2022 
 ******************************************
 %mem=64gb
 %nproc=8
 Will use up to    8 processors via shared memory.
 -------------------------------------------------------------------
 #P TD(Nstates=10000) m11/Gen SCF(maxcycles=100) Int(Grid=ultrafine)
 -------------------------------------------------------------------
 1/38=1,172=1/1;
 2/12=2,17=6,18=5,40=1/2;
 3/5=7,11=9,25=1,30=1,74=-64,75=-5/1,2,3,8;
 4//1;
 5/5=2,7=100,38=5/2;
 8/6=1,10=1,108=10000/1;
 9/41=10000,42=1,70=2/14;
 6/7=2,8=2,9=2,10=2/1;
 99/5=1,9=1/99;
 Leave Link    1 at Mon Mar 21 20:05:00 2022, MaxMem=  8589934592 cpu:               0.4 elap:               0.1
 (Enter /home/sabyasachi/g16/l101.exe)
 ---------------------
 xGDB7_00001_tier4.com
 ---------------------
 Symbolic Z-matrix:
 Charge =  0 Multiplicity = 1
 8                    -1.0238   -0.43879   0. 
 6                     0.        0.41895   0. 
 8                     1.15299   0.10998   0. 
 1                    -0.65694  -1.33301   0. 
 1                    -0.3765    1.44977   0. 
 
 ITRead=  0  0  0  0  0
 MicOpt= -1 -1 -1 -1 -1
 NAtoms=      5 NQM=        5 NQMF=       0 NMMI=      0 NMMIF=      0
                NMic=       0 NMicF=      0.
                    Isotopes and Nuclear Properties:
 (Nuclear quadrupole moments (NQMom) in fm**2, nuclear magnetic moments (NMagM)
  in nuclear magnetons)

  Atom         1           2           3           4           5
 IAtWgt=          16          12          16           1           1
 AtmWgt=  15.9949146  12.0000000  15.9949146   1.0078250   1.0078250
 NucSpn=           0           0           0           1           1
 AtZEff=  -0.0000000  -0.0000000  -0.0000000  -0.0000000  -0.0000000
 NQMom=    0.0000000   0.0000000   0.0000000   0.0000000   0.0000000
 NMagM=    0.0000000   0.0000000   0.0000000   2.7928460   2.7928460
 AtZNuc=   8.0000000   6.0000000   8.0000000   1.0000000   1.0000000
 Leave Link  101 at Mon Mar 21 20:05:00 2022, MaxMem=  8589934592 cpu:               0.6 elap:               0.1
 (Enter /home/sabyasachi/g16/l202.exe)
                          Input orientation:                          
 ---------------------------------------------------------------------
 Center     Atomic      Atomic             Coordinates (Angstroms)
 Number     Number       Type             X           Y           Z
 ---------------------------------------------------------------------
      1          8           0       -1.023804   -0.438792    0.000000
      2          6           0        0.000000    0.418952    0.000000
      3          8           0        1.152985    0.109983    0.000000
      4          1           0       -0.656942   -1.333012    0.000000
      5          1           0       -0.376499    1.449770    0.000000
 ---------------------------------------------------------------------
                    Distance matrix (angstroms):
                    1          2          3          4          5
     1  O    0.000000
     2  C    1.335627   0.000000
     3  O    2.244897   1.193665   0.000000
     4  H    0.966549   1.871083   2.314751   0.000000
     5  H    1.996414   1.097423   2.033310   2.796878   0.000000
 Stoichiometry    CH2O2
 Framework group  CS[SG(CH2O2)]
 Deg. of freedom     7
 Full point group                 CS      NOp   2
 Largest Abelian subgroup         CS      NOp   2
 Largest concise Abelian subgroup C1      NOp   1
                         Standard orientation:                         
 ---------------------------------------------------------------------
 Center     Atomic      Atomic             Coordinates (Angstroms)
 Number     Number       Type             X           Y           Z
 ---------------------------------------------------------------------
      1          8           0       -1.023805   -0.438791    0.000000
      2          6           0       -0.000000    0.418952    0.000000
      3          8           0        1.152985    0.109982   -0.000000
      4          1           0       -0.656943   -1.333011    0.000000
      5          1           0       -0.376498    1.449770    0.000000
 ---------------------------------------------------------------------
 Rotational constants (GHZ):          78.3457848          12.2009615          10.5569106
 Leave Link  202 at Mon Mar 21 20:05:00 2022, MaxMem=  8589934592 cpu:               0.1 elap:               0.0
 (Enter /home/sabyasachi/g16/l301.exe)
 General basis read from cards:  (5D, 7F)
 Centers:       4      5
 S 3 1.00
     Exponent=  1.3010701000D+01 Coefficients=  1.9682158000D-02
     Exponent=  1.9622572000D+00 Coefficients=  1.3796524000D-01
     Exponent=  4.4453796000D-01 Coefficients=  4.7831935000D-01
 S 1 1.00
     Exponent=  1.2194962000D-01 Coefficients=  1.0000000000D+00
 P 1 1.00
     Exponent=  8.0000000000D-01 Coefficients=  1.0000000000D+00
 P 1 1.00
     Exponent=  1.1704099050D-01 Coefficients=  1.0000000000D+00
 ****
 Centers:       2
 S 5 1.00
     Exponent=  1.2384016938D+03 Coefficients=  5.4568832082D-03
     Exponent=  1.8629004992D+02 Coefficients=  4.0638409211D-02
     Exponent=  4.2251176346D+01 Coefficients=  1.8025593888D-01
     Exponent=  1.1676557932D+01 Coefficients=  4.6315121755D-01
     Exponent=  3.5930506482D+00 Coefficients=  4.4087173314D-01
 S 1 1.00
     Exponent=  4.0245147363D-01 Coefficients=  1.0000000000D+00
 S 1 1.00
     Exponent=  1.3090182668D-01 Coefficients=  1.0000000000D+00
 S 1 1.00
     Exponent=  6.7053540256D-02 Coefficients=  1.0000000000D+00
 P 3 1.00
     Exponent=  9.4680970621D+00 Coefficients=  3.8387871728D-02
     Exponent=  2.0103545142D+00 Coefficients=  2.1117025112D-01
     Exponent=  5.4771004707D-01 Coefficients=  5.1328172114D-01
 P 1 1.00
     Exponent=  1.5268613795D-01 Coefficients=  1.0000000000D+00
 D 1 1.00
     Exponent=  8.0000000000D-01 Coefficients=  1.0000000000D+00
 D 1 1.00
     Exponent=  1.1713185140D-01 Coefficients=  1.0000000000D+00
 ****
 Centers:       1      3
 S 5 1.00
     Exponent=  2.2661767785D+03 Coefficients= -5.3431809926D-03
     Exponent=  3.4087010191D+02 Coefficients= -3.9890039230D-02
     Exponent=  7.7363135167D+01 Coefficients= -1.7853911985D-01
     Exponent=  2.1479644940D+01 Coefficients= -4.6427684959D-01
     Exponent=  6.6589433124D+00 Coefficients= -4.4309745172D-01
 S 1 1.00
     Exponent=  8.0975975668D-01 Coefficients=  1.0000000000D+00
 S 1 1.00
     Exponent=  2.5530772234D-01 Coefficients=  1.0000000000D+00
 S 1 1.00
     Exponent=  7.6572453250D-02 Coefficients=  1.0000000000D+00
 P 3 1.00
     Exponent=  1.7721504317D+01 Coefficients=  4.3394573193D-02
     Exponent=  3.8635505440D+00 Coefficients=  2.3094120765D-01
     Exponent=  1.0480920883D+00 Coefficients=  5.1375311064D-01
 P 1 1.00
     Exponent=  2.7641544411D-01 Coefficients=  1.0000000000D+00
 P 1 1.00
     Exponent=  6.9002276350D-02 Coefficients=  1.0000000000D+00
 D 1 1.00
     Exponent=  1.2000000000D+00 Coefficients=  1.0000000000D+00
 D 1 1.00
     Exponent=  1.7992024323D-01 Coefficients=  1.0000000000D+00
 ****
 Ernie: Thresh=  0.10000D-02 Tol=  0.10000D-05 Strict=F.
 There are    64 symmetry adapted cartesian basis functions of A'  symmetry.
 There are    24 symmetry adapted cartesian basis functions of A"  symmetry.
 There are    58 symmetry adapted basis functions of A'  symmetry.
 There are    24 symmetry adapted basis functions of A"  symmetry.
    82 basis functions,   122 primitive gaussians,    88 cartesian basis functions
    12 alpha electrons       12 beta electrons
       nuclear repulsion energy        70.5741297168 Hartrees.
 IExCor= 5042 DFT=T Ex+Corr=M11 ExCW=0 ScaHFX=  1.000000
 ScaDFX=  1.000000  1.000000  1.000000  1.000000 ScalE2=  1.000000  1.000000
 IRadAn=      5 IRanWt=     -1 IRanGd=            0 ICorTp=0 IEmpDi=  4
 HFx  wShort=  0.000000 wLong=  0.250000 cFull=  0.428000 cShort=  0.000000 cLong=  0.572000
 DFx  wShort=  0.000000 wLong=  0.250000 cFull=  0.000000 cShort=  0.000000 cLong=  1.000000
 NAtoms=    5 NActive=    5 NUniq=    5 SFac= 1.00D+00 NAtFMM=   60 NAOKFM=F Big=F
 Integral buffers will be    131072 words long.
 Raffenetti 1 integral format.
 Two-electron integral symmetry is turned on.
 Leave Link  301 at Mon Mar 21 20:05:00 2022, MaxMem=  8589934592 cpu:               0.6 elap:               0.1
 (Enter /home/sabyasachi/g16/l302.exe)
 NPDir=0 NMtPBC=     1 NCelOv=     1 NCel=       1 NClECP=     1 NCelD=      1
         NCelK=      1 NCelE2=     1 NClLst=     1 CellRange=     0.0.
 One-electron integrals computed using PRISM.
 One-electron integral symmetry used in STVInt
 NBasis=    82 RedAO= T EigKep=  3.68D-04  NBF=    58    24
 NBsUse=    82 1.00D-06 EigRej= -1.00D+00 NBFU=    58    24
 Precomputing XC quadrature grid using
 IXCGrd= 4 IRadAn=           5 IRanWt=          -1 IRanGd=           0 AccXCQ= 0.00D+00.
 Generated NRdTot=       0 NPtTot=           0 NUsed=           0 NTot=          32
 NSgBfM=    88    88    88    88    88 MxSgAt=     5 MxSgA2=     5.
 Leave Link  302 at Mon Mar 21 20:05:01 2022, MaxMem=  8589934592 cpu:               0.9 elap:               0.1
 (Enter /home/sabyasachi/g16/l303.exe)
 DipDrv:  MaxL=1.
 Leave Link  303 at Mon Mar 21 20:05:01 2022, MaxMem=  8589934592 cpu:               0.2 elap:               0.0
 (Enter /home/sabyasachi/g16/l308.exe)
 Leave Link  308 at Mon Mar 21 20:05:01 2022, MaxMem=  8589934592 cpu:               0.2 elap:               0.0
 (Enter /home/sabyasachi/g16/l401.exe)
 ExpMin= 6.71D-02 ExpMax= 2.27D+03 ExpMxC= 3.41D+02 IAcc=3 IRadAn=         5 AccDes= 0.00D+00
 Harris functional with IExCor= 1009 and IRadAn=       5 diagonalized for initial guess.
 HarFok:  IExCor= 1009 AccDes= 0.00D+00 IRadAn=         5 IDoV= 1 UseB2=F ITyADJ=14
 ICtDFT=  3500011 ScaDFX=  1.000000  1.000000  1.000000  1.000000
 FoFCou: FMM=F IPFlag=           0 FMFlag=      100000 FMFlg1=           0
         NFxFlg=           0 DoJE=T BraDBF=F KetDBF=T FulRan=T
         wScrn=  0.000000 ICntrl=       500 IOpCl=  0 I1Cent=   200000004 NGrid=           0
         NMat0=    1 NMatS0=      1 NMatT0=    0 NMatD0=    1 NMtDS0=    0 NMtDT0=    0
 Petite list used in FoFCou.
 Harris En= -185.964421800661    
 JPrj=0 DoOrth=F DoCkMO=F.
 Initial guess orbital symmetries:
       Occupied  (A') (A') (A') (A') (A') (A') (A') (A') (A") (A')
                 (A") (A')
       Virtual   (A") (A') (A') (A') (A") (A') (A') (A") (A') (A')
                 (A") (A') (A') (A') (A") (A') (A') (A') (A') (A")
                 (A') (A") (A') (A') (A') (A") (A') (A') (A') (A")
                 (A') (A") (A') (A") (A') (A") (A') (A') (A') (A')
                 (A') (A") (A") (A') (A') (A') (A") (A') (A') (A')
                 (A") (A') (A") (A') (A') (A') (A") (A') (A') (A')
                 (A") (A') (A") (A") (A') (A") (A') (A') (A') (A')
 The electronic state of the initial guess is 1-A'.
 Leave Link  401 at Mon Mar 21 20:05:01 2022, MaxMem=  8589934592 cpu:               1.7 elap:               0.2
 (Enter /home/sabyasachi/g16/l502.exe)
 Keep R1 ints in memory in symmetry-blocked form, NReq=19197238.
 FoFCou: FMM=F IPFlag=           0 FMFlag=           0 FMFlg1=           0
         NFxFlg=           0 DoJE=F BraDBF=F KetDBF=F FulRan=T
         wScrn=  0.000000 ICntrl=       600 IOpCl=  0 I1Cent=           0 NGrid=           0
         NMat0=    1 NMatS0=   3403 NMatT0=    0 NMatD0=    1 NMtDS0=    0 NMtDT0=    0
 Petite list used in FoFCou.
 Closed shell SCF:
 Using DIIS extrapolation, IDIIS=  1040.
 NGot=  8589934592 LenX=  8586916656 LenY=  8586908471
 Requested convergence on RMS density matrix=1.00D-08 within 100 cycles.
 Requested convergence on MAX density matrix=1.00D-06.
 Requested convergence on             energy=1.00D-06.
 No special actions if energy rises.
 Integral accuracy reduced to 1.0D-05 until final iterations.

 Cycle   1  Pass 0  IDiag  1:
 E= -189.512001715998    
 DIIS: error= 2.67D-02 at cycle   1 NSaved=   1.
 NSaved= 1 IEnMin= 1 EnMin= -189.512001715998     IErMin= 1 ErrMin= 2.67D-02
 ErrMax= 2.67D-02  0.00D+00 EMaxC= 1.00D-01 BMatC= 5.75D-02 BMatP= 5.75D-02
 IDIUse=3 WtCom= 7.33D-01 WtEn= 2.67D-01
 Coeff-Com:  0.100D+01
 Coeff-En:   0.100D+01
 Coeff:      0.100D+01
 Gap=     0.383 Goal=   None    Shift=    0.000
 GapD=    0.383 DampG=1.000 DampE=0.500 DampFc=0.5000 IDamp=-1.
 Damping current iteration by 5.00D-01
 RMSDP=4.71D-03 MaxDP=1.02D-01              OVMax= 1.24D-01

 Cycle   2  Pass 0  IDiag  1:
 E= -189.530624173576     Delta-E=       -0.018622457578 Rises=F Damp=T
 DIIS: error= 4.30D-03 at cycle   2 NSaved=   2.
 NSaved= 2 IEnMin= 2 EnMin= -189.530624173576     IErMin= 2 ErrMin= 4.30D-03
 ErrMax= 4.30D-03  0.00D+00 EMaxC= 1.00D-01 BMatC= 3.57D-03 BMatP= 5.75D-02
 IDIUse=3 WtCom= 9.57D-01 WtEn= 4.30D-02
 Coeff-Com:  0.654D-01 0.935D+00
 Coeff-En:   0.871D-01 0.913D+00
 Coeff:      0.663D-01 0.934D+00
 Gap=     0.459 Goal=   None    Shift=    0.000
 RMSDP=2.69D-03 MaxDP=4.40D-02 DE=-1.86D-02 OVMax= 5.73D-02

 Cycle   3  Pass 0  IDiag  1:
 E= -189.553754345219     Delta-E=       -0.023130171643 Rises=F Damp=F
 DIIS: error= 2.98D-03 at cycle   3 NSaved=   3.
 NSaved= 3 IEnMin= 3 EnMin= -189.553754345219     IErMin= 3 ErrMin= 2.98D-03
 ErrMax= 2.98D-03  0.00D+00 EMaxC= 1.00D-01 BMatC= 1.01D-03 BMatP= 3.57D-03
 IDIUse=3 WtCom= 9.70D-01 WtEn= 2.98D-02
 Coeff-Com: -0.182D-01 0.299D+00 0.719D+00
 Coeff-En:   0.000D+00 0.000D+00 0.100D+01
 Coeff:     -0.176D-01 0.291D+00 0.727D+00
 Gap=     0.457 Goal=   None    Shift=    0.000
 RMSDP=5.26D-04 MaxDP=8.70D-03 DE=-2.31D-02 OVMax= 1.55D-02

 Cycle   4  Pass 0  IDiag  1:
 E= -189.554353890628     Delta-E=       -0.000599545408 Rises=F Damp=F
 DIIS: error= 1.43D-03 at cycle   4 NSaved=   4.
 NSaved= 4 IEnMin= 4 EnMin= -189.554353890628     IErMin= 4 ErrMin= 1.43D-03
 ErrMax= 1.43D-03  0.00D+00 EMaxC= 1.00D-01 BMatC= 3.22D-04 BMatP= 1.01D-03
 IDIUse=3 WtCom= 9.86D-01 WtEn= 1.43D-02
 Coeff-Com: -0.151D-01 0.104D-01 0.371D+00 0.634D+00
 Coeff-En:   0.000D+00 0.000D+00 0.159D+00 0.841D+00
 Coeff:     -0.149D-01 0.102D-01 0.368D+00 0.637D+00
 Gap=     0.459 Goal=   None    Shift=    0.000
 RMSDP=1.95D-04 MaxDP=3.95D-03 DE=-6.00D-04 OVMax= 3.78D-03

 Cycle   5  Pass 0  IDiag  1:
 E= -189.554580422981     Delta-E=       -0.000226532353 Rises=F Damp=F
 DIIS: error= 2.18D-04 at cycle   5 NSaved=   5.
 NSaved= 5 IEnMin= 5 EnMin= -189.554580422981     IErMin= 5 ErrMin= 2.18D-04
 ErrMax= 2.18D-04  0.00D+00 EMaxC= 1.00D-01 BMatC= 6.95D-06 BMatP= 3.22D-04
 IDIUse=3 WtCom= 9.98D-01 WtEn= 2.18D-03
 Coeff-Com: -0.115D-02-0.169D-01 0.506D-01 0.150D+00 0.818D+00
 Coeff-En:   0.000D+00 0.000D+00 0.000D+00 0.000D+00 0.100D+01
 Coeff:     -0.115D-02-0.168D-01 0.505D-01 0.150D+00 0.818D+00
 Gap=     0.458 Goal=   None    Shift=    0.000
 RMSDP=5.45D-05 MaxDP=8.53D-04 DE=-2.27D-04 OVMax= 1.65D-03

 Cycle   6  Pass 0  IDiag  1:
 E= -189.554590908601     Delta-E=       -0.000010485619 Rises=F Damp=F
 DIIS: error= 7.95D-05 at cycle   6 NSaved=   6.
 NSaved= 6 IEnMin= 6 EnMin= -189.554590908601     IErMin= 6 ErrMin= 7.95D-05
 ErrMax= 7.95D-05  0.00D+00 EMaxC= 1.00D-01 BMatC= 8.83D-07 BMatP= 6.95D-06
 IDIUse=1 WtCom= 1.00D+00 WtEn= 0.00D+00
 Coeff-Com:  0.169D-02-0.386D-02-0.327D-01-0.718D-01 0.520D-01 0.105D+01
 Coeff:      0.169D-02-0.386D-02-0.327D-01-0.718D-01 0.520D-01 0.105D+01
 Gap=     0.458 Goal=   None    Shift=    0.000
 RMSDP=3.17D-05 MaxDP=5.66D-04 DE=-1.05D-05 OVMax= 8.62D-04

 Cycle   7  Pass 0  IDiag  1:
 E= -189.554592954976     Delta-E=       -0.000002046375 Rises=F Damp=F
 DIIS: error= 2.49D-05 at cycle   7 NSaved=   7.
 NSaved= 7 IEnMin= 7 EnMin= -189.554592954976     IErMin= 7 ErrMin= 2.49D-05
 ErrMax= 2.49D-05  0.00D+00 EMaxC= 1.00D-01 BMatC= 7.03D-08 BMatP= 8.83D-07
 IDIUse=1 WtCom= 1.00D+00 WtEn= 0.00D+00
 Coeff-Com:  0.434D-03 0.993D-03-0.472D-02-0.213D-01-0.682D-01 0.613D-01
 Coeff-Com:  0.103D+01
 Coeff:      0.434D-03 0.993D-03-0.472D-02-0.213D-01-0.682D-01 0.613D-01
 Coeff:      0.103D+01
 Gap=     0.458 Goal=   None    Shift=    0.000
 RMSDP=8.44D-06 MaxDP=1.09D-04 DE=-2.05D-06 OVMax= 3.00D-04

 Initial convergence to 1.0D-05 achieved.  Increase integral accuracy.
 Cycle   8  Pass 1  IDiag  1:
 E= -189.554599047774     Delta-E=       -0.000006092798 Rises=F Damp=F
 DIIS: error= 1.38D-05 at cycle   1 NSaved=   1.
 NSaved= 1 IEnMin= 1 EnMin= -189.554599047774     IErMin= 1 ErrMin= 1.38D-05
 ErrMax= 1.38D-05  0.00D+00 EMaxC= 1.00D-01 BMatC= 2.76D-08 BMatP= 2.76D-08
 IDIUse=1 WtCom= 1.00D+00 WtEn= 0.00D+00
 Coeff-Com:  0.100D+01
 Coeff:      0.100D+01
 Gap=     0.458 Goal=   None    Shift=    0.000
 RMSDP=8.44D-06 MaxDP=1.09D-04 DE=-6.09D-06 OVMax= 5.79D-05

 Cycle   9  Pass 1  IDiag  1:
 E= -189.554599077856     Delta-E=       -0.000000030082 Rises=F Damp=F
 DIIS: error= 5.91D-06 at cycle   2 NSaved=   2.
 NSaved= 2 IEnMin= 2 EnMin= -189.554599077856     IErMin= 2 ErrMin= 5.91D-06
 ErrMax= 5.91D-06  0.00D+00 EMaxC= 1.00D-01 BMatC= 4.02D-09 BMatP= 2.76D-08
 IDIUse=1 WtCom= 1.00D+00 WtEn= 0.00D+00
 Coeff-Com:  0.104D+00 0.896D+00
 Coeff:      0.104D+00 0.896D+00
 Gap=     0.458 Goal=   None    Shift=    0.000
 RMSDP=1.51D-06 MaxDP=3.43D-05 DE=-3.01D-08 OVMax= 5.58D-05

 Cycle  10  Pass 1  IDiag  1:
 E= -189.554599079829     Delta-E=       -0.000000001973 Rises=F Damp=F
 DIIS: error= 5.29D-06 at cycle   3 NSaved=   3.
 NSaved= 3 IEnMin= 3 EnMin= -189.554599079829     IErMin= 3 ErrMin= 5.29D-06
 ErrMax= 5.29D-06  0.00D+00 EMaxC= 1.00D-01 BMatC= 4.92D-09 BMatP= 4.02D-09
 IDIUse=1 WtCom= 1.00D+00 WtEn= 0.00D+00
 Coeff-Com: -0.976D-01 0.557D+00 0.541D+00
 Coeff:     -0.976D-01 0.557D+00 0.541D+00
 Gap=     0.458 Goal=   None    Shift=    0.000
 RMSDP=7.74D-07 MaxDP=1.44D-05 DE=-1.97D-09 OVMax= 1.84D-05

 Cycle  11  Pass 1  IDiag  1:
 E= -189.554599083449     Delta-E=       -0.000000003620 Rises=F Damp=F
 DIIS: error= 9.78D-07 at cycle   4 NSaved=   4.
 NSaved= 4 IEnMin= 4 EnMin= -189.554599083449     IErMin= 4 ErrMin= 9.78D-07
 ErrMax= 9.78D-07  0.00D+00 EMaxC= 1.00D-01 BMatC= 6.04D-11 BMatP= 4.02D-09
 IDIUse=1 WtCom= 1.00D+00 WtEn= 0.00D+00
 Coeff-Com: -0.826D-02-0.643D-01-0.677D-01 0.114D+01
 Coeff:     -0.826D-02-0.643D-01-0.677D-01 0.114D+01
 Gap=     0.458 Goal=   None    Shift=    0.000
 RMSDP=2.77D-07 MaxDP=3.73D-06 DE=-3.62D-09 OVMax= 1.02D-05

 Cycle  12  Pass 1  IDiag  1:
 E= -189.554599083647     Delta-E=       -0.000000000198 Rises=F Damp=F
 DIIS: error= 3.31D-07 at cycle   5 NSaved=   5.
 NSaved= 5 IEnMin= 5 EnMin= -189.554599083647     IErMin= 5 ErrMin= 3.31D-07
 ErrMax= 3.31D-07  0.00D+00 EMaxC= 1.00D-01 BMatC= 2.17D-11 BMatP= 6.04D-11
 IDIUse=1 WtCom= 1.00D+00 WtEn= 0.00D+00
 Coeff-Com:  0.125D-01-0.105D+00-0.123D+00 0.400D+00 0.815D+00
 Coeff:      0.125D-01-0.105D+00-0.123D+00 0.400D+00 0.815D+00
 Gap=     0.458 Goal=   None    Shift=    0.000
 RMSDP=1.04D-07 MaxDP=1.73D-06 DE=-1.98D-10 OVMax= 3.12D-06

 Cycle  13  Pass 1  IDiag  1:
 E= -189.554599083676     Delta-E=       -0.000000000029 Rises=F Damp=F
 DIIS: error= 1.07D-07 at cycle   6 NSaved=   6.
 NSaved= 6 IEnMin= 6 EnMin= -189.554599083676     IErMin= 6 ErrMin= 1.07D-07
 ErrMax= 1.07D-07  0.00D+00 EMaxC= 1.00D-01 BMatC= 1.92D-12 BMatP= 2.17D-11
 IDIUse=1 WtCom= 1.00D+00 WtEn= 0.00D+00
 Coeff-Com:  0.503D-02-0.311D-01-0.404D-01 0.445D-01 0.296D+00 0.726D+00
 Coeff:      0.503D-02-0.311D-01-0.404D-01 0.445D-01 0.296D+00 0.726D+00
 Gap=     0.458 Goal=   None    Shift=    0.000
 RMSDP=2.45D-08 MaxDP=4.65D-07 DE=-2.88D-11 OVMax= 8.02D-07

 Cycle  14  Pass 1  IDiag  1:
 E= -189.554599083679     Delta-E=       -0.000000000003 Rises=F Damp=F
 DIIS: error= 3.50D-08 at cycle   7 NSaved=   7.
 NSaved= 7 IEnMin= 7 EnMin= -189.554599083679     IErMin= 7 ErrMin= 3.50D-08
 ErrMax= 3.50D-08  0.00D+00 EMaxC= 1.00D-01 BMatC= 1.45D-13 BMatP= 1.92D-12
 IDIUse=1 WtCom= 1.00D+00 WtEn= 0.00D+00
 Coeff-Com: -0.885D-03 0.953D-02 0.914D-02-0.492D-01-0.635D-01 0.147D+00
 Coeff-Com:  0.947D+00
 Coeff:     -0.885D-03 0.953D-02 0.914D-02-0.492D-01-0.635D-01 0.147D+00
 Coeff:      0.947D+00
 Gap=     0.458 Goal=   None    Shift=    0.000
 RMSDP=1.11D-08 MaxDP=1.58D-07 DE=-3.24D-12 OVMax= 2.73D-07

 Cycle  15  Pass 1  IDiag  1:
 E= -189.554599083680     Delta-E=       -0.000000000000 Rises=F Damp=F
 DIIS: error= 6.52D-09 at cycle   8 NSaved=   8.
 NSaved= 8 IEnMin= 8 EnMin= -189.554599083680     IErMin= 8 ErrMin= 6.52D-09
 ErrMax= 6.52D-09  0.00D+00 EMaxC= 1.00D-01 BMatC= 4.16D-15 BMatP= 1.45D-13
 IDIUse=1 WtCom= 1.00D+00 WtEn= 0.00D+00
 Coeff-Com: -0.393D-03 0.308D-02 0.330D-02-0.884D-02-0.259D-01-0.225D-01
 Coeff-Com:  0.125D+00 0.927D+00
 Coeff:     -0.393D-03 0.308D-02 0.330D-02-0.884D-02-0.259D-01-0.225D-01
 Coeff:      0.125D+00 0.927D+00
 Gap=     0.458 Goal=   None    Shift=    0.000
 RMSDP=1.94D-09 MaxDP=2.30D-08 DE=-3.98D-13 OVMax= 4.00D-08

 SCF Done:  E(RM11) =  -189.554599084     A.U. after   15 cycles
            NFock= 15  Conv=0.19D-08     -V/T= 2.0094
 KE= 1.877860525636D+02 PE=-5.863041533709D+02 EE= 1.383893720068D+02
 Leave Link  502 at Mon Mar 21 20:05:03 2022, MaxMem=  8589934592 cpu:              15.6 elap:               2.0
 (Enter /home/sabyasachi/g16/l801.exe)
 DoSCS=F DFT=T ScalE2(SS,OS)=  1.000000  1.000000
 ExpMin= 6.71D-02 ExpMax= 2.27D+03 ExpMxC= 3.41D+02 IAcc=3 IRadAn=         5 AccDes= 0.00D+00
 HarFok:  IExCor=  205 AccDes= 0.00D+00 IRadAn=         5 IDoV=-2 UseB2=F ITyADJ=14
 ICtDFT= 12500011 ScaDFX=  1.000000  1.000000  1.000000  1.000000
 Largest valence mixing into a core orbital is  7.42D-05
 Largest core mixing into a valence orbital is  1.28D-05
 Range of M.O.s used for correlation:     4    82
 NBasis=    82 NAE=    12 NBE=    12 NFC=     3 NFV=     0
 NROrb=     79 NOA=     9 NOB=     9 NVA=    70 NVB=    70

 **** Warning!!: The largest alpha MO coefficient is  0.15219994D+02

 Leave Link  801 at Mon Mar 21 20:05:03 2022, MaxMem=  8589934592 cpu:               0.4 elap:               0.1
 (Enter /home/sabyasachi/g16/l914.exe)
 RHF ground state
 Keep R1, R2, and R3 ints in memory in symmetry-blocked form, NReq=429755010.
 FoFCou: FMM=F IPFlag=           0 FMFlag=           0 FMFlg1=           0
         NFxFlg=           0 DoJE=F BraDBF=F KetDBF=F FulRan=T
         wScrn=  0.000000 ICntrl=       600 IOpCl=  0 I1Cent=           0 NGrid=           0
         NMat0=    1 NMatS0=   3403 NMatT0=    0 NMatD0=    1 NMtDS0=    0 NMtDT0=    0
 Petite list used in FoFCou.
 MDV=  8589934592 DFT=T DoStab=F Mixed=T DoRPA=T DoScal=F NonHer=T
 Making orbital integer symmetry assigments:
 Orbital symmetries:
       Occupied  (A') (A') (A') (A') (A') (A') (A') (A') (A") (A')
                 (A") (A')
       Virtual   (A') (A') (A") (A') (A") (A') (A') (A") (A') (A')
                 (A") (A') (A') (A") (A') (A') (A') (A') (A") (A')
                 (A') (A") (A') (A') (A') (A") (A') (A') (A') (A")
                 (A') (A") (A') (A") (A') (A") (A') (A') (A') (A')
                 (A') (A") (A") (A') (A') (A') (A") (A') (A') (A")
                 (A') (A') (A") (A') (A') (A") (A') (A') (A') (A')
                 (A") (A') (A") (A") (A') (A") (A') (A') (A') (A')
   630 initial guesses have been made.
 Convergence on wavefunction:    0.001000000000000
 Davidson Disk Diagonalization:  ConvIn= 1.00D-03 SkipCon=T Conv= 1.00D-03.
 Max sub-space:  3780 roots to seek:  1260 dimension of matrix:         1260
 *** WARNING: Number of orthogonal guesses is          630
 Iteration     1 Dimension   630 NMult     0 NNew    630
 CISAX will form   630 AO SS matrices at one time.
 NMat=   630 NSing=   630 JSym2X=-1.
 New state      1 was old state      3
 New state      2 was old state      1
 New state      3 was old state      2
 New state      5 was old state      8
 New state      6 was old state     20
 New state      8 was old state      6
 New state      9 was old state      5
 New state     10 was old state     11
 New state     11 was old state     14
 New state     13 was old state     18
 New state     14 was old state     10
 New state     15 was old state      9
 New state     16 was old state     13
 New state     17 was old state     15
 New state     18 was old state     17
 New state     19 was old state     16
 New state     20 was old state     37
 New state     21 was old state     24
 New state     22 was old state     30
 New state     23 was old state     21
 New state     24 was old state     51
 New state     25 was old state     19
 New state     26 was old state     22
 New state     27 was old state     25
 New state     28 was old state     27
 New state     29 was old state     23
 New state     30 was old state     31
 New state     31 was old state     33
 New state     32 was old state     26
 New state     33 was old state     32
 New state     34 was old state     28
 New state     35 was old state     29
 New state     36 was old state     41
 New state     37 was old state     43
 New state     38 was old state     35
 New state     39 was old state     40
 New state     40 was old state     34
 New state     41 was old state     42
 New state     42 was old state     39
 New state     43 was old state     36
 New state     44 was old state     38
 New state     45 was old state     44
 New state     46 was old state     53
 New state     47 was old state     49
 New state     48 was old state     50
 New state     49 was old state     54
 New state     50 was old state     48
 New state     51 was old state     46
 New state     52 was old state     47
 New state     53 was old state     45
 New state     54 was old state     66
 New state     55 was old state     60
 New state     56 was old state     58
 New state     57 was old state     61
 New state     58 was old state     52
 New state     59 was old state     63
 New state     60 was old state     62
 New state     61 was old state     56
 New state     62 was old state     57
 New state     63 was old state     55
 New state     64 was old state     70
 New state     65 was old state     67
 New state     66 was old state     64
 New state     67 was old state     59
 New state     68 was old state     69
 New state     69 was old state     77
 New state     70 was old state     71
 New state     71 was old state     73
 New state     72 was old state     75
 New state     73 was old state     68
 New state     74 was old state     83
 New state     75 was old state     78
 New state     76 was old state     92
 New state     77 was old state     65
 New state     78 was old state     80
 New state     79 was old state     74
 New state     80 was old state     76
 New state     81 was old state     72
 New state     82 was old state     87
 New state     83 was old state     84
 New state     84 was old state     79
 New state     85 was old state     93
 New state     86 was old state     82
 New state     87 was old state     90
 New state     88 was old state     81
 New state     89 was old state     95
 New state     90 was old state     88
 New state     91 was old state     85
 New state     92 was old state     89
 New state     93 was old state     91
 New state     94 was old state     86
 New state     95 was old state     99
 New state     96 was old state     94
 New state     97 was old state    105
 New state     98 was old state    103
 New state     99 was old state    106
 New state    100 was old state    112
 New state    101 was old state     98
 New state    102 was old state     97
 New state    103 was old state    102
 New state    104 was old state    101
 New state    105 was old state    100
 New state    106 was old state    104
 New state    107 was old state    116
 New state    108 was old state     96
 New state    109 was old state    114
 New state    110 was old state    117
 New state    111 was old state    113
 New state    112 was old state    111
 New state    113 was old state    110
 New state    114 was old state    107
 New state    115 was old state    124
 New state    116 was old state    126
 New state    117 was old state    109
 New state    119 was old state    121
 New state    120 was old state    122
 New state    121 was old state    120
 New state    122 was old state    123
 New state    123 was old state    119
 New state    124 was old state    129
 New state    125 was old state    135
 New state    126 was old state    132
 New state    127 was old state    133
 New state    128 was old state    108
 New state    129 was old state    115
 New state    130 was old state    140
 New state    131 was old state    141
 New state    132 was old state    134
 New state    133 was old state    127
 New state    134 was old state    138
 New state    135 was old state    137
 New state    136 was old state    125
 New state    137 was old state    130
 New state    138 was old state    139
 New state    139 was old state    128
 New state    140 was old state    142
 New state    141 was old state    146
 New state    142 was old state    145
 New state    143 was old state    136
 New state    144 was old state    143
 New state    145 was old state    152
 New state    146 was old state    149
 New state    147 was old state    144
 New state    148 was old state    153
 New state    149 was old state    151
 New state    150 was old state    148
 New state    151 was old state    147
 New state    152 was old state    150
 New state    153 was old state    166
 New state    154 was old state    157
 New state    155 was old state    159
 New state    156 was old state    158
 New state    157 was old state    160
 New state    158 was old state    156
 New state    159 was old state    155
 New state    160 was old state    168
 New state    161 was old state    165
 New state    162 was old state    170
 New state    163 was old state    164
 New state    164 was old state    154
 New state    165 was old state    167
 New state    166 was old state    169
 New state    167 was old state    174
 New state    168 was old state    179
 New state    169 was old state    161
 New state    170 was old state    171
 New state    171 was old state    176
 New state    172 was old state    178
 New state    173 was old state    162
 New state    174 was old state    172
 New state    175 was old state    163
 New state    176 was old state    173
 New state    177 was old state    181
 New state    178 was old state    177
 New state    179 was old state    193
 New state    180 was old state    185
 New state    181 was old state    202
 New state    182 was old state    183
 New state    183 was old state    175
 New state    184 was old state    191
 New state    185 was old state    187
 New state    186 was old state    190
 New state    187 was old state    180
 New state    188 was old state    186
 New state    189 was old state    182
 New state    190 was old state    194
 New state    191 was old state    188
 New state    192 was old state    199
 New state    193 was old state    184
 New state    194 was old state    209
 New state    195 was old state    197
 New state    196 was old state    203
 New state    197 was old state    196
 New state    198 was old state    189
 New state    199 was old state    200
 New state    200 was old state    195
 New state    201 was old state    220
 New state    202 was old state    192
 New state    203 was old state    204
 New state    204 was old state    205
 New state    205 was old state    207
 New state    207 was old state    221
 New state    208 was old state    201
 New state    209 was old state    213
 New state    210 was old state    211
 New state    211 was old state    198
 New state    212 was old state    208
 New state    213 was old state    210
 New state    214 was old state    217
 New state    215 was old state    218
 New state    216 was old state    237
 New state    217 was old state    216
 New state    218 was old state    234
 New state    220 was old state    223
 New state    221 was old state    212
 New state    222 was old state    226
 New state    223 was old state    214
 New state    224 was old state    215
 New state    225 was old state    229
 New state    226 was old state    227
 New state    227 was old state    239
 New state    228 was old state    232
 New state    229 was old state    230
 New state    230 was old state    235
 New state    231 was old state    225
 New state    232 was old state    222
 New state    233 was old state    238
 New state    234 was old state    233
 New state    235 was old state    236
 New state    236 was old state    224
 New state    237 was old state    240
 New state    238 was old state    262
 New state    239 was old state    228
 New state    240 was old state    241
 New state    241 was old state    254
 New state    243 was old state    251
 New state    244 was old state    248
 New state    245 was old state    247
 New state    246 was old state    245
 New state    247 was old state    231
 New state    248 was old state    243
 New state    250 was old state    258
 New state    251 was old state    250
 New state    252 was old state    256
 New state    254 was old state    252
 New state    255 was old state    246
 New state    256 was old state    266
 New state    257 was old state    270
 New state    258 was old state    244
 New state    259 was old state    269
 New state    260 was old state    261
 New state    261 was old state    257
 New state    262 was old state    260
 New state    263 was old state    264
 New state    264 was old state    263
 New state    265 was old state    267
 New state    266 was old state    265
 New state    267 was old state    268
 New state    268 was old state    275
 New state    269 was old state    255
 New state    270 was old state    259
 New state    271 was old state    272
 New state    272 was old state    273
 New state    273 was old state    276
 New state    274 was old state    283
 New state    275 was old state    277
 New state    276 was old state    274
 New state    277 was old state    271
 New state    278 was old state    285
 New state    279 was old state    281
 New state    280 was old state    303
 New state    281 was old state    278
 New state    282 was old state    279
 New state    283 was old state    282
 New state    284 was old state    292
 New state    285 was old state    286
 New state    286 was old state    284
 New state    288 was old state    280
 New state    289 was old state    294
 New state    290 was old state    297
 New state    291 was old state    290
 New state    292 was old state    288
 New state    293 was old state    289
 New state    294 was old state    301
 New state    296 was old state    299
 New state    297 was old state    300
 New state    298 was old state    291
 New state    299 was old state    296
 New state    300 was old state    298
 New state    301 was old state    293
 New state    302 was old state    310
 New state    303 was old state    305
 New state    305 was old state    309
 New state    306 was old state    315
 New state    307 was old state    311
 New state    308 was old state    307
 New state    309 was old state    302
 New state    310 was old state    306
 New state    311 was old state    312
 New state    312 was old state    308
 New state    313 was old state    316
 New state    315 was old state    313
 New state    316 was old state    321
 New state    319 was old state    320
 New state    320 was old state    319
 New state    321 was old state    331
 New state    323 was old state    324
 New state    324 was old state    326
 New state    325 was old state    323
 New state    326 was old state    328
 New state    327 was old state    329
 New state    328 was old state    325
 New state    329 was old state    333
 New state    330 was old state    327
 New state    331 was old state    330
 New state    333 was old state    348
 New state    335 was old state    337
 New state    336 was old state    335
 New state    337 was old state    345
 New state    339 was old state    336
 New state    340 was old state    339
 New state    341 was old state    342
 New state    342 was old state    344
 New state    343 was old state    340
 New state    344 was old state    347
 New state    345 was old state    343
 New state    346 was old state    350
 New state    347 was old state    351
 New state    348 was old state    346
 New state    350 was old state    359
 New state    351 was old state    357
 New state    352 was old state    341
 New state    353 was old state    358
 New state    354 was old state    361
 New state    356 was old state    360
 New state    357 was old state    352
 New state    358 was old state    353
 New state    359 was old state    354
 New state    360 was old state    368
 New state    361 was old state    356
 New state    363 was old state    369
 New state    364 was old state    366
 New state    365 was old state    372
 New state    366 was old state    364
 New state    367 was old state    363
 New state    368 was old state    365
 New state    369 was old state    367
 New state    370 was old state    379
 New state    371 was old state    373
 New state    372 was old state    371
 New state    373 was old state    370
 New state    376 was old state    377
 New state    377 was old state    381
 New state    379 was old state    380
 New state    380 was old state    382
 New state    381 was old state    387
 New state    382 was old state    376
 New state    386 was old state    390
 New state    387 was old state    386
 New state    388 was old state    389
 New state    389 was old state    391
 New state    390 was old state    392
 New state    391 was old state    393
 New state    392 was old state    388
 New state    393 was old state    396
 New state    396 was old state    398
 New state    397 was old state    399
 New state    398 was old state    397
 New state    399 was old state    400
 New state    400 was old state    404
 New state    401 was old state    403
 New state    402 was old state    401
 New state    403 was old state    407
 New state    404 was old state    408
 New state    405 was old state    411
 New state    406 was old state    402
 New state    407 was old state    405
 New state    408 was old state    412
 New state    409 was old state    406
 New state    411 was old state    413
 New state    412 was old state    417
 New state    413 was old state    414
 New state    414 was old state    415
 New state    415 was old state    409
 New state    417 was old state    419
 New state    418 was old state    422
 New state    419 was old state    420
 New state    420 was old state    421
 New state    421 was old state    423
 New state    422 was old state    418
 New state    423 was old state    424
 New state    424 was old state    426
 New state    425 was old state    434
 New state    426 was old state    427
 New state    427 was old state    425
 New state    430 was old state    431
 New state    431 was old state    430
 New state    432 was old state    436
 New state    433 was old state    432
 New state    434 was old state    433
 New state    435 was old state    437
 New state    436 was old state    438
 New state    437 was old state    435
 New state    438 was old state    439
 New state    439 was old state    441
 New state    440 was old state    443
 New state    441 was old state    444
 New state    442 was old state    440
 New state    443 was old state    442
 New state    444 was old state    447
 New state    445 was old state    446
 New state    446 was old state    450
 New state    447 was old state    445
 New state    448 was old state    449
 New state    449 was old state    448
 New state    450 was old state    463
 New state    455 was old state    458
 New state    456 was old state    455
 New state    458 was old state    456
 New state    460 was old state    464
 New state    461 was old state    466
 New state    463 was old state    460
 New state    464 was old state    465
 New state    465 was old state    467
 New state    466 was old state    461
 New state    467 was old state    477
 New state    470 was old state    471
 New state    471 was old state    470
 New state    473 was old state    474
 New state    474 was old state    473
 New state    475 was old state    483
 New state    476 was old state    475
 New state    477 was old state    480
 New state    478 was old state    476
 New state    479 was old state    481
 New state    480 was old state    479
 New state    481 was old state    484
 New state    482 was old state    478
 New state    483 was old state    493
 New state    484 was old state    487
 New state    486 was old state    482
 New state    487 was old state    486
 New state    493 was old state    494
 No map to state    494
 New state    495 was old state    496
 New state    496 was old state    495
 New state    497 was old state    500
 New state    498 was old state    501
 New state    499 was old state    497
 New state    500 was old state    498
 New state    501 was old state    505
 New state    502 was old state    503
 New state    503 was old state    502
 New state    504 was old state    506
 New state    505 was old state    504
 New state    506 was old state    499
 New state    508 was old state    509
 New state    509 was old state    508
 New state    512 was old state    515
 New state    514 was old state    512
 New state    515 was old state    514
 New state    518 was old state    519
 New state    519 was old state    520
 New state    520 was old state    518
 New state    522 was old state    523
 New state    523 was old state    522
 New state    525 was old state    526
 New state    526 was old state    525
 New state    529 was old state    530
 New state    530 was old state    529
 New state    531 was old state    535
 New state    532 was old state    531
 New state    534 was old state    536
 New state    535 was old state    534
 New state    536 was old state    540
 New state    537 was old state    532
 New state    538 was old state    545
 New state    540 was old state    538
 New state    542 was old state    537
 New state    543 was old state    549
 New state    544 was old state    543
 New state    545 was old state    542
 New state    546 was old state    548
 New state    547 was old state    544
 New state    548 was old state    547
 No map to state    549
 New state    550 was old state    551
 New state    551 was old state    550
 New state    552 was old state    553
 New state    553 was old state    552
 New state    554 was old state    555
 New state    555 was old state    561
 New state    556 was old state    554
 New state    557 was old state    560
 New state    558 was old state    556
 New state    559 was old state    564
 New state    560 was old state    557
 New state    561 was old state    559
 New state    562 was old state    558
 New state    563 was old state    562
 New state    564 was old state    565
 New state    565 was old state    563
 New state    568 was old state    569
 New state    569 was old state    571
 New state    570 was old state    573
 New state    571 was old state    568
 New state    572 was old state    570
 New state    573 was old state    575
 New state    575 was old state    572
 New state    576 was old state    577
 New state    577 was old state    580
 New state    578 was old state    576
 New state    579 was old state    578
 New state    580 was old state    579
 New state    584 was old state    585
 New state    585 was old state    587
 New state    586 was old state    584
 New state    587 was old state    588
 New state    588 was old state    586
 New state    590 was old state    591
 New state    591 was old state    592
 New state    592 was old state    593
 New state    593 was old state    590
 New state    594 was old state    595
 New state    595 was old state    597
 New state    596 was old state    598
 New state    597 was old state    596
 New state    598 was old state    594
 New state    599 was old state    600
 New state    600 was old state    599
 New state    601 was old state    602
 New state    602 was old state    604
 New state    603 was old state    601
 New state    604 was old state    603
 New state    606 was old state    608
 New state    607 was old state    606
 New state    608 was old state    609
 New state    609 was old state    607
 New state    613 was old state    614
 New state    614 was old state    613
 New state    617 was old state    618
 New state    618 was old state    617
 New state    620 was old state    621
 New state    621 was old state    620
 New state    622 was old state    623
 New state    623 was old state    622
 Excitation Energies [eV] at current iteration:
 Root      1 :     5.638234640222916
 Root      2 :     8.061168711107369
 Root      3 :     8.614077312913500
 Root      4 :     8.663050666005649
 Root      5 :     8.920987702041367
 Root      6 :     9.257830573658218
 Root      7 :     9.536187956037626
 Root      8 :     9.658346017966386
 Root      9 :     9.793643361089273
 Root     10 :    10.639230633870190
 Root     11 :    10.745808419900770
 Root     12 :    10.829100407048460
 Root     13 :    10.868555561231140
 Root     14 :    11.068338961872500
 Root     15 :    11.141071214598050
 Root     16 :    11.172594674235690
 Root     17 :    11.432705130542230
 Root     18 :    11.666822882928930
 Root     19 :    11.688414034054390
 Root     20 :    11.769665231092120
 Root     21 :    11.981270719091170
 Root     22 :    12.040432029067030
 Root     23 :    12.323390972048180
 Root     24 :    12.387435754762100
 Root     25 :    12.466278128103500
 Root     26 :    12.476707302085840
 Root     27 :    12.572092097911060
 Root     28 :    12.968446997107290
 Root     29 :    13.000043928888140
 Root     30 :    13.056870673832330
 Root     31 :    13.162614169174770
 Root     32 :    13.291856467935070
 Root     33 :    13.436280877452270
 Root     34 :    13.651014053405010
 Root     35 :    13.889152704932870
 Root     36 :    14.022838744394560
 Root     37 :    14.023469095024440
 Root     38 :    14.098456654360160
 Root     39 :    14.228664234524420
 Root     40 :    14.288468003992080
 Root     41 :    14.319697977996620
 Root     42 :    14.495263524526760
 Root     43 :    14.622266439577570
 Root     44 :    14.725255384410980
 Root     45 :    15.024731076947470
 Root     46 :    15.032235708354240
 Root     47 :    15.079263190870250
 Root     48 :    15.106150390172280
 Root     49 :    15.189034182182780
 Root     50 :    15.240193628976330
 Root     51 :    15.308208443348550
 Root     52 :    15.484670951072770
 Root     53 :    15.502302875389550
 Root     54 :    15.619173229727430
 Root     55 :    15.817832408839790
 Root     56 :    15.823401887987830
 Root     57 :    15.868009232262540
 Root     58 :    16.057106218016510
 Root     59 :    16.135082727156120
 Root     60 :    16.140107135753040
 Root     61 :    16.176714173613390
 Root     62 :    16.245611974135020
 Root     63 :    16.387475203158480
 Root     64 :    16.462511169035570
 Root     65 :    16.527841876175300
 Root     66 :    16.561754510903360
 Root     67 :    16.640912056019080
 Root     68 :    16.650012466271140
 Root     69 :    16.865535894824530
 Root     70 :    16.907409809033520
 Root     71 :    16.980535917164670
 Root     72 :    17.059059411555730
 Root     73 :    17.216668108186820
 Root     74 :    17.239911988543160
 Root     75 :    17.342996565937040
 Root     76 :    17.406889055662250
 Root     77 :    17.482540075105810
 Root     78 :    17.594300947770360
 Root     79 :    17.661362446454500
 Root     80 :    17.680312685279920
 Root     81 :    17.696512925305480
 Root     82 :    17.773647917364570
 Root     83 :    17.780141344556220
 Root     84 :    17.896976966234550
 Root     85 :    18.081837855100230
 Root     86 :    18.091135518623420
 Root     87 :    18.164286698181520
 Root     88 :    18.330801046264330
 Root     89 :    18.420204380319430
 Root     90 :    18.491648841641230
 Root     91 :    18.628350276876800
 Root     92 :    18.705017784421060
 Root     93 :    18.858144034325370
 Root     94 :    19.037006290365640
 Root     95 :    19.053410534500720
 Root     96 :    19.125570635249200
 Root     97 :    19.216584201581240
 Root     98 :    19.315780455322630
 Root     99 :    19.350426571304710
 Root    100 :    19.532276002951170
 Root    101 :    19.648486830224870
 Root    102 :    19.683467819207000
 Root    103 :    19.722855136423700
 Root    104 :    19.794380543702970
 Root    105 :    19.967826499358270
 Root    106 :    20.053436861332100
 Root    107 :    20.090270447452560
 Root    108 :    20.198534491733650
 Root    109 :    20.272040779564880
 Root    110 :    20.290518803845930
 Root    111 :    20.344482184575920
 Root    112 :    20.424011812658490
 Root    113 :    20.464533805969380
 Root    114 :    20.602491008886400
 Root    115 :    20.633918654043030
 Root    116 :    20.778318256270520
 Root    117 :    21.023539316114570
 Root    118 :    21.027277880984870
 Root    119 :    21.170121817856490
 Root    120 :    21.170980217246580
 Root    121 :    21.198373905898950
 Root    122 :    21.266693630918150
 Root    123 :    21.358980514991800
 Root    124 :    21.510857236440180
 Root    125 :    21.547942486130840
 Root    126 :    21.577373791981930
 Root    127 :    21.639201611723650
 Root    128 :    21.735451223877000
 Root    129 :    21.754743599231900
 Root    130 :    21.801013868423170
 Root    131 :    21.885347028620550
 Root    132 :    21.904244064283870
 Root    133 :    22.117941676772120
 Root    134 :    22.244508944246160
 Root    135 :    22.290275448431380
 Root    136 :    22.291424820385460
 Root    137 :    22.403759299531000
 Root    138 :    22.480954431636660
 Root    139 :    22.548970043725650
 Root    140 :    22.704437957478990
 Root    141 :    22.753900183686990
 Root    142 :    22.781531489216900
 Root    143 :    22.957742109042000
 Root    144 :    23.007538477488420
 Root    145 :    23.095427196212650
 Root    146 :    23.107960792365160
 Root    147 :    23.165260154318420
 Root    148 :    23.265429785393690
 Root    149 :    23.430439197189200
 Root    150 :    23.457794621181490
 Root    151 :    23.486943984905450
 Root    152 :    23.692267734562730
 Root    153 :    23.707204934345050
 Root    154 :    24.004227469626210
 Root    155 :    24.018872439272450
 Root    156 :    24.040942372210170
 Root    157 :    24.077892732605030
 Root    158 :    24.172956998952220
 Root    159 :    24.226483845192210
 Root    160 :    24.266199242785270
 Root    161 :    24.353379429652650
 Root    162 :    24.489708355633480
 Root    163 :    24.620315108045340
 Root    164 :    24.740128247227020
 Root    165 :    24.776041292979150
 Root    166 :    24.857937607679870
 Root    167 :    25.057284434192640
 Root    168 :    25.153445543261440
 Root    169 :    25.186291007507880
 Root    170 :    25.269357880804630
 Root    171 :    25.316801714368700
 Root    172 :    25.385024501863860
 Root    173 :    25.506952859095030
 Root    174 :    25.603564293385120
 Root    175 :    25.609676236843120
 Root    176 :    25.656952778014030
 Root    177 :    25.808577841128040
 Root    178 :    25.836172283203840
 Root    179 :    25.920044043634420
 Root    180 :    25.944124327212470
 Root    181 :    26.080690052733800
 Root    182 :    26.128046457731680
 Root    183 :    26.162808848291510
 Root    184 :    26.285596944216000
 Root    185 :    26.356104952244100
 Root    186 :    26.516238797781230
 Root    187 :    26.552334228245900
 Root    188 :    26.578427362314980
 Root    189 :    26.612168183429330
 Root    190 :    26.695660345103350
 Root    191 :    26.858249922746310
 Root    192 :    27.040445211929730
 Root    193 :    27.046059683878110
 Root    194 :    27.201815800393510
 Root    195 :    27.278862303357040
 Root    196 :    27.317634732787970
 Root    197 :    27.454512409120960
 Root    198 :    27.486213833871770
 Root    199 :    27.534792606458010
 Root    200 :    27.561532673357390
 Root    201 :    27.602858139973730
 Root    202 :    27.666506307573820
 Root    203 :    27.910461076096540
 Root    204 :    27.937592118550600
 Root    205 :    27.995593201998930
 Root    206 :    28.041650934490930
 Root    207 :    28.164737149292740
 Root    208 :    28.304080387305630
 Root    209 :    28.456687981143850
 Root    210 :    28.510157169668080
 Root    211 :    28.525588903200020
 Root    212 :    28.671894178733290
 Root    213 :    28.753063715372300
 Root    214 :    28.931609768287790
 Root    215 :    29.054167722324860
 Root    216 :    29.058354101328950
 Root    217 :    29.248523856202120
 Root    218 :    29.269858243670510
 Root    219 :    29.338211731172140
 Root    220 :    29.433716040945200
 Root    221 :    29.453936744018240
 Root    222 :    29.531694936808070
 Root    223 :    29.589655765724430
 Root    224 :    29.632623919754010
 Root    225 :    29.710858773859010
 Root    226 :    29.744126114441840
 Root    227 :    29.992798177888290
 Root    228 :    30.131135245888810
 Root    229 :    30.190626656063780
 Root    230 :    30.229127491114820
 Root    231 :    30.414680582166710
 Root    232 :    30.527176387974530
 Root    233 :    30.614901233369390
 Root    234 :    30.639616505841410
 Root    235 :    30.652536063937770
 Root    236 :    30.684718002345440
 Root    237 :    30.793209444917770
 Root    238 :    30.932994738654360
 Root    239 :    30.976671872510830
 Root    240 :    31.002587529911640
 Root    241 :    31.087199002691350
 Root    242 :    31.090998245891640
 Root    243 :    31.168556391766540
 Root    244 :    31.196438847125330
 Root    245 :    31.347270124064850
 Root    246 :    31.421023483382870
 Root    247 :    31.493243270617910
 Root    248 :    31.665901371725010
 Root    249 :    31.841810857674210
 Root    250 :    31.886396133421090
 Root    251 :    31.910260113462680
 Root    252 :    32.023894213066330
 Root    253 :    32.026504725865980
 Root    254 :    32.170155941060080
 Root    255 :    32.352563098029990
 Root    256 :    32.389718934175010
 Root    257 :    32.484197043853750
 Root    258 :    32.559814175422620
 Root    259 :    32.645953527294470
 Root    260 :    32.713215579418300
 Root    261 :    32.733658721856050
 Root    262 :    32.874201402586950
 Root    263 :    33.072783076629880
 Root    264 :    33.152438766412040
 Root    265 :    33.394734366007520
 Root    266 :    33.429052275472450
 Root    267 :    33.572967548861020
 Root    268 :    33.808896996716210
 Root    269 :    33.866544434478480
 Root    270 :    33.959377927995770
 Root    271 :    33.970659103405540
 Root    272 :    34.140863716796490
 Root    273 :    34.171793125657200
 Root    274 :    34.464367120019490
 Root    275 :    34.729900557917680
 Root    276 :    34.823466457054840
 Root    277 :    34.884613809825300
 Root    278 :    34.979303355396860
 Root    279 :    35.011493137151810
 Root    280 :    35.274920421853800
 Root    281 :    35.373769479528280
 Root    282 :    35.539467016087580
 Root    283 :    35.650938836524890
 Root    284 :    35.728740300171920
 Root    285 :    35.852405011564480
 Root    286 :    36.083904290580270
 Root    287 :    36.160620308686440
 Root    288 :    36.199977438922720
 Root    289 :    36.239640006629500
 Root    290 :    36.313236128249980
 Root    291 :    36.487552187026400
 Root    292 :    36.524177215827020
 Root    293 :    36.724705250034180
 Root    294 :    36.857521737235000
 Root    295 :    36.949597111273550
 Root    296 :    36.968041164510370
 Root    297 :    37.138024698616190
 Root    298 :    37.143532437888800
 Root    299 :    37.288885278748380
 Root    300 :    37.426664564016030
 Root    301 :    37.628078278714890
 Root    302 :    37.637840733648150
 Root    303 :    38.023841065066360
 Root    304 :    38.245228443617980
 Root    305 :    38.378179358873340
 Root    306 :    38.473522514592330
 Root    307 :    38.500755141004830
 Root    308 :    38.769120108495970
 Root    309 :    38.849997008903930
 Root    310 :    39.211577948662870
 Root    311 :    39.289609054880210
 Root    312 :    39.371431208426640
 Root    313 :    39.445404144653590
 Root    314 :    39.642031065904940
 Root    315 :    39.667888575576410
 Root    316 :    39.823944906287340
 Root    317 :    40.234428466666440
 Root    318 :    40.272344590615790
 Root    319 :    40.299198958802360
 Root    320 :    40.752484536356530
 Root    321 :    40.975481602911980
 Root    322 :    41.298585392832220
 Root    323 :    41.317178138565150
 Root    324 :    41.494674826358780
 Root    325 :    41.503592679691710
 Root    326 :    41.673865924152930
 Root    327 :    41.991555955385400
 Root    328 :    42.061436867930600
 Root    329 :    42.175067902179000
 Root    330 :    42.323110498242590
 Root    331 :    42.389488935035890
 Root    332 :    42.597463883707710
 Root    333 :    42.685043981721260
 Root    334 :    42.700464410248980
 Root    335 :    42.996519757359590
 Root    336 :    43.185768863242410
 Root    337 :    43.240890796721970
 Root    338 :    43.388791009615810
 Root    339 :    43.572563132006970
 Root    340 :    43.948028344936150
 Root    341 :    44.016304253717000
 Root    342 :    44.194986770638690
 Root    343 :    44.273431751454960
 Root    344 :    44.566134122953240
 Root    345 :    44.672741600354040
 Root    346 :    44.891282845488610
 Root    347 :    44.950712510140730
 Root    348 :    45.084161997401340
 Root    349 :    45.200032093435340
 Root    350 :    45.346949958356970
 Root    351 :    45.384469754740590
 Root    352 :    45.484441968821920
 Root    353 :    45.717263598564220
 Root    354 :    45.781901561162140
 Root    355 :    45.828160550494830
 Root    356 :    45.914549946155360
 Root    357 :    46.047070029245320
 Root    358 :    46.100478580732440
 Root    359 :    46.304387214937140
 Root    360 :    46.579203941055290
 Root    361 :    46.590976243877350
 Root    362 :    46.904556813062510
 Root    363 :    47.032786567688280
 Root    364 :    47.174000507037010
 Root    365 :    47.192368782810870
 Root    366 :    47.460454635846230
 Root    367 :    47.559999194459700
 Root    368 :    48.201765177314730
 Root    369 :    48.315671259562140
 Root    370 :    48.680772276738720
 Root    371 :    48.885504676443740
 Root    372 :    48.983491047181300
 Root    373 :    49.146200059876520
 Root    374 :    49.259230123883340
 Root    375 :    49.370360296745190
 Root    376 :    49.455020264750850
 Root    377 :    49.589385208013030
 Root    378 :    49.778364513760150
 Root    379 :    50.615359955253330
 Root    380 :    50.635614231057190
 Root    381 :    50.651708930101960
 Root    382 :    50.766648367581820
 Root    383 :    50.788007522462530
 Root    384 :    50.986771267715470
 Root    385 :    51.104612633362320
 Root    386 :    51.506132117950990
 Root    387 :    51.765085521822140
 Root    388 :    51.913482417678960
 Root    389 :    52.381697624706350
 Root    390 :    52.442795241552640
 Root    391 :    52.717750016867470
 Root    392 :    52.761880566107160
 Root    393 :    53.172267863816020
 Root    394 :    53.206916475201550
 Root    395 :    53.835409366866940
 Root    396 :    53.852922980974050
 Root    397 :    53.866644589614590
 Root    398 :    54.202661002201000
 Root    399 :    54.332732765233930
 Root    400 :    54.448126910328770
 Root    401 :    54.622192180464690
 Root    402 :    54.710904293734870
 Root    403 :    54.782155589653880
 Root    404 :    55.009615532238830
 Root    405 :    55.064982522052080
 Root    406 :    55.176055490990510
 Root    407 :    55.325231013556320
 Root    408 :    55.481276409485080
 Root    409 :    55.583712858439530
 Root    410 :    55.719787599052370
 Root    411 :    55.826957277772880
 Root    412 :    55.915076418182940
 Root    413 :    56.144574542623970
 Root    414 :    56.308443670652150
 Root    415 :    56.440358069084880
 Root    416 :    56.913948837686580
 Root    417 :    57.005506080301760
 Root    418 :    57.258622849358200
 Root    419 :    57.288555283984600
 Root    420 :    57.581610963331720
 Root    421 :    57.589988216238630
 Root    422 :    57.926851398676790
 Root    423 :    58.016537664587670
 Root    424 :    58.060537910210710
 Root    425 :    58.424589594096090
 Root    426 :    58.687600344396380
 Root    427 :    58.781344710335800
 Root    428 :    58.881047783702450
 Root    429 :    58.940818626410620
 Root    430 :    59.496550492521020
 Root    431 :    59.599910767174930
 Root    432 :    59.690706915630510
 Root    433 :    59.862947363458130
 Root    434 :    60.068176465012110
 Root    435 :    60.197632030587390
 Root    436 :    60.305033226344460
 Root    437 :    60.335804237061990
 Root    438 :    60.405073425577870
 Root    439 :    60.630840322775500
 Root    440 :    60.634856663272470
 Root    441 :    60.701724168829800
 Root    442 :    60.833465527251920
 Root    443 :    61.124273882113240
 Root    444 :    61.218749606150500
 Root    445 :    61.601005625098070
 Root    446 :    61.687119935926050
 Root    447 :    62.363544022293080
 Root    448 :    62.624500773350730
 Root    449 :    62.733170942039060
 Root    450 :    62.860577386249350
 Root    451 :    62.869293349812760
 Root    452 :    63.083798065347960
 Root    453 :    63.227963337292810
 Root    454 :    63.409393341569130
 Root    455 :    63.493498040141670
 Root    456 :    63.617170207609450
 Root    457 :    63.830616174525280
 Root    458 :    63.847648751850480
 Root    459 :    64.253454625971500
 Root    460 :    64.397277887730620
 Root    461 :    64.689161216986580
 Root    462 :    64.855851809342430
 Root    463 :    65.041288817476610
 Root    464 :    65.149007596059390
 Root    465 :    65.178353966756900
 Root    466 :    65.329990106369620
 Root    467 :    65.423298664961750
 Root    468 :    65.789101873009770
 Root    469 :    66.119562397389100
 Root    470 :    66.528352183665860
 Root    471 :    66.657253425340640
 Root    472 :    66.881858722530690
 Root    473 :    66.990560587146970
 Root    474 :    67.387502331410660
 Root    475 :    67.400093832468360
 Root    476 :    67.921850137780510
 Root    477 :    67.969702169920320
 Root    478 :    68.093854751309450
 Root    479 :    68.157081885505550
 Root    480 :    68.542530625672600
 Root    481 :    68.655443040717230
 Root    482 :    68.713886226109250
 Root    483 :    68.933753419972180
 Root    484 :    69.285366042034450
 Root    485 :    69.289042539066440
 Root    486 :    69.420637856549280
 Root    487 :    69.565911350226880
 Root    488 :    69.662995543273110
 Root    489 :    70.203784080182490
 Root    490 :    70.284748950316330
 Root    491 :    70.508668448821870
 Root    492 :    71.698993543140730
 Root    493 :    72.003344478893310
 Root    494 :    72.112744097941220
 Root    495 :    72.208008182225670
 Root    496 :    72.363043357703830
 Root    497 :    73.654038030330060
 Root    498 :    73.829749282442360
 Root    499 :    73.883091017391650
 Root    500 :    74.099531813219630
 Root    501 :    74.329207845903820
 Root    502 :    74.451087861848120
 Root    503 :    74.626972218626950
 Root    504 :    74.758062171830430
 Root    505 :    74.969868910295120
 Root    506 :    75.176802024698700
 Root    507 :    76.444321035399510
 Root    508 :    76.807600763930370
 Root    509 :    77.246089068586230
 Root    510 :    77.359789498208670
 Root    511 :    77.578147200480160
 Root    512 :    78.198213782443200
 Root    513 :    78.362358795130930
 Root    514 :    78.387302185522440
 Root    515 :    78.881330809689260
 Root    516 :    79.218537455756050
 Root    517 :    79.434623459551460
 Root    518 :    80.433102590164510
 Root    519 :    80.514714158720640
 Root    520 :    80.725716516885830
 Root    521 :    81.489912094374450
 Root    522 :    81.910883901120700
 Root    523 :    82.077933570773750
 Root    524 :    82.948121977724100
 Root    525 :    82.997943486227090
 Root    526 :    83.464252176523530
 Root    527 :    83.554425043163050
 Root    528 :    84.004292717387390
 Root    529 :    84.271298612051920
 Root    530 :    84.640144547821620
 Root    531 :    84.665499963494160
 Root    532 :    85.292687626863870
 Root    533 :    85.533003638265540
 Root    534 :    85.984751466646240
 Root    535 :    86.201819020244880
 Root    536 :    86.297821481497860
 Root    537 :    86.372606839571660
 Root    538 :    86.680987439707540
 Root    539 :    86.954538846705020
 Root    540 :    87.138768554173320
 Root    541 :    87.203526444508570
 Root    542 :    87.405207573296560
 Root    543 :    87.490181526033950
 Root    544 :    88.144960404142370
 Root    545 :    88.765960776222290
 Root    546 :    88.804517325102320
 Root    547 :    89.221171219870460
 Root    548 :    89.844317107040280
 Root    549 :    90.277505025240640
 Root    550 :    90.561089450904350
 Root    551 :    90.961191553106350
 Root    552 :    91.044789066953970
 Root    553 :    91.271036439349120
 Root    554 :    91.584878248644220
 Root    555 :    91.771596920786540
 Root    556 :    91.826927390977870
 Root    557 :    92.264422696290150
 Root    558 :    92.376981510469920
 Root    559 :    92.466165434311380
 Root    560 :    92.754819975635980
 Root    561 :    92.925770248868960
 Root    562 :    93.464118558414650
 Root    563 :    93.981151834733780
 Root    564 :    94.210694781054460
 Root    565 :    94.378797869403670
 Root    566 :    95.444271734356930
 Root    567 :    95.688912085508320
 Root    568 :    95.772574406622610
 Root    569 :    96.517102794128950
 Root    570 :    96.640629910174230
 Root    571 :    96.841302676299160
 Root    572 :    97.258691376079100
 Root    573 :    97.416905170344240
 Root    574 :    97.778161649074420
 Root    575 :    97.953737581377680
 Root    576 :    98.568579921056650
 Root    577 :    98.797788460077300
 Root    578 :    98.917803643441560
 Root    579 :    99.138753101265410
 Root    580 :    99.838856116512230
 Root    581 :    99.972507764662240
 Root    582 :   100.665910157805000
 Root    583 :   101.359380858983900
 Root    584 :   101.943582131837100
 Root    585 :   102.168209654097900
 Root    586 :   102.332439438263600
 Root    587 :   103.210097719194300
 Root    588 :   103.422756134255300
 Root    589 :   103.681810037663500
 Root    590 :   104.292913860953100
 Root    591 :   104.557608117850900
 Root    592 :   104.971863221817200
 Root    593 :   105.304391162213500
 Root    594 :   106.255389419030000
 Root    595 :   106.308932125966800
 Root    596 :   106.727627771695800
 Root    597 :   107.418721186925700
 Root    598 :   107.418811988577900
 Root    599 :   107.702360843967100
 Root    600 :   108.761138721421300
 Root    601 :   108.942007814182100
 Root    602 :   109.247273479875200
 Root    603 :   109.476427664583700
 Root    604 :   109.564114698785600
 Root    605 :   110.087384806342200
 Root    606 :   111.546514111618600
 Root    607 :   111.852660638916700
 Root    608 :   111.908640307641400
 Root    609 :   112.992405457297100
 Root    610 :   113.119804732602000
 Root    611 :   113.653054466055900
 Root    612 :   113.663141389435600
 Root    613 :   114.042524374189000
 Root    614 :   114.506053383516700
 Root    615 :   114.716546921482300
 Root    616 :   115.126023992960300
 Root    617 :   116.251058612234900
 Root    618 :   116.706871861884000
 Root    619 :   116.983490006295800
 Root    620 :   118.285480795207300
 Root    621 :   118.690588576618300
 Root    622 :   118.755698972421300
 Root    623 :   119.486828578808700
 Root    624 :   122.212021664373400
 Root    625 :   123.338363154580900
 Root    626 :   125.772049837102800
 Root    627 :   127.434294336416100
 Root    628 :   131.159534968551900
 Root    629 :   131.600145754557600
 Root    630 :   134.605841053653100
 Convergence achieved for final wavefunctions.
 ***********************************************************************
 Excited states from <AA,BB:AA,BB> singles matrix:
 ***********************************************************************
 
 1PDM for each excited state written to RWF  633
 Ground to excited state transition densities written to RWF  633
 Ground to excited state transition electric dipole moments (Au):
       state          X           Y           Z        Dip. S.      Osc.
         1        -0.0000     -0.0000      0.0721      0.0052      0.0007
         2         0.0575     -0.2617      0.0000      0.0718      0.0142
         3        -0.6511      0.1596      0.0000      0.4494      0.0948
         4        -0.0000      0.0000     -0.0997      0.0099      0.0021
         5        -0.6827     -0.5341      0.0000      0.7514      0.1642
         6         0.0000      0.0000      0.0023      0.0000      0.0000
         7         0.0000     -0.0000      0.1908      0.0364      0.0085
         8        -0.0000     -0.0000      0.0077      0.0001      0.0000
         9        -0.4623      0.2302     -0.0000      0.2667      0.0640
        10         0.0000      0.0000     -0.3197      0.1022      0.0266
        11        -0.0037      0.2842     -0.0000      0.0808      0.0213
        12         0.2496      0.0396      0.0000      0.0639      0.0169
        13        -0.2283      0.3744     -0.0000      0.1923      0.0512
        14         0.1478     -0.0272     -0.0000      0.0226      0.0061
        15         0.2495      0.0825     -0.0000      0.0691      0.0189
        16        -0.0000      0.0000     -0.2129      0.0453      0.0124
        17         0.0000      0.0000      0.0171      0.0003      0.0001
        18         0.0000     -0.0000     -0.0616      0.0038      0.0011
        19        -0.0075     -0.5584      0.0000      0.3118      0.0893
        20         0.0000     -0.0000      0.1427      0.0203      0.0059
        21         0.0000     -0.0000     -0.0719      0.0052      0.0015
        22         0.1290     -0.4188     -0.0000      0.1921      0.0567
        23         0.4810      0.0563     -0.0000      0.2345      0.0708
        24        -0.0000     -0.0000     -0.1855      0.0344      0.0104
        25         0.0169      0.0064     -0.0000      0.0003      0.0001
        26        -0.0000     -0.0000     -0.2866      0.0822      0.0251
        27         0.0000     -0.0000     -0.1309      0.0171      0.0053
        28        -0.0000     -0.0000     -0.1367      0.0187      0.0059
        29         0.2136      0.0539     -0.0000      0.0485      0.0155
        30         0.0000     -0.0000      0.1449      0.0210      0.0067
        31         0.2350     -0.2974     -0.0000      0.1436      0.0463
        32        -0.0000     -0.0000     -0.1376      0.0189      0.0062
        33         0.0769      0.1648     -0.0000      0.0331      0.0109
        34         0.3664      0.3202     -0.0000      0.2368      0.0792
        35        -0.6042      0.2843     -0.0000      0.4459      0.1517
        36         0.0044     -0.0782      0.0000      0.0061      0.0021
        37         0.0000     -0.0000      0.3622      0.1312      0.0451
        38         0.0000     -0.0000     -0.1964      0.0386      0.0133
        39         0.0362     -0.1641     -0.0000      0.0282      0.0098
        40        -0.1680      0.3818      0.0000      0.1740      0.0609
        41        -0.3425      0.0263     -0.0000      0.1180      0.0414
        42        -0.1043      0.3919     -0.0000      0.1645      0.0584
        43         0.0000     -0.0000      0.0752      0.0057      0.0020
        44         0.3527      0.2210      0.0000      0.1733      0.0625
        45         0.0176     -0.3677     -0.0000      0.1355      0.0499
        46        -0.0000     -0.0000      0.3784      0.1432      0.0527
        47         0.4707     -0.3299      0.0000      0.3304      0.1221
        48        -0.0000      0.0000      0.2535      0.0642      0.0238
        49        -0.3790     -0.0757      0.0000      0.1494      0.0556
        50         0.0000     -0.0000     -0.0407      0.0017      0.0006
        51        -0.0000      0.0000      0.0829      0.0069      0.0026
        52         0.0000     -0.0000     -0.1775      0.0315      0.0120
        53         0.0443     -0.0666      0.0000      0.0064      0.0024
        54        -0.0000     -0.0000      0.1493      0.0223      0.0085
        55        -0.1113     -0.0941      0.0000      0.0212      0.0082
        56        -0.0000     -0.0000      0.0920      0.0085      0.0033
        57         0.0000      0.0000      0.5150      0.2653      0.1031
        58        -0.1625      0.0399      0.0000      0.0280      0.0110
        59        -0.0000      0.0000     -0.2842      0.0808      0.0319
        60         0.1601      0.1255      0.0000      0.0414      0.0164
        61        -0.0772      0.2610      0.0000      0.0741      0.0294
        62         0.1431     -0.1331      0.0000      0.0382      0.0152
        63         0.3122      0.1145     -0.0000      0.1106      0.0444
        64        -0.2175     -0.2824      0.0000      0.1270      0.0512
        65        -0.1464      0.4338      0.0000      0.2096      0.0849
        66         0.0000     -0.0000      0.1836      0.0337      0.0137
        67        -0.0000     -0.0000     -0.1464      0.0214      0.0087
        68        -0.1768      0.0376      0.0000      0.0327      0.0133
        69         0.0000      0.0000      0.0994      0.0099      0.0041
        70         0.0733      0.1845     -0.0000      0.0394      0.0163
        71        -0.0000     -0.0000     -0.3489      0.1217      0.0506
        72         0.2514      0.2638     -0.0000      0.1328      0.0555
        73         0.0196      0.1453     -0.0000      0.0215      0.0091
        74        -0.0000     -0.0000     -0.1736      0.0301      0.0127
        75        -0.1297     -0.0246      0.0000      0.0174      0.0074
        76        -0.0000     -0.0000     -0.5821      0.3388      0.1445
        77         0.0760     -0.1003     -0.0000      0.0158      0.0068
        78        -0.0502      0.2250      0.0000      0.0532      0.0229
        79         0.1663     -0.2567     -0.0000      0.0935      0.0405
        80         0.0000      0.0000     -0.0124      0.0002      0.0001
        81         0.0000     -0.0000      0.0141      0.0002      0.0001
        82        -0.0090      0.5155     -0.0000      0.2658      0.1158
        83        -0.0000     -0.0000      0.3269      0.1069      0.0466
        84         0.3929      0.0494      0.0000      0.1568      0.0688
        85        -0.0000     -0.0000     -0.2471      0.0611      0.0270
        86         0.0000      0.0000     -0.5795      0.3358      0.1489
        87         0.2531      0.4899      0.0000      0.3040      0.1353
        88         0.1030     -0.2843      0.0000      0.0914      0.0411
        89        -0.0954     -0.1738     -0.0000      0.0393      0.0177
        90        -0.0000      0.0000      0.1595      0.0254      0.0115
        91        -0.1536     -0.1156      0.0000      0.0370      0.0169
        92         0.0000     -0.0000      0.1449      0.0210      0.0096
        93         0.4496      0.1106     -0.0000      0.2143      0.0990
        94        -0.0386      0.0098     -0.0000      0.0016      0.0007
        95         0.0000     -0.0000      0.0756      0.0057      0.0027
        96        -0.2255      0.0392      0.0000      0.0524      0.0245
        97        -0.0000     -0.0000     -0.3550      0.1260      0.0593
        98        -0.0000     -0.0000     -0.1385      0.0192      0.0091
        99        -0.0000      0.0000     -0.0397      0.0016      0.0007
       100        -0.0632     -0.3355      0.0000      0.1165      0.0558
       101        -0.2867     -0.1762      0.0000      0.1133      0.0545
       102        -0.1780     -0.1181     -0.0000      0.0457      0.0220
       103        -0.3610     -0.4221      0.0000      0.3085      0.1491
       104         0.0424      0.0559      0.0000      0.0049      0.0024
[...]
     14  -0.729087D+00  0.000000D+00 -0.361718D+00  0.000000D+00  0.620619D+00
     15   0.000000D+00  0.294977D-01  0.000000D+00 -0.753384D+00  0.000000D+00
     16   0.000000D+00  0.243094D-01  0.000000D+00 -0.386550D+00  0.000000D+00
               561           562           563           564           565 
      1  -0.186140D+03 -0.186120D+03 -0.186101D+03 -0.186092D+03 -0.186086D+03
      2   0.000000D+00  0.000000D+00  0.000000D+00  0.461216D-01  0.000000D+00
      3   0.000000D+00  0.000000D+00  0.000000D+00  0.383510D-01  0.000000D+00
      4  -0.149285D+00  0.904496D-01  0.127752D+00  0.000000D+00 -0.382710D-01
      5   0.000000D+00  0.000000D+00  0.000000D+00 -0.173490D+00  0.000000D+00
      6   0.000000D+00  0.000000D+00  0.000000D+00 -0.104763D+00  0.000000D+00
      7   0.438809D+00 -0.279573D+00 -0.409022D+00  0.000000D+00  0.100101D+00
      8   0.473738D-01 -0.342986D+00  0.209580D+00  0.000000D+00 -0.120253D-01
      9  -0.863876D+00  0.168270D+01 -0.219589D+00  0.000000D+00  0.216165D+00
     10   0.000000D+00  0.000000D+00  0.000000D+00  0.604587D-02  0.000000D+00
     11   0.000000D+00  0.000000D+00  0.000000D+00 -0.139241D+01  0.000000D+00
     12   0.000000D+00  0.000000D+00  0.000000D+00 -0.773861D-01  0.000000D+00
     13   0.000000D+00  0.000000D+00  0.000000D+00  0.130984D+00  0.000000D+00
     14   0.000000D+00  0.000000D+00  0.000000D+00 -0.712505D-01  0.000000D+00
     15   0.918051D+00 -0.212116D+01  0.328507D+00  0.000000D+00 -0.245624D+00
     16  -0.571268D-01 -0.157138D+00  0.170428D+00  0.000000D+00 -0.720720D-01
               566           567           568           569           570 
      1  -0.186047D+03 -0.186038D+03 -0.186035D+03 -0.186008D+03 -0.186003D+03
      2  -0.652669D-01  0.125738D+00  0.000000D+00  0.688004D-01  0.000000D+00
      3   0.173833D+00 -0.635284D-01  0.000000D+00 -0.398454D-01  0.000000D+00
      4   0.000000D+00  0.000000D+00  0.773536D-01  0.000000D+00 -0.576219D-01
      5   0.195323D+00 -0.428151D+00  0.000000D+00 -0.250934D+00  0.000000D+00
      6  -0.527252D+00  0.227390D+00  0.000000D+00  0.140222D+00  0.000000D+00
      7   0.000000D+00  0.000000D+00 -0.241157D+00  0.000000D+00  0.171116D+00
      8   0.000000D+00  0.000000D+00  0.437334D-01  0.000000D+00  0.403880D-01
      9   0.000000D+00  0.000000D+00 -0.862172D-01  0.000000D+00 -0.201761D+00
     10  -0.156369D-01  0.285885D+00  0.000000D+00  0.128959D+00  0.000000D+00
     11  -0.300887D+01 -0.167230D+01  0.000000D+00 -0.653957D+00  0.000000D+00
     12   0.312567D+00 -0.220986D+00  0.000000D+00  0.123338D+00  0.000000D+00
     13   0.182532D+00 -0.158005D-01  0.000000D+00  0.158907D+00  0.000000D+00
     14  -0.869781D+00 -0.125940D+00  0.000000D+00  0.253701D+00  0.000000D+00
     15   0.000000D+00  0.000000D+00  0.138855D+00  0.000000D+00  0.264550D+00
     16   0.000000D+00  0.000000D+00 -0.239209D-01  0.000000D+00  0.198894D-01
               571           572           573           574           575 
      1  -0.185996D+03 -0.185980D+03 -0.185975D+03 -0.185961D+03 -0.185955D+03
      2   0.104287D+00  0.100321D+00  0.000000D+00  0.244387D+00  0.000000D+00
      3  -0.123236D+00  0.225885D-01  0.000000D+00  0.497044D-01  0.000000D+00
      4   0.000000D+00  0.000000D+00  0.108421D-03  0.000000D+00 -0.231740D+00
      5  -0.359753D+00 -0.346271D+00  0.000000D+00 -0.800419D+00  0.000000D+00
      6   0.402749D+00 -0.641948D-01  0.000000D+00 -0.168430D+00  0.000000D+00
      7   0.000000D+00  0.000000D+00 -0.656512D-02  0.000000D+00  0.738743D+00
      8   0.000000D+00  0.000000D+00  0.103777D+00  0.000000D+00  0.120076D-03
      9   0.000000D+00  0.000000D+00 -0.343920D+00  0.000000D+00 -0.117393D+01
     10   0.182450D+00  0.347688D+00  0.000000D+00 -0.141675D+01  0.000000D+00
     11  -0.193214D+00 -0.868963D+00  0.000000D+00  0.174902D+01  0.000000D+00
     12  -0.301322D+00  0.149462D+00  0.000000D+00 -0.323768D+00  0.000000D+00
     13   0.171780D+00 -0.942847D-01  0.000000D+00 -0.762180D-01  0.000000D+00
     14   0.672220D+00  0.713320D+00  0.000000D+00 -0.962299D+00  0.000000D+00
     15   0.000000D+00  0.000000D+00  0.414154D+00  0.000000D+00  0.166757D+01
     16   0.000000D+00  0.000000D+00  0.163671D+00  0.000000D+00 -0.178797D+00
               576           577           578           579           580 
      1  -0.185932D+03 -0.185924D+03 -0.185919D+03 -0.185911D+03 -0.185886D+03
      2   0.432158D-01 -0.890190D-02  0.000000D+00 -0.143474D+00  0.000000D+00
      3  -0.115189D+00  0.345545D-01  0.000000D+00 -0.522998D-01  0.000000D+00
      4   0.000000D+00  0.000000D+00 -0.272334D+00  0.000000D+00 -0.930752D-01
      5  -0.153774D+00  0.157492D-01  0.000000D+00  0.481658D+00  0.000000D+00
      6   0.427165D+00 -0.120784D+00  0.000000D+00  0.195344D+00  0.000000D+00
      7   0.000000D+00  0.000000D+00  0.881636D+00  0.000000D+00  0.326798D+00
      8   0.000000D+00  0.000000D+00 -0.682186D+00  0.000000D+00  0.125153D+00
      9   0.000000D+00  0.000000D+00  0.187169D+01  0.000000D+00 -0.100604D+01
     10  -0.446311D+00 -0.337277D+00  0.000000D+00 -0.480475D+00  0.000000D+00
     11  -0.623335D+00  0.187558D+01  0.000000D+00  0.188342D+00  0.000000D+00
     12  -0.678409D+00  0.326622D+00  0.000000D+00 -0.492842D+00  0.000000D+00
     13  -0.393327D-01 -0.163372D+00  0.000000D+00  0.117672D+00  0.000000D+00
     14  -0.481231D+00  0.311212D+00  0.000000D+00 -0.636552D+00  0.000000D+00
     15   0.000000D+00  0.000000D+00 -0.222292D+01  0.000000D+00  0.131886D+01
     16   0.000000D+00  0.000000D+00 -0.531336D+00  0.000000D+00  0.279130D-01
               581           582           583           584           585 
      1  -0.185881D+03 -0.185855D+03 -0.185830D+03 -0.185808D+03 -0.185800D+03
      2   0.187144D-01  0.000000D+00  0.000000D+00  0.275527D-01  0.000000D+00
      3   0.106333D+00  0.000000D+00  0.000000D+00  0.767467D-02  0.000000D+00
      4   0.000000D+00  0.349740D-01 -0.216102D+00  0.000000D+00  0.305915D-02
      5  -0.626395D-01  0.000000D+00  0.000000D+00 -0.110749D+00  0.000000D+00
      6  -0.346163D+00  0.000000D+00  0.000000D+00 -0.547266D-01  0.000000D+00
      7   0.000000D+00 -0.117337D+00  0.700579D+00  0.000000D+00 -0.124133D-01
      8   0.000000D+00  0.346653D-01 -0.635056D+00  0.000000D+00  0.946470D-01
      9   0.000000D+00 -0.361872D-01  0.117462D+01  0.000000D+00 -0.291643D+00
     10  -0.519488D+00  0.000000D+00  0.000000D+00  0.405692D+00  0.000000D+00
     11   0.155511D+00  0.000000D+00  0.000000D+00 -0.158550D+00  0.000000D+00
     12   0.506374D-02  0.000000D+00  0.000000D+00  0.418068D+00  0.000000D+00
     13  -0.406804D+00  0.000000D+00  0.000000D+00  0.515705D-01  0.000000D+00
     14  -0.346231D+00  0.000000D+00  0.000000D+00  0.393529D+00  0.000000D+00
     15   0.000000D+00  0.124963D+00 -0.144945D+01  0.000000D+00  0.307374D+00
     16   0.000000D+00  0.245291D+00 -0.750796D+00  0.000000D+00  0.591179D+00
               586           587           588           589           590 
      1  -0.185794D+03 -0.185762D+03 -0.185754D+03 -0.185744D+03 -0.185722D+03
      2   0.102669D-01 -0.404849D-01  0.158532D-02  0.135576D+00  0.000000D+00
      3   0.129668D-01 -0.169250D+00 -0.266295D-01 -0.661363D-01  0.000000D+00
      4   0.000000D+00  0.000000D+00  0.000000D+00  0.000000D+00  0.111479D+00
      5  -0.409033D-01  0.121610D+00 -0.332843D-01 -0.510382D+00  0.000000D+00
      6  -0.276944D-01  0.592273D+00  0.978516D-01  0.206937D+00  0.000000D+00
      7   0.000000D+00  0.000000D+00  0.000000D+00  0.000000D+00 -0.394399D+00
      8   0.000000D+00  0.000000D+00  0.000000D+00  0.000000D+00  0.897744D-01
      9   0.000000D+00  0.000000D+00  0.000000D+00  0.000000D+00  0.193792D+00
     10  -0.183429D+00  0.245558D+00  0.214820D+00  0.731131D+00  0.000000D+00
     11  -0.659854D+00 -0.215194D+01 -0.693101D+00  0.815542D+00  0.000000D+00
     12  -0.211699D+00 -0.339516D+00 -0.610371D-02  0.184994D+00  0.000000D+00
     13   0.152412D+00  0.166757D+00 -0.379302D+00  0.570136D-01  0.000000D+00
     14  -0.419546D+00 -0.305849D+00  0.293047D+00  0.149382D+01  0.000000D+00
     15   0.000000D+00  0.000000D+00  0.000000D+00  0.000000D+00 -0.101292D+00
     16   0.000000D+00  0.000000D+00  0.000000D+00  0.000000D+00  0.118042D+00
               591           592           593           594           595 
      1  -0.185712D+03 -0.185697D+03 -0.185685D+03 -0.185650D+03 -0.185648D+03
      2   0.607467D-02  0.000000D+00  0.000000D+00  0.000000D+00 -0.336970D-02
      3  -0.970416D-01  0.000000D+00  0.000000D+00  0.000000D+00  0.253165D-01
      4   0.000000D+00 -0.135350D+00 -0.825979D-01 -0.474495D-01  0.000000D+00
      5  -0.259359D-01  0.000000D+00  0.000000D+00  0.000000D+00  0.681600D-02
      6   0.323398D+00  0.000000D+00  0.000000D+00  0.000000D+00 -0.103061D+00
      7   0.000000D+00  0.457639D+00  0.303935D+00  0.163988D+00  0.000000D+00
      8   0.000000D+00 -0.223609D+00 -0.338776D+00 -0.270582D-02  0.000000D+00
      9   0.000000D+00  0.324916D+00  0.518111D+00 -0.150890D+00  0.000000D+00
     10   0.352478D+00  0.000000D+00  0.000000D+00  0.000000D+00 -0.319475D+00
     11  -0.673042D-01  0.000000D+00  0.000000D+00  0.000000D+00  0.940480D+00
     12   0.688813D+00  0.000000D+00  0.000000D+00  0.000000D+00 -0.141159D-01
     13  -0.289630D+00  0.000000D+00  0.000000D+00  0.000000D+00 -0.172692D+00
     14   0.460005D+00  0.000000D+00  0.000000D+00  0.000000D+00  0.107189D+00
     15   0.000000D+00  0.550560D-01 -0.543286D+00  0.320467D+00  0.000000D+00
     16   0.000000D+00  0.762450D-01 -0.454431D+00 -0.300694D+00  0.000000D+00
               596           597           598           599           600 
      1  -0.185632D+03 -0.185607D+03 -0.185607D+03 -0.185597D+03 -0.185558D+03
      2   0.900991D-02  0.000000D+00  0.154959D+00  0.000000D+00  0.479427D-01
      3  -0.619770D-01  0.000000D+00  0.131099D+00  0.000000D+00 -0.111340D-01
      4   0.000000D+00 -0.566885D-01  0.000000D+00  0.371729D-01  0.000000D+00
      5  -0.508479D-01  0.000000D+00 -0.612651D+00  0.000000D+00 -0.187789D+00
      6   0.200948D+00  0.000000D+00 -0.469059D+00  0.000000D+00  0.280145D-01
      7   0.000000D+00  0.181316D+00  0.000000D+00 -0.141026D+00  0.000000D+00
      8   0.000000D+00  0.493064D-01  0.000000D+00  0.359248D+00  0.000000D+00
      9   0.000000D+00 -0.203246D+00  0.000000D+00 -0.131525D+01  0.000000D+00
     10   0.632686D+00  0.000000D+00 -0.640752D+00  0.000000D+00 -0.712718D-01
     11   0.370073D+00  0.000000D+00 -0.276529D+00  0.000000D+00  0.732932D-02
     12   0.501168D+00  0.000000D+00  0.127656D+00  0.000000D+00  0.244682D+00
     13  -0.656769D-01  0.000000D+00  0.133089D-01  0.000000D+00  0.373985D-01
     14   0.119674D+01  0.000000D+00 -0.337017D+00  0.000000D+00  0.110281D+00
     15   0.000000D+00  0.786199D-01  0.000000D+00  0.149003D+01  0.000000D+00
     16   0.000000D+00  0.664429D-01  0.000000D+00  0.332025D+00  0.000000D+00
               601           602           603           604           605 
      1  -0.185551D+03 -0.185540D+03 -0.185531D+03 -0.185528D+03 -0.185509D+03
      2   0.000000D+00  0.000000D+00  0.878913D-01  0.000000D+00 -0.811296D-02
      3   0.000000D+00  0.000000D+00  0.163902D-01  0.000000D+00 -0.874045D-03
      4  -0.829219D-01 -0.755938D-01  0.000000D+00  0.431869D-01  0.000000D+00
      5   0.000000D+00  0.000000D+00 -0.334986D+00  0.000000D+00  0.291130D-01
      6   0.000000D+00  0.000000D+00 -0.395296D-01  0.000000D+00  0.439060D-02
      7   0.314979D+00  0.264747D+00  0.000000D+00 -0.152629D+00  0.000000D+00
      8  -0.102005D-01  0.497807D-01  0.000000D+00  0.113784D+00  0.000000D+00
      9  -0.541710D+00 -0.517246D+00  0.000000D+00 -0.250864D+00  0.000000D+00
     10   0.000000D+00  0.000000D+00 -0.830346D+00  0.000000D+00  0.417152D+00
     11   0.000000D+00  0.000000D+00 -0.344576D+01  0.000000D+00 -0.297099D+00
     12   0.000000D+00  0.000000D+00 -0.148558D-01  0.000000D+00  0.298769D+00
     13   0.000000D+00  0.000000D+00  0.585999D-01  0.000000D+00 -0.265445D-01
     14   0.000000D+00  0.000000D+00 -0.144112D+01  0.000000D+00  0.816721D-01
     15   0.642933D+00  0.525075D+00  0.000000D+00  0.128685D+00  0.000000D+00
     16  -0.724897D-01  0.148417D+00  0.000000D+00  0.209642D+00  0.000000D+00
               606           607           608           609           610 
      1  -0.185455D+03 -0.185444D+03 -0.185442D+03 -0.185402D+03 -0.185398D+03
      2  -0.180104D-01 -0.171339D+00  0.000000D+00  0.230509D-01  0.000000D+00
      3  -0.274210D-02  0.277800D-01  0.000000D+00 -0.928502D-01  0.000000D+00
      4   0.000000D+00  0.000000D+00 -0.571005D-01  0.000000D+00  0.672409D-01
      5   0.555662D-01  0.667038D+00  0.000000D+00 -0.113853D+00  0.000000D+00
      6   0.182805D-01 -0.975807D-01  0.000000D+00  0.390539D+00  0.000000D+00
      7   0.000000D+00  0.000000D+00  0.236251D+00  0.000000D+00 -0.239846D+00
      8   0.000000D+00  0.000000D+00 -0.242974D+00  0.000000D+00  0.183036D+00
      9   0.000000D+00  0.000000D+00  0.626891D+00  0.000000D+00 -0.124626D+00
     10   0.122505D+00 -0.113696D+01  0.000000D+00  0.131341D+00  0.000000D+00
     11   0.795456D+00  0.285336D+01  0.000000D+00 -0.274066D+01  0.000000D+00
     12   0.642649D-01 -0.362519D+00  0.000000D+00 -0.383813D+00  0.000000D+00
     13  -0.459462D-02 -0.165507D+00  0.000000D+00  0.684746D-01  0.000000D+00
     14   0.397214D+00 -0.116113D+01  0.000000D+00 -0.212130D+00  0.000000D+00
     15   0.000000D+00  0.000000D+00 -0.749523D+00  0.000000D+00  0.521261D-01
     16   0.000000D+00  0.000000D+00  0.137357D-01  0.000000D+00  0.234465D+00
               611           612           613           614           615 
      1  -0.185378D+03 -0.185378D+03 -0.185364D+03 -0.185347D+03 -0.185339D+03
      2  -0.833273D-01  0.000000D+00 -0.243728D-01  0.398758D-01  0.283839D-01
      3   0.218069D-01  0.000000D+00 -0.418768D-01 -0.725652D-02 -0.218140D-02
      4   0.000000D+00  0.362335D-01  0.000000D+00  0.000000D+00  0.000000D+00
      5   0.364272D+00  0.000000D+00  0.751418D-01 -0.173010D+00 -0.978969D-01
      6  -0.731060D-01  0.000000D+00  0.158806D+00  0.357565D-01  0.773550D-02
      7   0.000000D+00 -0.143088D+00  0.000000D+00  0.000000D+00  0.000000D+00
      8   0.000000D+00 -0.234823D-01  0.000000D+00  0.000000D+00  0.000000D+00
      9   0.000000D+00  0.448742D+00  0.000000D+00  0.000000D+00  0.000000D+00
     10   0.473886D-01  0.000000D+00  0.236194D+00  0.655598D+00 -0.324680D+00
     11   0.396664D+00  0.000000D+00 -0.410056D+00 -0.121701D+01 -0.323821D+00
     12   0.223527D-02  0.000000D+00  0.310461D-01  0.155266D+00  0.150172D+00
     13  -0.847780D-02  0.000000D+00 -0.108574D+00  0.168029D+00 -0.984242D-02
     14  -0.271984D+00  0.000000D+00  0.271687D-01  0.734395D+00 -0.458996D+00
     15   0.000000D+00 -0.432560D+00  0.000000D+00  0.000000D+00  0.000000D+00
     16   0.000000D+00 -0.359226D-01  0.000000D+00  0.000000D+00  0.000000D+00
               616           617           618           619           620 
      1  -0.185324D+03 -0.185282D+03 -0.185266D+03 -0.185256D+03 -0.185208D+03
      2   0.212268D-01 -0.623470D-02  0.000000D+00  0.000000D+00  0.775102D-01
      3  -0.189752D+00 -0.636017D-01  0.000000D+00  0.000000D+00  0.380959D-01
      4   0.000000D+00  0.000000D+00 -0.336170D-01  0.253450D-01  0.000000D+00
      5  -0.711798D-01  0.562289D-01  0.000000D+00  0.000000D+00 -0.333031D+00
      6   0.756152D+00  0.273393D+00  0.000000D+00  0.000000D+00 -0.153425D+00
      7   0.000000D+00  0.000000D+00  0.128272D+00 -0.877419D-01  0.000000D+00
      8   0.000000D+00  0.000000D+00 -0.100582D+00 -0.739778D-01  0.000000D+00
      9   0.000000D+00  0.000000D+00  0.192247D+00  0.232705D+00  0.000000D+00
     10  -0.145468D+01 -0.226715D+00  0.000000D+00  0.000000D+00  0.924674D-01
     11   0.389346D-01 -0.208117D+00  0.000000D+00  0.000000D+00  0.280397D+00
     12  -0.108044D+01 -0.123188D+00  0.000000D+00  0.000000D+00  0.401982D+00
     13  -0.553263D-01 -0.269227D+00  0.000000D+00  0.000000D+00  0.459847D-01
     14  -0.172851D+01 -0.408709D+00  0.000000D+00  0.000000D+00  0.375878D+00
     15   0.000000D+00  0.000000D+00 -0.227300D+00 -0.135042D+00  0.000000D+00
     16   0.000000D+00  0.000000D+00  0.227916D-01 -0.297117D-01  0.000000D+00
               621           622           623           624           625 
      1  -0.185193D+03 -0.185190D+03 -0.185164D+03 -0.185063D+03 -0.185022D+03
      2  -0.108644D+00 -0.233390D-01 -0.465078D-01 -0.546161D-01 -0.322843D-01
      3   0.685333D-01 -0.726574D-02 -0.435070D-01  0.540033D-01  0.105500D-01
      4   0.000000D+00  0.000000D+00  0.000000D+00  0.000000D+00  0.000000D+00
      5   0.449525D+00  0.542244D-01  0.190618D+00  0.230042D+00  0.166916D+00
      6  -0.267637D+00  0.286696D-02  0.201204D+00 -0.208047D+00 -0.413572D-01
      7   0.000000D+00  0.000000D+00  0.000000D+00  0.000000D+00  0.000000D+00
      8   0.000000D+00  0.000000D+00  0.000000D+00  0.000000D+00  0.000000D+00
      9   0.000000D+00  0.000000D+00  0.000000D+00  0.000000D+00  0.000000D+00
     10   0.483595D+00  0.125411D+00 -0.376142D+00  0.758195D+00  0.355324D+00
     11  -0.197650D+01  0.416960D+00 -0.544435D+00 -0.132023D+01  0.531604D-01
     12   0.302664D+00  0.484280D-01 -0.408031D+00  0.324342D+00 -0.109596D+00
     13   0.117140D+00  0.655982D-01  0.143409D+00  0.521338D-01  0.108354D+00
     14  -0.743106D-01  0.338661D+00 -0.360161D+00  0.259587D+00  0.754529D-02
     15   0.000000D+00  0.000000D+00  0.000000D+00  0.000000D+00  0.000000D+00
     16   0.000000D+00  0.000000D+00  0.000000D+00  0.000000D+00  0.000000D+00
               626           627           628           629           630 
      1  -0.184933D+03 -0.184871D+03 -0.184735D+03 -0.184718D+03 -0.184608D+03
      2   0.319572D-01  0.218291D-02 -0.175968D-01  0.516497D-02  0.679530D-02
      3  -0.686604D-02  0.161694D-02  0.127291D-01 -0.772984D-02  0.175454D-01
      4   0.000000D+00  0.000000D+00  0.000000D+00  0.000000D+00  0.000000D+00
      5  -0.110718D+00 -0.414302D-01  0.686153D-01 -0.420807D-01 -0.664719D-02
      6   0.318242D-01  0.802428D-02 -0.279438D-01  0.235404D-01 -0.519577D-01
      7   0.000000D+00  0.000000D+00  0.000000D+00  0.000000D+00  0.000000D+00
      8   0.000000D+00  0.000000D+00  0.000000D+00  0.000000D+00  0.000000D+00
      9   0.000000D+00  0.000000D+00  0.000000D+00  0.000000D+00  0.000000D+00
     10  -0.184835D+00  0.395312D-01 -0.239386D-01 -0.132072D+00  0.112020D+00
     11   0.100352D+01 -0.187523D+00 -0.515525D-01  0.234943D-01 -0.185183D+00
     12   0.343036D-02 -0.169209D+00 -0.960036D-01 -0.554974D-01 -0.128782D+00
     13  -0.163983D+00 -0.738069D-01  0.985727D-02 -0.518227D-01  0.543646D-01
     14   0.961030D-01  0.238706D-01  0.220735D+00 -0.101789D+00  0.526116D-01
     15   0.000000D+00  0.000000D+00  0.000000D+00  0.000000D+00  0.000000D+00
     16   0.000000D+00  0.000000D+00  0.000000D+00  0.000000D+00  0.000000D+00
 Unable to Open any file for archive entry.
 1\1\GINC-HEL25\SP\RM11 TD-FC\Gen\C1H2O2\SABYASACHI\21-Mar-2022\0\\#P T
 D(Nstates=10000) m11/Gen SCF(maxcycles=100) Int(Grid=ultrafine)\\xGDB7
 _00001_tier4.com\\0,1\O,0,-1.023804,-0.438792,0.\C,0,0.,0.418952,0.\O,
 0,1.152985,0.109983,0.\H,0,-0.656942,-1.333012,0.\H,0,-0.376499,1.4497
 7,0.\\Version=EM64L-G16RevC.01\State=1-A'\HF=-189.5545991\RMSD=1.942e-
 09\PG=CS [SG(C1H2O2)]\\@
 The archive entry for this job was punched.


 I do not feel obliged to believe that the same God who
 has endowed us with sense, reason, and intellect has
 intended us to forgo their use.
                   --Galileo Galilei
 Job cpu time:       0 days  0 hours 10 minutes 29.3 seconds.
 Elapsed time:       0 days  0 hours  1 minutes 18.9 seconds.
 File lengths (MBytes):  RWF=    508 Int=      0 D2E=      0 Chk=    107 Scr=      1
 Normal termination of Gaussian 16 at Mon Mar 21 20:06:19 2022.
