 Entering Gaussian System, Link 0=g16
 Input=000016.com
 Output=000016.log
 Initial command:
 /home/sabyasachi/g16/l1.exe "/scratch/sabyasachi/PBS_7976150.helios/Gau-27371.inp" -scrdir="/scratch/sabyasachi/PBS_7976150.helios/"
 Entering Link 1 = /home/sabyasachi/g16/l1.exe PID=     27372.
  
 Copyright (c) 1988-2019, Gaussian, Inc.  All Rights Reserved.
  
 This is part of the Gaussian(R) 16 program.  It is based on
 the Gaussian(R) 09 system (copyright 2009, Gaussian, Inc.),
 the Gaussian(R) 03 system (copyright 2003, Gaussian, Inc.),
 the Gaussian(R) 98 system (copyright 1998, Gaussian, Inc.),
 the Gaussian(R) 94 system (copyright 1995, Gaussian, Inc.),
 the Gaussian 92(TM) system (copyright 1992, Gaussian, Inc.),
 the Gaussian 90(TM) system (copyright 1990, Gaussian, Inc.),
 the Gaussian 88(TM) system (copyright 1988, Gaussian, Inc.),
 the Gaussian 86(TM) system (copyright 1986, Carnegie Mellon
 University), and the Gaussian 82(TM) system (copyright 1983,
 Carnegie Mellon University). Gaussian is a federally registered
 trademark of Gaussian, Inc.
  
 This software contains proprietary and confidential information,
 including trade secrets, belonging to Gaussian, Inc.
  
 This software is provided under written license and may be
 used, copied, transmitted, or stored only in accord with that
 written license.
  
 The following legend is applicable only to US Government
 contracts under FAR:
  
                    RESTRICTED RIGHTS LEGEND
  
 Use, reproduction and disclosure by the US Government is
 subject to restrictions as set forth in subparagraphs (a)
 and (c) of the Commercial Computer Software - Restricted
 Rights clause in FAR 52.227-19.
  
 Gaussian, Inc.
 340 Quinnipiac St., Bldg. 40, Wallingford CT 06492
  
  
 ---------------------------------------------------------------
 Warning -- This program may not be used in any manner that
 competes with the business of Gaussian, Inc. or will provide
 assistance to any competitor of Gaussian, Inc.  The licensee
 of this program is prohibited from giving any competitor of
 Gaussian, Inc. access to this program.  By using this program,
 the user acknowledges that Gaussian, Inc. is engaged in the
 business of creating and licensing software in the field of
 computational chemistry and represents and warrants to the
 licensee that it is not a competitor of Gaussian, Inc. and that
 it will not use this program in any manner prohibited above.
 ---------------------------------------------------------------
  

 Cite this work as:
 Gaussian 16, Revision C.01,
 M. J. Frisch, G. W. Trucks, H. B. Schlegel, G. E. Scuseria, 
 M. A. Robb, J. R. Cheeseman, G. Scalmani, V. Barone, 
 G. A. Petersson, H. Nakatsuji, X. Li, M. Caricato, A. V. Marenich, 
 J. Bloino, B. G. Janesko, R. Gomperts, B. Mennucci, H. P. Hratchian, 
 J. V. Ortiz, A. F. Izmaylov, J. L. Sonnenberg, D. Williams-Young, 
 F. Ding, F. Lipparini, F. Egidi, J. Goings, B. Peng, A. Petrone, 
 T. Henderson, D. Ranasinghe, V. G. Zakrzewski, J. Gao, N. Rega, 
 G. Zheng, W. Liang, M. Hada, M. Ehara, K. Toyota, R. Fukuda, 
 J. Hasegawa, M. Ishida, T. Nakajima, Y. Honda, O. Kitao, H. Nakai, 
 T. Vreven, K. Throssell, J. A. Montgomery, Jr., J. E. Peralta, 
 F. Ogliaro, M. J. Bearpark, J. J. Heyd, E. N. Brothers, K. N. Kudin, 
 V. N. Staroverov, T. A. Keith, R. Kobayashi, J. Normand, 
 K. Raghavachari, A. P. Rendell, J. C. Burant, S. S. Iyengar, 
 J. Tomasi, M. Cossi, J. M. Millam, M. Klene, C. Adamo, R. Cammi, 
 J. W. Ochterski, R. L. Martin, K. Morokuma, O. Farkas, 
 J. B. Foresman, and D. J. Fox, Gaussian, Inc., Wallingford CT, 2019.
 
 ******************************************
 Gaussian 16:  EM64L-G16RevC.01  3-Jul-2019
                21-Mar-2022 
 ******************************************
 %mem=64gb
 %nproc=8
 Will use up to    8 processors via shared memory.
 -------------------------------------------------------------------
 #P TD(Nstates=10000) m11/Gen SCF(maxcycles=100) Int(Grid=ultrafine)
 -------------------------------------------------------------------
 1/38=1,172=1/1;
 2/12=2,17=6,18=5,40=1/2;
 3/5=7,11=9,25=1,30=1,74=-64,75=-5/1,2,3,8;
 4//1;
 5/5=2,7=100,38=5/2;
 8/6=1,10=1,108=10000/1;
 9/41=10000,42=1,70=2/14;
 6/7=2,8=2,9=2,10=2/1;
 99/5=1,9=1/99;
 Leave Link    1 at Mon Mar 21 20:09:37 2022, MaxMem=  8589934592 cpu:               0.4 elap:               0.1
 (Enter /home/sabyasachi/g16/l101.exe)
 ---------------------
 xGDB7_00001_tier4.com
 ---------------------
 Symbolic Z-matrix:
 Charge =  0 Multiplicity = 1
 6                    -1.20842  -0.23907  -0.02192 
 6                     0.08389   0.55345   0.04673 
 8                     1.23347  -0.256    -0.10586 
 1                    -2.072     0.42514   0.0517 
 1                    -1.27067  -0.95776   0.79973 
 1                    -1.27063  -0.78828  -0.96233 
 1                     0.13003   1.1192    0.98611 
 1                     0.12595   1.27703  -0.76855 
 1                     1.23675  -0.91361   0.59134 
 
 ITRead=  0  0  0  0  0  0  0  0  0
 MicOpt= -1 -1 -1 -1 -1 -1 -1 -1 -1
 NAtoms=      9 NQM=        9 NQMF=       0 NMMI=      0 NMMIF=      0
                NMic=       0 NMicF=      0.
                    Isotopes and Nuclear Properties:
 (Nuclear quadrupole moments (NQMom) in fm**2, nuclear magnetic moments (NMagM)
  in nuclear magnetons)

  Atom         1           2           3           4           5           6           7           8           9
 IAtWgt=          12          12          16           1           1           1           1           1           1
 AtmWgt=  12.0000000  12.0000000  15.9949146   1.0078250   1.0078250   1.0078250   1.0078250   1.0078250   1.0078250
 NucSpn=           0           0           0           1           1           1           1           1           1
 AtZEff=  -0.0000000  -0.0000000  -0.0000000  -0.0000000  -0.0000000  -0.0000000  -0.0000000  -0.0000000  -0.0000000
 NQMom=    0.0000000   0.0000000   0.0000000   0.0000000   0.0000000   0.0000000   0.0000000   0.0000000   0.0000000
 NMagM=    0.0000000   0.0000000   0.0000000   2.7928460   2.7928460   2.7928460   2.7928460   2.7928460   2.7928460
 AtZNuc=   6.0000000   6.0000000   8.0000000   1.0000000   1.0000000   1.0000000   1.0000000   1.0000000   1.0000000
 Leave Link  101 at Mon Mar 21 20:09:37 2022, MaxMem=  8589934592 cpu:               0.8 elap:               0.1
 (Enter /home/sabyasachi/g16/l202.exe)
                          Input orientation:                          
 ---------------------------------------------------------------------
 Center     Atomic      Atomic             Coordinates (Angstroms)
 Number     Number       Type             X           Y           Z
 ---------------------------------------------------------------------
      1          6           0       -1.208422   -0.239069   -0.021917
      2          6           0        0.083893    0.553452    0.046734
      3          8           0        1.233467   -0.256002   -0.105864
      4          1           0       -2.071999    0.425136    0.051700
      5          1           0       -1.270670   -0.957756    0.799731
      6          1           0       -1.270625   -0.788280   -0.962327
      7          1           0        0.130030    1.119197    0.986112
      8          1           0        0.125952    1.277026   -0.768547
      9          1           0        1.236751   -0.913605    0.591341
 ---------------------------------------------------------------------
                    Distance matrix (angstroms):
                    1          2          3          4          5
     1  C    0.000000
     2  C    1.517524   0.000000
     3  O    2.443390   1.414221   0.000000
     4  H    1.091949   2.159713   3.378592   0.000000
     5  H    1.093385   2.164624   2.753773   1.764672   0.000000
     6  H    1.090813   2.157120   2.699505   1.772803   1.770189
     7  H    2.156957   1.097555   2.073923   2.490738   2.512057
     8  H    2.153266   1.090876   2.003974   2.495899   3.066643
     9  H    2.609589   1.943691   0.958409   3.609885   2.516453
                    6          7          8          9
     6  H    0.000000
     7  H    3.065407   0.000000
     8  H    2.500693   1.761748   0.000000
     9  H    2.952376   2.347969   2.807496   0.000000
 Stoichiometry    C2H6O
 Framework group  C1[X(C2H6O)]
 Deg. of freedom    21
 Full point group                 C1      NOp   1
 Largest Abelian subgroup         C1      NOp   1
 Largest concise Abelian subgroup C1      NOp   1
                         Standard orientation:                         
 ---------------------------------------------------------------------
 Center     Atomic      Atomic             Coordinates (Angstroms)
 Number     Number       Type             X           Y           Z
 ---------------------------------------------------------------------
      1          6           0       -1.208422   -0.239069   -0.021917
      2          6           0        0.083893    0.553452    0.046734
      3          8           0        1.233467   -0.256002   -0.105864
      4          1           0       -2.071999    0.425135    0.051700
      5          1           0       -1.270670   -0.957756    0.799731
      6          1           0       -1.270625   -0.788280   -0.962327
      7          1           0        0.130030    1.119197    0.986112
      8          1           0        0.125951    1.277026   -0.768547
      9          1           0        1.236751   -0.913605    0.591341
 ---------------------------------------------------------------------
 Rotational constants (GHZ):          34.6666409           9.2583988           8.1755823
 Leave Link  202 at Mon Mar 21 20:09:37 2022, MaxMem=  8589934592 cpu:               0.1 elap:               0.0
 (Enter /home/sabyasachi/g16/l301.exe)
 General basis read from cards:  (5D, 7F)
 Centers:       4      5      6      7      8      9
 S 3 1.00
     Exponent=  1.3010701000D+01 Coefficients=  1.9682158000D-02
     Exponent=  1.9622572000D+00 Coefficients=  1.3796524000D-01
     Exponent=  4.4453796000D-01 Coefficients=  4.7831935000D-01
 S 1 1.00
     Exponent=  1.2194962000D-01 Coefficients=  1.0000000000D+00
 P 1 1.00
     Exponent=  8.0000000000D-01 Coefficients=  1.0000000000D+00
 P 1 1.00
     Exponent=  1.1704099050D-01 Coefficients=  1.0000000000D+00
 ****
 Centers:       1      2
 S 5 1.00
     Exponent=  1.2384016938D+03 Coefficients=  5.4568832082D-03
     Exponent=  1.8629004992D+02 Coefficients=  4.0638409211D-02
     Exponent=  4.2251176346D+01 Coefficients=  1.8025593888D-01
     Exponent=  1.1676557932D+01 Coefficients=  4.6315121755D-01
     Exponent=  3.5930506482D+00 Coefficients=  4.4087173314D-01
 S 1 1.00
     Exponent=  4.0245147363D-01 Coefficients=  1.0000000000D+00
 S 1 1.00
     Exponent=  1.3090182668D-01 Coefficients=  1.0000000000D+00
 S 1 1.00
     Exponent=  6.7053540256D-02 Coefficients=  1.0000000000D+00
 P 3 1.00
     Exponent=  9.4680970621D+00 Coefficients=  3.8387871728D-02
     Exponent=  2.0103545142D+00 Coefficients=  2.1117025112D-01
     Exponent=  5.4771004707D-01 Coefficients=  5.1328172114D-01
 P 1 1.00
     Exponent=  1.5268613795D-01 Coefficients=  1.0000000000D+00
 D 1 1.00
     Exponent=  8.0000000000D-01 Coefficients=  1.0000000000D+00
 D 1 1.00
     Exponent=  1.1713185140D-01 Coefficients=  1.0000000000D+00
 ****
 Centers:       3
 S 5 1.00
     Exponent=  2.2661767785D+03 Coefficients= -5.3431809926D-03
     Exponent=  3.4087010191D+02 Coefficients= -3.9890039230D-02
     Exponent=  7.7363135167D+01 Coefficients= -1.7853911985D-01
     Exponent=  2.1479644940D+01 Coefficients= -4.6427684959D-01
     Exponent=  6.6589433124D+00 Coefficients= -4.4309745172D-01
 S 1 1.00
     Exponent=  8.0975975668D-01 Coefficients=  1.0000000000D+00
 S 1 1.00
     Exponent=  2.5530772234D-01 Coefficients=  1.0000000000D+00
 S 1 1.00
     Exponent=  7.6572453250D-02 Coefficients=  1.0000000000D+00
 P 3 1.00
     Exponent=  1.7721504317D+01 Coefficients=  4.3394573193D-02
     Exponent=  3.8635505440D+00 Coefficients=  2.3094120765D-01
     Exponent=  1.0480920883D+00 Coefficients=  5.1375311064D-01
 P 1 1.00
     Exponent=  2.7641544411D-01 Coefficients=  1.0000000000D+00
 P 1 1.00
     Exponent=  6.9002276350D-02 Coefficients=  1.0000000000D+00
 D 1 1.00
     Exponent=  1.2000000000D+00 Coefficients=  1.0000000000D+00
 D 1 1.00
     Exponent=  1.7992024323D-01 Coefficients=  1.0000000000D+00
 ****
 Ernie: Thresh=  0.10000D-02 Tol=  0.10000D-05 Strict=F.
 There are   117 symmetry adapted cartesian basis functions of A   symmetry.
 There are   111 symmetry adapted basis functions of A   symmetry.
   111 basis functions,   159 primitive gaussians,   117 cartesian basis functions
    13 alpha electrons       13 beta electrons
       nuclear repulsion energy        81.9103171642 Hartrees.
 IExCor= 5042 DFT=T Ex+Corr=M11 ExCW=0 ScaHFX=  1.000000
 ScaDFX=  1.000000  1.000000  1.000000  1.000000 ScalE2=  1.000000  1.000000
 IRadAn=      5 IRanWt=     -1 IRanGd=            0 ICorTp=0 IEmpDi=  4
 HFx  wShort=  0.000000 wLong=  0.250000 cFull=  0.428000 cShort=  0.000000 cLong=  0.572000
 DFx  wShort=  0.000000 wLong=  0.250000 cFull=  0.000000 cShort=  0.000000 cLong=  1.000000
 NAtoms=    9 NActive=    9 NUniq=    9 SFac= 1.00D+00 NAtFMM=   60 NAOKFM=F Big=F
 Integral buffers will be    131072 words long.
 Raffenetti 1 integral format.
 Two-electron integral symmetry is turned on.
 Leave Link  301 at Mon Mar 21 20:09:37 2022, MaxMem=  8589934592 cpu:               0.6 elap:               0.1
 (Enter /home/sabyasachi/g16/l302.exe)
 NPDir=0 NMtPBC=     1 NCelOv=     1 NCel=       1 NClECP=     1 NCelD=      1
         NCelK=      1 NCelE2=     1 NClLst=     1 CellRange=     0.0.
 One-electron integrals computed using PRISM.
 One-electron integral symmetry used in STVInt
 NBasis=   111 RedAO= T EigKep=  3.00D-04  NBF=   111
 NBsUse=   111 1.00D-06 EigRej= -1.00D+00 NBFU=   111
 Precomputing XC quadrature grid using
 IXCGrd= 4 IRadAn=           5 IRanWt=          -1 IRanGd=           0 AccXCQ= 0.00D+00.
 Generated NRdTot=       0 NPtTot=           0 NUsed=           0 NTot=          32
 NSgBfM=   117   117   117   117   117 MxSgAt=     9 MxSgA2=     9.
 Leave Link  302 at Mon Mar 21 20:09:38 2022, MaxMem=  8589934592 cpu:               1.1 elap:               0.2
 (Enter /home/sabyasachi/g16/l303.exe)
 DipDrv:  MaxL=1.
 Leave Link  303 at Mon Mar 21 20:09:38 2022, MaxMem=  8589934592 cpu:               0.2 elap:               0.0
 (Enter /home/sabyasachi/g16/l308.exe)
 Leave Link  308 at Mon Mar 21 20:09:38 2022, MaxMem=  8589934592 cpu:               0.2 elap:               0.1
 (Enter /home/sabyasachi/g16/l401.exe)
 ExpMin= 6.71D-02 ExpMax= 2.27D+03 ExpMxC= 3.41D+02 IAcc=3 IRadAn=         5 AccDes= 0.00D+00
 Harris functional with IExCor= 1009 and IRadAn=       5 diagonalized for initial guess.
 HarFok:  IExCor= 1009 AccDes= 0.00D+00 IRadAn=         5 IDoV= 1 UseB2=F ITyADJ=14
 ICtDFT=  3500011 ScaDFX=  1.000000  1.000000  1.000000  1.000000
 FoFCou: FMM=F IPFlag=           0 FMFlag=      100000 FMFlg1=           0
         NFxFlg=           0 DoJE=T BraDBF=F KetDBF=T FulRan=T
         wScrn=  0.000000 ICntrl=       500 IOpCl=  0 I1Cent=   200000004 NGrid=           0
         NMat0=    1 NMatS0=      1 NMatT0=    0 NMatD0=    1 NMtDS0=    0 NMtDT0=    0
 Petite list used in FoFCou.
 Harris En= -151.101342491534    
 JPrj=0 DoOrth=F DoCkMO=F.
 Leave Link  401 at Mon Mar 21 20:09:38 2022, MaxMem=  8589934592 cpu:               3.5 elap:               0.5
 (Enter /home/sabyasachi/g16/l502.exe)
 Keep R1 ints in memory in canonical form, NReq=46900736.
 FoFCou: FMM=F IPFlag=           0 FMFlag=           0 FMFlg1=           0
         NFxFlg=           0 DoJE=F BraDBF=F KetDBF=F FulRan=T
         wScrn=  0.000000 ICntrl=       600 IOpCl=  0 I1Cent=           0 NGrid=           0
         NMat0=    1 NMatS0=   6216 NMatT0=    0 NMatD0=    1 NMtDS0=    0 NMtDT0=    0
 Symmetry not used in FoFCou.
 Two-electron integral symmetry not used.
 Closed shell SCF:
 Using DIIS extrapolation, IDIIS=  1040.
 NGot=  8589934592 LenX=  8551259892 LenY=  8551245762
 Requested convergence on RMS density matrix=1.00D-08 within 100 cycles.
 Requested convergence on MAX density matrix=1.00D-06.
 Requested convergence on             energy=1.00D-06.
 No special actions if energy rises.
 Integral accuracy reduced to 1.0D-05 until final iterations.

 Cycle   1  Pass 0  IDiag  1:
 E= -154.761098452841    
 DIIS: error= 2.41D-02 at cycle   1 NSaved=   1.
 NSaved= 1 IEnMin= 1 EnMin= -154.761098452841     IErMin= 1 ErrMin= 2.41D-02
 ErrMax= 2.41D-02  0.00D+00 EMaxC= 1.00D-01 BMatC= 8.35D-02 BMatP= 8.35D-02
 IDIUse=3 WtCom= 7.59D-01 WtEn= 2.41D-01
 Coeff-Com:  0.100D+01
 Coeff-En:   0.100D+01
 Coeff:      0.100D+01
 Gap=     0.382 Goal=   None    Shift=    0.000
 GapD=    0.382 DampG=1.000 DampE=0.500 DampFc=0.5000 IDamp=-1.
 Damping current iteration by 5.00D-01
 RMSDP=5.74D-03 MaxDP=1.62D-01              OVMax= 1.05D-01

 Cycle   2  Pass 0  IDiag  1:
 E= -154.805564710147     Delta-E=       -0.044466257306 Rises=F Damp=T
 DIIS: error= 6.33D-03 at cycle   2 NSaved=   2.
 NSaved= 2 IEnMin= 2 EnMin= -154.805564710147     IErMin= 2 ErrMin= 6.33D-03
 ErrMax= 6.33D-03  0.00D+00 EMaxC= 1.00D-01 BMatC= 4.71D-03 BMatP= 8.35D-02
 IDIUse=3 WtCom= 9.37D-01 WtEn= 6.33D-02
 Coeff-Com: -0.138D+00 0.114D+01
 Coeff-En:   0.000D+00 0.100D+01
 Coeff:     -0.129D+00 0.113D+01
 Gap=     0.448 Goal=   None    Shift=    0.000
 RMSDP=2.09D-03 MaxDP=3.53D-02 DE=-4.45D-02 OVMax= 4.39D-02

 Cycle   3  Pass 0  IDiag  1:
 E= -154.844118674760     Delta-E=       -0.038553964613 Rises=F Damp=F
 DIIS: error= 1.42D-03 at cycle   3 NSaved=   3.
 NSaved= 3 IEnMin= 3 EnMin= -154.844118674760     IErMin= 3 ErrMin= 1.42D-03
 ErrMax= 1.42D-03  0.00D+00 EMaxC= 1.00D-01 BMatC= 8.28D-04 BMatP= 4.71D-03
 IDIUse=3 WtCom= 9.86D-01 WtEn= 1.42D-02
 Coeff-Com: -0.526D-01 0.306D+00 0.746D+00
 Coeff-En:   0.000D+00 0.000D+00 0.100D+01
 Coeff:     -0.519D-01 0.302D+00 0.750D+00
 Gap=     0.438 Goal=   None    Shift=    0.000
 RMSDP=5.12D-04 MaxDP=9.53D-03 DE=-3.86D-02 OVMax= 7.04D-03

 Cycle   4  Pass 0  IDiag  1:
 E= -154.844604386781     Delta-E=       -0.000485712021 Rises=F Damp=F
 DIIS: error= 8.34D-04 at cycle   4 NSaved=   4.
 NSaved= 4 IEnMin= 4 EnMin= -154.844604386781     IErMin= 4 ErrMin= 8.34D-04
 ErrMax= 8.34D-04  0.00D+00 EMaxC= 1.00D-01 BMatC= 1.88D-04 BMatP= 8.28D-04
 IDIUse=3 WtCom= 9.92D-01 WtEn= 8.34D-03
 Coeff-Com:  0.158D-02-0.108D-01 0.309D+00 0.701D+00
 Coeff-En:   0.000D+00 0.000D+00 0.904D-01 0.910D+00
 Coeff:      0.157D-02-0.107D-01 0.307D+00 0.702D+00
 Gap=     0.440 Goal=   None    Shift=    0.000
 RMSDP=1.45D-04 MaxDP=3.03D-03 DE=-4.86D-04 OVMax= 2.88D-03

 Cycle   5  Pass 0  IDiag  1:
 E= -154.844754733679     Delta-E=       -0.000150346898 Rises=F Damp=F
 DIIS: error= 2.05D-04 at cycle   5 NSaved=   5.
 NSaved= 5 IEnMin= 5 EnMin= -154.844754733679     IErMin= 5 ErrMin= 2.05D-04
 ErrMax= 2.05D-04  0.00D+00 EMaxC= 1.00D-01 BMatC= 3.65D-06 BMatP= 1.88D-04
 IDIUse=3 WtCom= 9.98D-01 WtEn= 2.05D-03
 Coeff-Com:  0.442D-02-0.190D-01-0.203D-01 0.770D-01 0.958D+00
 Coeff-En:   0.000D+00 0.000D+00 0.000D+00 0.000D+00 0.100D+01
 Coeff:      0.441D-02-0.189D-01-0.202D-01 0.768D-01 0.958D+00
 Gap=     0.440 Goal=   None    Shift=    0.000
 RMSDP=6.30D-05 MaxDP=9.47D-04 DE=-1.50D-04 OVMax= 5.82D-04

 Cycle   6  Pass 0  IDiag  1:
 E= -154.844759560072     Delta-E=       -0.000004826393 Rises=F Damp=F
 DIIS: error= 2.40D-05 at cycle   6 NSaved=   6.
 NSaved= 6 IEnMin= 6 EnMin= -154.844759560072     IErMin= 6 ErrMin= 2.40D-05
 ErrMax= 2.40D-05  0.00D+00 EMaxC= 1.00D-01 BMatC= 1.34D-07 BMatP= 3.65D-06
 IDIUse=1 WtCom= 1.00D+00 WtEn= 0.00D+00
 Coeff-Com:  0.100D-03 0.534D-03-0.210D-01-0.382D-01 0.118D-01 0.105D+01
 Coeff:      0.100D-03 0.534D-03-0.210D-01-0.382D-01 0.118D-01 0.105D+01
 Gap=     0.440 Goal=   None    Shift=    0.000
 RMSDP=1.65D-05 MaxDP=2.74D-04 DE=-4.83D-06 OVMax= 1.85D-04

 Cycle   7  Pass 0  IDiag  1:
 E= -154.844759836345     Delta-E=       -0.000000276273 Rises=F Damp=F
 DIIS: error= 6.80D-06 at cycle   7 NSaved=   7.
 NSaved= 7 IEnMin= 7 EnMin= -154.844759836345     IErMin= 7 ErrMin= 6.80D-06
 ErrMax= 6.80D-06  0.00D+00 EMaxC= 1.00D-01 BMatC= 1.20D-08 BMatP= 1.34D-07
 IDIUse=1 WtCom= 1.00D+00 WtEn= 0.00D+00
 Coeff-Com: -0.121D-03 0.758D-03-0.525D-02-0.130D-01-0.316D-01 0.275D+00
 Coeff-Com:  0.774D+00
 Coeff:     -0.121D-03 0.758D-03-0.525D-02-0.130D-01-0.316D-01 0.275D+00
 Coeff:      0.774D+00
 Gap=     0.440 Goal=   None    Shift=    0.000
 RMSDP=2.85D-06 MaxDP=5.33D-05 DE=-2.76D-07 OVMax= 3.75D-05

 Initial convergence to 1.0D-05 achieved.  Increase integral accuracy.
 Cycle   8  Pass 1  IDiag  1:
 E= -154.844750763289     Delta-E=        0.000009073057 Rises=F Damp=F
 DIIS: error= 1.05D-05 at cycle   1 NSaved=   1.
 NSaved= 1 IEnMin= 1 EnMin= -154.844750763289     IErMin= 1 ErrMin= 1.05D-05
 ErrMax= 1.05D-05  0.00D+00 EMaxC= 1.00D-01 BMatC= 5.35D-08 BMatP= 5.35D-08
 IDIUse=1 WtCom= 1.00D+00 WtEn= 0.00D+00
 Coeff-Com:  0.100D+01
 Coeff:      0.100D+01
 Gap=     0.440 Goal=   None    Shift=    0.000
 RMSDP=2.85D-06 MaxDP=5.33D-05 DE= 9.07D-06 OVMax= 4.73D-05

 Cycle   9  Pass 1  IDiag  1:
 E= -154.844750813669     Delta-E=       -0.000000050380 Rises=F Damp=F
 DIIS: error= 2.76D-06 at cycle   2 NSaved=   2.
 NSaved= 2 IEnMin= 2 EnMin= -154.844750813669     IErMin= 2 ErrMin= 2.76D-06
 ErrMax= 2.76D-06  0.00D+00 EMaxC= 1.00D-01 BMatC= 1.59D-09 BMatP= 5.35D-08
 IDIUse=1 WtCom= 1.00D+00 WtEn= 0.00D+00
 Coeff-Com: -0.788D-01 0.108D+01
 Coeff:     -0.788D-01 0.108D+01
 Gap=     0.440 Goal=   None    Shift=    0.000
 RMSDP=1.50D-06 MaxDP=2.07D-05 DE=-5.04D-08 OVMax= 1.53D-05

 Cycle  10  Pass 1  IDiag  1:
 E= -154.844750815181     Delta-E=       -0.000000001513 Rises=F Damp=F
 DIIS: error= 1.48D-06 at cycle   3 NSaved=   3.
 NSaved= 3 IEnMin= 3 EnMin= -154.844750815181     IErMin= 3 ErrMin= 1.48D-06
 ErrMax= 1.48D-06  0.00D+00 EMaxC= 1.00D-01 BMatC= 6.61D-10 BMatP= 1.59D-09
 IDIUse=1 WtCom= 1.00D+00 WtEn= 0.00D+00
 Coeff-Com: -0.581D-01 0.442D+00 0.616D+00
 Coeff:     -0.581D-01 0.442D+00 0.616D+00
 Gap=     0.440 Goal=   None    Shift=    0.000
 RMSDP=3.39D-07 MaxDP=8.20D-06 DE=-1.51D-09 OVMax= 6.22D-06

 Cycle  11  Pass 1  IDiag  1:
 E= -154.844750815748     Delta-E=       -0.000000000567 Rises=F Damp=F
 DIIS: error= 3.19D-07 at cycle   4 NSaved=   4.
 NSaved= 4 IEnMin= 4 EnMin= -154.844750815748     IErMin= 4 ErrMin= 3.19D-07
 ErrMax= 3.19D-07  0.00D+00 EMaxC= 1.00D-01 BMatC= 2.68D-11 BMatP= 6.61D-10
 IDIUse=1 WtCom= 1.00D+00 WtEn= 0.00D+00
 Coeff-Com: -0.721D-02 0.247D-01 0.137D+00 0.846D+00
 Coeff:     -0.721D-02 0.247D-01 0.137D+00 0.846D+00
 Gap=     0.440 Goal=   None    Shift=    0.000
 RMSDP=1.04D-07 MaxDP=1.96D-06 DE=-5.67D-10 OVMax= 2.35D-06

 Cycle  12  Pass 1  IDiag  1:
 E= -154.844750815776     Delta-E=       -0.000000000028 Rises=F Damp=F
 DIIS: error= 1.52D-07 at cycle   5 NSaved=   5.
 NSaved= 5 IEnMin= 5 EnMin= -154.844750815776     IErMin= 5 ErrMin= 1.52D-07
 ErrMax= 1.52D-07  0.00D+00 EMaxC= 1.00D-01 BMatC= 7.43D-12 BMatP= 2.68D-11
 IDIUse=1 WtCom= 1.00D+00 WtEn= 0.00D+00
 Coeff-Com:  0.637D-02-0.632D-01-0.476D-01 0.358D+00 0.747D+00
 Coeff:      0.637D-02-0.632D-01-0.476D-01 0.358D+00 0.747D+00
 Gap=     0.440 Goal=   None    Shift=    0.000
 RMSDP=5.13D-08 MaxDP=9.66D-07 DE=-2.80D-11 OVMax= 1.36D-06

 Cycle  13  Pass 1  IDiag  1:
 E= -154.844750815788     Delta-E=       -0.000000000012 Rises=F Damp=F
 DIIS: error= 2.94D-08 at cycle   6 NSaved=   6.
 NSaved= 6 IEnMin= 6 EnMin= -154.844750815788     IErMin= 6 ErrMin= 2.94D-08
 ErrMax= 2.94D-08  0.00D+00 EMaxC= 1.00D-01 BMatC= 1.70D-13 BMatP= 7.43D-12
 IDIUse=1 WtCom= 1.00D+00 WtEn= 0.00D+00
 Coeff-Com:  0.955D-03-0.559D-02-0.157D-01-0.476D-01 0.126D-01 0.106D+01
 Coeff:      0.955D-03-0.559D-02-0.157D-01-0.476D-01 0.126D-01 0.106D+01
 Gap=     0.440 Goal=   None    Shift=    0.000
 RMSDP=1.61D-08 MaxDP=3.05D-07 DE=-1.24D-11 OVMax= 5.72D-07

 Cycle  14  Pass 1  IDiag  1:
 E= -154.844750815786     Delta-E=        0.000000000002 Rises=F Damp=F
 DIIS: error= 7.68D-09 at cycle   7 NSaved=   7.
 NSaved= 7 IEnMin= 6 EnMin= -154.844750815788     IErMin= 7 ErrMin= 7.68D-09
 ErrMax= 7.68D-09  0.00D+00 EMaxC= 1.00D-01 BMatC= 1.04D-14 BMatP= 1.70D-13
 IDIUse=1 WtCom= 1.00D+00 WtEn= 0.00D+00
 Coeff-Com: -0.369D-03 0.383D-02 0.300D-02-0.202D-01-0.465D-01-0.321D-01
 Coeff-Com:  0.109D+01
 Coeff:     -0.369D-03 0.383D-02 0.300D-02-0.202D-01-0.465D-01-0.321D-01
 Coeff:      0.109D+01
 Gap=     0.440 Goal=   None    Shift=    0.000
 RMSDP=4.57D-09 MaxDP=6.99D-08 DE= 1.88D-12 OVMax= 1.70D-07

 SCF Done:  E(RM11) =  -154.844750816     A.U. after   14 cycles
            NFock= 14  Conv=0.46D-08     -V/T= 2.0114
 KE= 1.531033424679D+02 PE=-5.247327250254D+02 EE= 1.348743145775D+02
 Leave Link  502 at Mon Mar 21 20:09:45 2022, MaxMem=  8589934592 cpu:              53.9 elap:               7.1
 (Enter /home/sabyasachi/g16/l801.exe)
 DoSCS=F DFT=T ScalE2(SS,OS)=  1.000000  1.000000
 ExpMin= 6.71D-02 ExpMax= 2.27D+03 ExpMxC= 3.41D+02 IAcc=3 IRadAn=         5 AccDes= 0.00D+00
 HarFok:  IExCor=  205 AccDes= 0.00D+00 IRadAn=         5 IDoV=-2 UseB2=F ITyADJ=14
 ICtDFT= 12500011 ScaDFX=  1.000000  1.000000  1.000000  1.000000
 Largest valence mixing into a core orbital is  7.28D-05
 Largest core mixing into a valence orbital is  1.76D-05
 Range of M.O.s used for correlation:     4   111
 NBasis=   111 NAE=    13 NBE=    13 NFC=     3 NFV=     0
 NROrb=    108 NOA=    10 NOB=    10 NVA=    98 NVB=    98

 **** Warning!!: The largest alpha MO coefficient is  0.21762603D+02

 Leave Link  801 at Mon Mar 21 20:09:45 2022, MaxMem=  8589934592 cpu:               0.5 elap:               0.1
 (Enter /home/sabyasachi/g16/l914.exe)
 RHF ground state
 Keep R1, R2, and R3 ints in memory in canonical form, NReq=1186342972.
 FoFCou: FMM=F IPFlag=           0 FMFlag=           0 FMFlg1=           0
         NFxFlg=           0 DoJE=F BraDBF=F KetDBF=F FulRan=T
         wScrn=  0.000000 ICntrl=       600 IOpCl=  0 I1Cent=           0 NGrid=           0
         NMat0=    1 NMatS0=   6216 NMatT0=    0 NMatD0=    1 NMtDS0=    0 NMtDT0=    0
 Symmetry not used in FoFCou.
 Two-electron integral symmetry not used.
 MDV=  8589934592 DFT=T DoStab=F Mixed=T DoRPA=T DoScal=F NonHer=T
 Making orbital integer symmetry assigments:
 Orbital symmetries:
       Occupied  (A) (A) (A) (A) (A) (A) (A) (A) (A) (A) (A) (A)
                 (A)
       Virtual   (A) (A) (A) (A) (A) (A) (A) (A) (A) (A) (A) (A)
                 (A) (A) (A) (A) (A) (A) (A) (A) (A) (A) (A) (A)
                 (A) (A) (A) (A) (A) (A) (A) (A) (A) (A) (A) (A)
                 (A) (A) (A) (A) (A) (A) (A) (A) (A) (A) (A) (A)
                 (A) (A) (A) (A) (A) (A) (A) (A) (A) (A) (A) (A)
                 (A) (A) (A) (A) (A) (A) (A) (A) (A) (A) (A) (A)
                 (A) (A) (A) (A) (A) (A) (A) (A) (A) (A) (A) (A)
                 (A) (A) (A) (A) (A) (A) (A) (A) (A) (A) (A) (A)
                 (A) (A)
   980 initial guesses have been made.
 Convergence on wavefunction:    0.001000000000000
 Davidson Disk Diagonalization:  ConvIn= 1.00D-03 SkipCon=T Conv= 1.00D-03.
 Max sub-space:  5880 roots to seek:  1960 dimension of matrix:         1960
 *** WARNING: Number of orthogonal guesses is          980
 Iteration     1 Dimension   980 NMult     0 NNew    980
 CISAX will form   980 AO SS matrices at one time.
 NMat=   980 NSing=   980 JSym2X= 0.
 New state      3 was old state      4
 New state      4 was old state      3
 New state      7 was old state      8
 New state      8 was old state      7
 New state      9 was old state     10
 New state     10 was old state      9
 New state     11 was old state     12
 New state     12 was old state     11
 New state     14 was old state     15
 New state     15 was old state     14
 New state     16 was old state     22
 New state     17 was old state     16
 New state     18 was old state     17
 New state     19 was old state     18
 New state     21 was old state     19
 New state     22 was old state     21
 New state     23 was old state     32
 New state     25 was old state     23
 New state     26 was old state     25
 New state     27 was old state     26
 New state     28 was old state     29
 New state     29 was old state     28
 New state     30 was old state     36
 New state     32 was old state     27
 New state     33 was old state     30
 New state     36 was old state     39
 New state     37 was old state     40
 New state     39 was old state     33
 New state     40 was old state     42
 New state     41 was old state     37
 New state     42 was old state     49
 New state     43 was old state     44
 New state     44 was old state     48
 New state     46 was old state     51
 New state     48 was old state     41
 New state     49 was old state     54
 New state     51 was old state     46
 New state     52 was old state     56
 New state     53 was old state     43
 New state     54 was old state     61
 New state     55 was old state     52
 New state     56 was old state     68
 New state     57 was old state     59
 New state     59 was old state     53
 New state     60 was old state     64
 New state     61 was old state     57
 New state     62 was old state     69
 New state     63 was old state     55
 New state     64 was old state     66
 New state     65 was old state     62
 New state     66 was old state     74
 New state     68 was old state     63
 New state     69 was old state     80
 New state     70 was old state     75
 New state     71 was old state     72
 New state     72 was old state     71
 New state     73 was old state     77
 New state     74 was old state     81
 New state     75 was old state     73
 New state     76 was old state     60
 New state     77 was old state     65
 New state     78 was old state     90
 New state     79 was old state     85
 New state     80 was old state     83
 New state     81 was old state     78
 New state     82 was old state     70
 New state     83 was old state     79
 New state     85 was old state     87
 New state     86 was old state     88
 New state     87 was old state     76
 New state     88 was old state     89
 New state     89 was old state     94
 New state     90 was old state     92
 New state     91 was old state     86
 New state     92 was old state     97
 New state     93 was old state    100
 New state     94 was old state     95
 New state     95 was old state     98
 New state     96 was old state     99
 New state     97 was old state     91
 New state     98 was old state    101
 New state     99 was old state     96
 New state    100 was old state    105
 New state    101 was old state    107
 New state    102 was old state     93
 New state    104 was old state    102
 New state    105 was old state    104
 New state    106 was old state    117
 New state    107 was old state    112
 New state    108 was old state    119
 New state    111 was old state    116
 New state    112 was old state    118
 New state    113 was old state    121
 New state    114 was old state    122
 New state    115 was old state    108
 New state    116 was old state    106
 New state    117 was old state    113
 New state    118 was old state    115
 New state    119 was old state    111
 New state    120 was old state    130
 New state    121 was old state    124
 New state    122 was old state    120
 New state    123 was old state    132
 New state    124 was old state    114
 New state    125 was old state    127
 New state    126 was old state    125
 New state    127 was old state    131
 New state    128 was old state    129
 New state    129 was old state    136
 New state    130 was old state    134
 New state    131 was old state    141
 New state    132 was old state    133
 New state    133 was old state    126
 New state    134 was old state    137
 New state    135 was old state    138
 New state    136 was old state    135
 New state    137 was old state    144
 New state    138 was old state    142
 New state    139 was old state    123
 New state    140 was old state    143
 New state    141 was old state    145
 New state    142 was old state    147
 New state    143 was old state    151
 New state    144 was old state    128
 New state    145 was old state    164
 New state    146 was old state    152
 New state    147 was old state    148
 New state    148 was old state    140
 New state    149 was old state    154
 New state    150 was old state    157
 New state    151 was old state    150
 New state    152 was old state    149
 New state    153 was old state    139
 New state    154 was old state    158
 New state    155 was old state    146
 New state    156 was old state    161
 New state    157 was old state    160
 New state    158 was old state    162
 New state    159 was old state    155
 New state    160 was old state    168
 New state    161 was old state    153
 New state    162 was old state    163
 New state    163 was old state    171
 New state    164 was old state    170
 New state    165 was old state    166
 New state    166 was old state    175
 New state    167 was old state    174
 New state    168 was old state    167
 New state    170 was old state    180
 New state    171 was old state    165
 New state    172 was old state    187
 New state    173 was old state    159
 New state    174 was old state    172
 New state    175 was old state    176
 New state    176 was old state    183
 New state    177 was old state    179
 New state    178 was old state    173
 New state    179 was old state    184
 New state    180 was old state    182
 New state    181 was old state    185
 New state    182 was old state    181
 New state    183 was old state    177
 New state    184 was old state    178
 New state    185 was old state    204
 New state    186 was old state    189
 New state    187 was old state    193
 New state    188 was old state    196
 New state    189 was old state    195
 New state    190 was old state    192
 New state    191 was old state    186
 New state    192 was old state    202
 New state    193 was old state    207
 New state    195 was old state    191
 New state    196 was old state    188
 New state    197 was old state    220
 New state    198 was old state    199
 New state    199 was old state    206
 New state    200 was old state    209
 New state    201 was old state    190
 New state    202 was old state    198
 New state    203 was old state    200
 New state    204 was old state    203
 New state    205 was old state    210
 New state    206 was old state    216
 New state    207 was old state    201
 New state    208 was old state    215
 New state    209 was old state    214
 New state    210 was old state    208
 New state    211 was old state    222
 New state    212 was old state    213
 New state    213 was old state    197
 New state    214 was old state    221
 New state    215 was old state    219
 New state    216 was old state    226
 New state    218 was old state    223
 New state    219 was old state    212
 New state    220 was old state    225
 New state    221 was old state    205
 New state    222 was old state    230
 New state    223 was old state    243
 New state    224 was old state    218
 New state    225 was old state    231
 New state    226 was old state    224
 New state    227 was old state    240
 New state    228 was old state    227
 New state    230 was old state    234
 New state    231 was old state    236
 New state    232 was old state    211
 New state    234 was old state    237
 New state    235 was old state    232
 New state    236 was old state    238
 New state    237 was old state    239
 New state    238 was old state    245
 New state    239 was old state    235
 New state    240 was old state    242
 New state    242 was old state    252
 New state    243 was old state    246
 New state    244 was old state    256
 New state    245 was old state    250
 New state    246 was old state    248
 New state    247 was old state    228
 New state    248 was old state    261
 New state    250 was old state    244
 New state    251 was old state    247
 New state    252 was old state    260
 New state    253 was old state    258
 New state    254 was old state    255
 New state    255 was old state    259
 New state    256 was old state    272
 New state    257 was old state    254
 New state    258 was old state    257
 New state    259 was old state    264
 New state    260 was old state    266
 New state    261 was old state    270
 New state    263 was old state    293
 New state    264 was old state    265
 New state    265 was old state    253
 New state    266 was old state    263
 New state    268 was old state    271
 New state    269 was old state    280
 New state    270 was old state    273
 New state    271 was old state    276
 New state    272 was old state    275
 New state    273 was old state    269
 New state    274 was old state    268
 New state    275 was old state    277
 New state    276 was old state    279
 New state    277 was old state    288
 New state    278 was old state    305
 New state    279 was old state    274
 New state    280 was old state    285
 New state    282 was old state    287
 New state    283 was old state    289
 New state    284 was old state    278
 New state    285 was old state    291
 New state    287 was old state    311
 New state    288 was old state    283
 New state    289 was old state    290
 New state    290 was old state    282
 New state    291 was old state    295
 New state    292 was old state    301
 New state    293 was old state    298
 New state    294 was old state    292
 New state    295 was old state    284
 New state    298 was old state    303
 New state    299 was old state    309
 New state    300 was old state    299
 New state    301 was old state    302
 New state    302 was old state    304
 New state    303 was old state    324
 New state    304 was old state    306
 New state    305 was old state    300
 New state    306 was old state    307
 New state    307 was old state    294
 New state    308 was old state    325
 New state    309 was old state    337
 New state    310 was old state    313
 New state    311 was old state    320
 New state    312 was old state    318
 New state    313 was old state    316
 New state    314 was old state    308
 New state    315 was old state    330
 New state    316 was old state    312
 New state    317 was old state    338
 New state    318 was old state    317
 New state    319 was old state    314
 New state    320 was old state    319
 New state    321 was old state    310
 New state    322 was old state    331
 New state    323 was old state    329
 New state    324 was old state    315
 New state    325 was old state    326
 New state    326 was old state    328
 New state    327 was old state    321
 New state    328 was old state    322
 New state    329 was old state    332
 New state    330 was old state    323
 New state    331 was old state    341
 New state    332 was old state    327
 New state    333 was old state    339
 New state    334 was old state    333
 New state    335 was old state    342
 New state    337 was old state    335
 New state    338 was old state    354
 New state    339 was old state    349
 New state    341 was old state    334
 New state    342 was old state    350
 New state    343 was old state    361
 New state    344 was old state    351
 New state    345 was old state    344
 New state    346 was old state    345
 New state    348 was old state    343
 New state    349 was old state    364
 New state    350 was old state    346
 New state    351 was old state    348
 New state    352 was old state    355
 New state    353 was old state    357
 New state    354 was old state    353
 New state    355 was old state    352
 New state    356 was old state    358
 New state    357 was old state    360
 New state    358 was old state    376
 New state    359 was old state    362
 New state    360 was old state    368
 New state    361 was old state    363
 New state    362 was old state    369
 New state    363 was old state    365
 New state    364 was old state    366
 New state    365 was old state    356
 New state    366 was old state    370
 New state    367 was old state    372
 New state    368 was old state    371
 New state    369 was old state    373
 New state    370 was old state    374
 New state    371 was old state    367
 New state    372 was old state    359
 New state    373 was old state    377
 New state    374 was old state    379
 New state    376 was old state    386
 New state    377 was old state    378
 New state    378 was old state    382
 New state    379 was old state    380
 New state    380 was old state    383
 New state    381 was old state    389
 New state    382 was old state    384
 New state    383 was old state    388
 New state    384 was old state    390
 New state    385 was old state    387
 New state    386 was old state    381
 New state    387 was old state    393
 New state    388 was old state    392
 New state    389 was old state    396
 New state    390 was old state    385
 New state    391 was old state    397
 New state    392 was old state    407
 New state    393 was old state    395
 New state    394 was old state    406
 New state    395 was old state    405
 New state    396 was old state    400
 New state    397 was old state    391
 New state    398 was old state    408
 New state    399 was old state    401
 New state    400 was old state    414
 New state    401 was old state    402
 New state    402 was old state    426
 New state    403 was old state    409
 New state    404 was old state    399
 New state    405 was old state    404
 New state    406 was old state    394
 New state    407 was old state    410
 New state    408 was old state    412
 New state    409 was old state    416
 New state    410 was old state    398
 New state    411 was old state    440
 New state    412 was old state    422
 New state    414 was old state    403
 New state    415 was old state    428
 New state    416 was old state    411
 New state    417 was old state    419
 New state    418 was old state    417
 New state    419 was old state    421
 New state    420 was old state    423
 New state    421 was old state    418
 New state    422 was old state    420
 New state    423 was old state    425
 New state    424 was old state    429
 New state    425 was old state    415
 New state    426 was old state    432
 New state    428 was old state    431
 New state    429 was old state    430
 New state    430 was old state    435
 New state    431 was old state    424
 New state    432 was old state    433
 New state    433 was old state    438
 New state    434 was old state    444
 New state    435 was old state    442
 New state    436 was old state    443
 New state    437 was old state    446
 New state    438 was old state    436
 New state    439 was old state    453
 New state    440 was old state    434
 New state    441 was old state    450
 New state    442 was old state    457
 New state    443 was old state    458
 New state    444 was old state    437
 New state    445 was old state    449
 New state    446 was old state    441
 New state    447 was old state    452
 New state    448 was old state    447
 New state    449 was old state    439
 New state    450 was old state    448
 New state    451 was old state    466
 New state    452 was old state    445
 New state    453 was old state    454
 New state    454 was old state    455
 New state    455 was old state    460
 New state    456 was old state    464
 New state    457 was old state    461
 New state    458 was old state    465
 New state    459 was old state    456
 New state    460 was old state    451
 New state    461 was old state    473
 New state    462 was old state    463
 New state    463 was old state    481
 New state    464 was old state    469
 New state    465 was old state    475
 New state    466 was old state    459
 New state    467 was old state    486
 New state    468 was old state    470
 New state    469 was old state    482
 New state    470 was old state    472
 New state    471 was old state    477
 New state    472 was old state    467
 New state    473 was old state    462
 New state    474 was old state    471
 New state    475 was old state    484
 New state    476 was old state    468
 New state    477 was old state    479
 New state    479 was old state    485
 New state    480 was old state    488
 New state    481 was old state    490
 New state    482 was old state    476
 New state    483 was old state    498
 New state    484 was old state    509
 New state    485 was old state    494
 New state    486 was old state    497
 New state    487 was old state    474
 New state    488 was old state    506
 New state    489 was old state    480
 New state    490 was old state    495
 New state    491 was old state    492
 New state    492 was old state    487
 New state    493 was old state    499
 New state    494 was old state    483
 New state    495 was old state    504
 New state    496 was old state    493
 New state    497 was old state    489
 New state    498 was old state    505
 New state    499 was old state    507
 New state    500 was old state    502
 New state    501 was old state    491
 New state    502 was old state    519
 New state    503 was old state    508
 New state    504 was old state    496
 New state    505 was old state    512
 New state    506 was old state    515
 New state    507 was old state    501
 New state    508 was old state    500
 New state    509 was old state    514
 New state    510 was old state    520
 New state    511 was old state    510
 New state    512 was old state    516
 New state    513 was old state    503
 New state    514 was old state    511
 New state    515 was old state    524
 New state    516 was old state    517
 New state    517 was old state    529
 New state    518 was old state    513
 New state    519 was old state    526
 New state    520 was old state    521
 New state    521 was old state    531
 New state    522 was old state    536
 New state    524 was old state    528
 New state    525 was old state    527
 New state    526 was old state    522
 New state    527 was old state    532
 New state    528 was old state    534
 New state    529 was old state    530
 New state    530 was old state    533
 New state    531 was old state    518
 New state    532 was old state    535
 New state    533 was old state    549
 New state    534 was old state    539
 New state    535 was old state    541
 New state    536 was old state    537
 New state    537 was old state    525
 New state    538 was old state    548
 New state    539 was old state    542
 New state    540 was old state    545
 New state    541 was old state    540
 New state    542 was old state    543
 New state    543 was old state    538
 New state    544 was old state    546
 New state    545 was old state    550
 New state    546 was old state    551
 New state    547 was old state    557
 New state    548 was old state    547
 New state    549 was old state    544
 New state    550 was old state    554
 New state    551 was old state    553
 New state    552 was old state    556
 New state    553 was old state    558
 New state    554 was old state    555
 New state    555 was old state    552
 New state    556 was old state    560
 New state    557 was old state    559
 New state    558 was old state    572
 New state    559 was old state    575
 New state    560 was old state    566
 New state    561 was old state    563
 New state    563 was old state    565
 New state    564 was old state    567
 New state    565 was old state    561
 New state    566 was old state    564
 New state    567 was old state    568
 New state    568 was old state    570
 New state    570 was old state    571
 New state    571 was old state    573
 New state    572 was old state    574
 New state    573 was old state    577
 New state    574 was old state    585
 New state    575 was old state    581
 New state    577 was old state    587
 New state    578 was old state    580
 New state    579 was old state    582
 New state    580 was old state    579
 New state    581 was old state    578
 New state    582 was old state    583
 New state    583 was old state    584
 New state    584 was old state    590
 New state    585 was old state    593
 New state    586 was old state    589
 New state    587 was old state    586
 New state    588 was old state    591
 New state    589 was old state    588
 New state    590 was old state    601
 No map to state    591
 New state    593 was old state    594
 New state    594 was old state    596
 New state    595 was old state    600
 New state    596 was old state    595
 New state    597 was old state    620
 New state    598 was old state    603
 New state    600 was old state    602
 New state    601 was old state    598
 New state    602 was old state    597
 New state    603 was old state    607
 New state    604 was old state    608
 New state    605 was old state    606
 New state    606 was old state    604
 New state    607 was old state    610
 New state    608 was old state    605
 New state    610 was old state    613
 New state    612 was old state    624
 New state    613 was old state    616
 New state    614 was old state    619
 New state    615 was old state    612
 New state    616 was old state    618
 New state    617 was old state    615
 New state    618 was old state    625
 New state    619 was old state    622
 New state    620 was old state    617
 New state    621 was old state    634
 New state    622 was old state    623
 New state    623 was old state    629
 New state    624 was old state    632
 New state    625 was old state    628
 New state    626 was old state    621
 New state    627 was old state    630
 New state    628 was old state    614
 New state    629 was old state    627
 New state    630 was old state    626
 New state    631 was old state    637
 New state    632 was old state    631
 New state    633 was old state    644
 New state    634 was old state    635
 New state    635 was old state    638
 New state    637 was old state    641
 New state    638 was old state    633
 New state    639 was old state    640
 New state    640 was old state    648
 New state    641 was old state    643
 New state    643 was old state    649
 New state    644 was old state    645
 New state    645 was old state    647
 New state    646 was old state    639
 New state    647 was old state    646
 New state    648 was old state    654
 New state    649 was old state    663
 New state    650 was old state    651
 New state    651 was old state    662
 New state    653 was old state    655
 New state    654 was old state    658
 New state    655 was old state    650
 New state    656 was old state    657
 New state    657 was old state    653
 New state    658 was old state    659
 New state    659 was old state    660
 New state    660 was old state    664
 New state    661 was old state    665
 New state    662 was old state    656
 New state    663 was old state    667
 New state    664 was old state    668
 New state    665 was old state    661
 New state    667 was old state    669
 New state    668 was old state    674
 New state    669 was old state    671
 New state    670 was old state    679
 New state    671 was old state    673
 New state    672 was old state    677
 New state    673 was old state    672
 New state    674 was old state    676
 New state    676 was old state    678
 New state    677 was old state    681
 New state    678 was old state    670
 New state    679 was old state    680
 New state    680 was old state    683
 New state    681 was old state    692
 New state    682 was old state    684
 New state    683 was old state    690
 New state    684 was old state    688
 New state    685 was old state    689
 New state    687 was old state    682
 New state    688 was old state    700
 New state    689 was old state    685
 New state    690 was old state    703
 New state    691 was old state    687
 New state    692 was old state    698
 New state    693 was old state    696
 New state    694 was old state    693
 New state    696 was old state    691
 New state    697 was old state    694
 New state    698 was old state    701
 New state    699 was old state    707
 New state    700 was old state    699
 New state    701 was old state    710
 New state    703 was old state    697
 New state    704 was old state    706
 New state    705 was old state    708
 New state    706 was old state    714
 New state    707 was old state    704
 New state    708 was old state    709
 New state    709 was old state    705
 New state    710 was old state    711
 New state    711 was old state    717
 New state    713 was old state    716
 New state    714 was old state    720
 New state    715 was old state    713
 New state    716 was old state    715
 New state    717 was old state    721
 New state    718 was old state    719
 New state    719 was old state    727
 New state    720 was old state    718
 New state    721 was old state    726
 New state    722 was old state    723
 New state    723 was old state    722
 New state    725 was old state    729
 New state    726 was old state    725
 New state    727 was old state    730
 New state    728 was old state    731
 New state    729 was old state    728
 New state    730 was old state    742
 New state    731 was old state    733
 New state    733 was old state    736
 New state    734 was old state    735
 New state    735 was old state    739
 New state    736 was old state    750
 New state    737 was old state    738
 New state    738 was old state    734
 New state    739 was old state    745
 New state    740 was old state    737
 New state    741 was old state    743
 New state    742 was old state    748
 New state    743 was old state    746
 New state    744 was old state    755
 New state    745 was old state    741
 New state    746 was old state    740
 New state    747 was old state    753
 New state    748 was old state    747
 New state    749 was old state    744
 New state    750 was old state    749
 New state    752 was old state    756
 New state    753 was old state    754
 New state    754 was old state    758
 New state    755 was old state    761
 New state    756 was old state    752
 New state    757 was old state    759
 New state    758 was old state    757
 New state    759 was old state    764
 New state    760 was old state    775
 New state    761 was old state    770
 New state    762 was old state    767
 New state    763 was old state    762
 New state    764 was old state    760
 New state    767 was old state    768
 New state    768 was old state    771
 New state    769 was old state    772
 New state    770 was old state    763
 New state    771 was old state    776
 New state    772 was old state    769
 New state    774 was old state    778
 New state    775 was old state    777
 New state    776 was old state    780
 New state    777 was old state    774
 New state    778 was old state    789
 New state    779 was old state    792
 New state    780 was old state    785
 New state    781 was old state    783
 New state    782 was old state    784
 New state    783 was old state    779
 New state    784 was old state    787
 New state    785 was old state    788
 New state    787 was old state    781
 New state    788 was old state    782
 New state    789 was old state    790
 New state    790 was old state    791
 New state    791 was old state    797
 New state    792 was old state    799
 New state    793 was old state    794
 New state    794 was old state    793
 New state    795 was old state    796
 New state    796 was old state    798
 New state    797 was old state    800
 New state    798 was old state    802
 No map to state    799
 New state    800 was old state    801
 New state    801 was old state    803
 New state    802 was old state    804
 New state    803 was old state    806
 New state    804 was old state    795
 New state    805 was old state    807
 New state    806 was old state    810
 New state    807 was old state    805
 New state    808 was old state    811
 New state    809 was old state    808
 New state    810 was old state    813
 New state    811 was old state    809
 New state    813 was old state    814
 New state    814 was old state    816
 New state    816 was old state    817
 New state    817 was old state    818
 New state    818 was old state    821
 New state    819 was old state    820
 New state    820 was old state    822
 New state    821 was old state    819
 New state    822 was old state    823
 New state    823 was old state    825
 New state    824 was old state    832
 New state    825 was old state    826
 New state    826 was old state    828
 New state    827 was old state    831
 New state    828 was old state    824
 New state    829 was old state    827
 New state    830 was old state    829
 New state    831 was old state    835
 New state    832 was old state    834
 New state    833 was old state    837
 New state    834 was old state    833
 New state    835 was old state    838
 New state    836 was old state    850
 New state    837 was old state    836
 New state    838 was old state    844
 New state    839 was old state    841
 New state    840 was old state    839
 New state    841 was old state    845
 New state    844 was old state    840
 New state    845 was old state    846
 New state    846 was old state    847
 New state    847 was old state    849
 New state    849 was old state    851
 New state    850 was old state    855
 New state    851 was old state    854
 New state    852 was old state    853
 No map to state    853
 New state    854 was old state    859
 New state    855 was old state    856
 New state    856 was old state    858
 New state    857 was old state    852
 New state    858 was old state    857
 New state    859 was old state    860
 New state    860 was old state    864
 New state    861 was old state    867
 New state    862 was old state    863
 New state    863 was old state    862
 New state    864 was old state    861
 New state    867 was old state    869
 New state    869 was old state    878
 New state    873 was old state    879
 New state    874 was old state    873
 New state    875 was old state    877
 New state    876 was old state    875
 New state    877 was old state    876
 New state    878 was old state    885
 New state    879 was old state    880
 New state    880 was old state    883
 New state    881 was old state    874
 New state    882 was old state    881
 New state    883 was old state    884
 New state    884 was old state    882
 New state    885 was old state    886
 New state    886 was old state    889
 New state    887 was old state    895
 New state    889 was old state    890
 New state    890 was old state    894
 New state    891 was old state    898
 New state    892 was old state    887
 New state    894 was old state    891
 New state    895 was old state    896
 New state    896 was old state    892
 New state    897 was old state    899
 New state    898 was old state    900
 New state    899 was old state    903
 New state    900 was old state    897
 New state    901 was old state    902
 New state    902 was old state    906
 New state    903 was old state    901
 New state    904 was old state    905
 New state    905 was old state    914
 New state    906 was old state    904
 New state    907 was old state    916
 New state    908 was old state    907
 New state    909 was old state    908
 New state    911 was old state    909
 New state    912 was old state    915
 New state    913 was old state    911
 New state    914 was old state    913
 New state    915 was old state    912
 New state    916 was old state    926
 New state    918 was old state    923
 New state    920 was old state    921
 New state    921 was old state    920
 New state    922 was old state    918
 New state    923 was old state    932
 New state    924 was old state    925
 New state    925 was old state    927
 New state    926 was old state    924
 New state    927 was old state    928
 New state    928 was old state    929
 New state    929 was old state    931
 New state    930 was old state    934
 New state    931 was old state    930
 New state    932 was old state    933
 New state    933 was old state    943
 New state    934 was old state    938
 New state    936 was old state    939
 New state    937 was old state    936
 New state    938 was old state    937
 New state    939 was old state    941
 New state    941 was old state    942
 New state    942 was old state    945
 New state    943 was old state    944
 New state    944 was old state    946
 New state    945 was old state    947
 New state    946 was old state    948
 New state    947 was old state    949
 New state    948 was old state    955
 New state    949 was old state    953
 New state    953 was old state    956
 New state    955 was old state    961
 New state    956 was old state    960
 New state    957 was old state    958
 New state    958 was old state    957
 New state    959 was old state    962
 New state    960 was old state    959
 New state    961 was old state    968
 New state    962 was old state    965
 New state    963 was old state    967
 New state    964 was old state    963
 New state    965 was old state    964
 New state    967 was old state    972
 New state    968 was old state    969
 No map to state    969
 No map to state    971
 New state    972 was old state    971
 Excitation Energies [eV] at current iteration:
 Root      1 :     7.047718367143823
 Root      2 :     8.242370213364131
 Root      3 :     8.595780914407786
 Root      4 :     8.766674832237767
 Root      5 :     8.949306624820045
 Root      6 :     9.391883965395623
 Root      7 :     9.741434998202921
 Root      8 :     9.853234917922538
 Root      9 :     9.975901734190449
 Root     10 :    10.035870319694500
 Root     11 :    10.283241926182490
 Root     12 :    10.350019965509180
 Root     13 :    10.473895149831090
 Root     14 :    10.769604444589820
 Root     15 :    10.829280265878360
 Root     16 :    10.946624791436830
 Root     17 :    11.019317129857120
 Root     18 :    11.074359943177720
 Root     19 :    11.135360845199930
 Root     20 :    11.260007019341820
 Root     21 :    11.382712691988100
 Root     22 :    11.504984472111970
 Root     23 :    11.649296645674560
 Root     24 :    11.721888848513220
 Root     25 :    11.792758693291260
 Root     26 :    11.966727198299310
 Root     27 :    12.044685451110380
 Root     28 :    12.077779705927180
 Root     29 :    12.097518741152070
 Root     30 :    12.181047126723850
 Root     31 :    12.376164996112830
 Root     32 :    12.401566131757330
 Root     33 :    12.494215359479800
 Root     34 :    12.558479996027620
 Root     35 :    12.623138042169550
 Root     36 :    12.632819702577600
 Root     37 :    12.698908350270350
 Root     38 :    12.780947574548870
 Root     39 :    12.826311425401540
 Root     40 :    12.885324601638020
 Root     41 :    12.973680608051520
 Root     42 :    13.026708752242620
 Root     43 :    13.124301373638790
 Root     44 :    13.154626221706120
 Root     45 :    13.177431510773220
 Root     46 :    13.301442145316450
 Root     47 :    13.370145874095130
 Root     48 :    13.469435825978070
 Root     49 :    13.536878254776710
 Root     50 :    13.570480613206290
 Root     51 :    13.692281400855490
 Root     52 :    13.745287793860410
 Root     53 :    13.815141777601050
 Root     54 :    13.880079463264180
 Root     55 :    13.904085462645440
 Root     56 :    14.012778779657720
 Root     57 :    14.022336683041180
 Root     58 :    14.095703346272340
 Root     59 :    14.159823548604510
 Root     60 :    14.291028478870950
 Root     61 :    14.355584467131730
 Root     62 :    14.380837040980430
 Root     63 :    14.428993921815330
 Root     64 :    14.491713535125800
 Root     65 :    14.570572785818710
 Root     66 :    14.603870420933300
 Root     67 :    14.642006928605010
 Root     68 :    14.749814719410620
 Root     69 :    14.813554408250640
 Root     70 :    14.888017059488310
 Root     71 :    14.970751657950920
 Root     72 :    15.066321249136440
 Root     73 :    15.086600777278540
 Root     74 :    15.109789200352620
 Root     75 :    15.128268057624760
 Root     76 :    15.276287308657760
 Root     77 :    15.292332718757960
 Root     78 :    15.326014301411400
 Root     79 :    15.364434829284510
 Root     80 :    15.442893145600340
 Root     81 :    15.466091813514850
 Root     82 :    15.502856599987470
 Root     83 :    15.512411569099230
 Root     84 :    15.603184629106360
 Root     85 :    15.656057406043720
 Root     86 :    15.713545314615710
 Root     87 :    15.749302193847160
 Root     88 :    15.835299190467450
 Root     89 :    15.897899052326790
 Root     90 :    15.993484192054490
 Root     91 :    16.022026159653950
 Root     92 :    16.068681643130080
 Root     93 :    16.104636215959140
 Root     94 :    16.140467727498750
 Root     95 :    16.192736950647320
 Root     96 :    16.232080863959800
 Root     97 :    16.291021127259200
 Root     98 :    16.360765759086880
 Root     99 :    16.410714437961040
 Root    100 :    16.472907878081280
 Root    101 :    16.509176883006790
 Root    102 :    16.613275064775290
 Root    103 :    16.681043574772350
 Root    104 :    16.697005730118640
 Root    105 :    16.728285710150820
 Root    106 :    16.797291175481830
 Root    107 :    16.823390048759520
 Root    108 :    16.866374311739520
 Root    109 :    16.955352385899170
 Root    110 :    16.994026222008660
 Root    111 :    17.054106219195610
 Root    112 :    17.059208699733980
 Root    113 :    17.142881834908730
 Root    114 :    17.182460698023280
 Root    115 :    17.228354023532880
 Root    116 :    17.261384688752230
 Root    117 :    17.300433915723860
 Root    118 :    17.333514842796740
 Root    119 :    17.368623899058990
 Root    120 :    17.415599132720610
 Root    121 :    17.462459235612600
 Root    122 :    17.499309284567940
 Root    123 :    17.525377780799960
 Root    124 :    17.560491903392160
 Root    125 :    17.636723473755330
 Root    126 :    17.674466291722360
 Root    127 :    17.734511342783590
 Root    128 :    17.783755191819270
 Root    129 :    17.884017759839790
 Root    130 :    17.941225397985670
 Root    131 :    17.961886000940040
 Root    132 :    18.024107326201400
 Root    133 :    18.077675317843010
 Root    134 :    18.097872111991080
 Root    135 :    18.129460049538360
 Root    136 :    18.160771664609080
 Root    137 :    18.195302371971180
 Root    138 :    18.218310626296900
 Root    139 :    18.262389319661980
 Root    140 :    18.308547365116900
 Root    141 :    18.379922591819670
 Root    142 :    18.421579287102030
 Root    143 :    18.453691343422820
 Root    144 :    18.485467959718470
 Root    145 :    18.534838719182150
 Root    146 :    18.589393657095300
 Root    147 :    18.602671850783710
 Root    148 :    18.663643888925190
 Root    149 :    18.707694099886280
 Root    150 :    18.718843011259060
 Root    151 :    18.774739947571260
 Root    152 :    18.801386883301940
 Root    153 :    18.840201986380020
 Root    154 :    18.892549140769840
 Root    155 :    18.986395114313790
 Root    156 :    19.001492150269050
 Root    157 :    19.016786076133610
 Root    158 :    19.100608682627780
 Root    159 :    19.103488070928800
 Root    160 :    19.163140526991850
 Root    161 :    19.207746299690830
 Root    162 :    19.263501895880800
 Root    163 :    19.310670089156350
 Root    164 :    19.421736767595430
 Root    165 :    19.457462637740780
 Root    166 :    19.470971250461630
 Root    167 :    19.534778093877050
 Root    168 :    19.568868955892640
 Root    169 :    19.595049988008700
 Root    170 :    19.653254512876360
 Root    171 :    19.686423245084910
 Root    172 :    19.727568133347970
 Root    173 :    19.756841948464930
 Root    174 :    19.766227942634490
 Root    175 :    19.859955255830120
 Root    176 :    19.885878317689400
 Root    177 :    19.920255718431370
 Root    178 :    19.926731229161670
 Root    179 :    19.987369730879760
 Root    180 :    19.996894933667660
 Root    181 :    20.095966398991500
 Root    182 :    20.108969991867610
 Root    183 :    20.154654432784850
 Root    184 :    20.196069340822460
 Root    185 :    20.199460104508110
 Root    186 :    20.299335650943210
 Root    187 :    20.311521694971340
 Root    188 :    20.332733268581220
 Root    189 :    20.440938281461770
 Root    190 :    20.446217194602960
 Root    191 :    20.484419157183870
 Root    192 :    20.554379296771040
 Root    193 :    20.573200892801080
 Root    194 :    20.618823650596750
 Root    195 :    20.656162159169360
 Root    196 :    20.718025479713060
 Root    197 :    20.724651431024200
 Root    198 :    20.749691258857340
 Root    199 :    20.818675516734390
 Root    200 :    20.834867404335560
 Root    201 :    20.864550438329200
 Root    202 :    20.892285900069350
 Root    203 :    20.914715959181870
 Root    204 :    20.948170756826280
 Root    205 :    20.974394949119370
 Root    206 :    21.031011013044560
 Root    207 :    21.068413066909720
 Root    208 :    21.143375263703780
 Root    209 :    21.182412808453450
 Root    210 :    21.206861071842510
 Root    211 :    21.218059323588150
 Root    212 :    21.263299461325990
 Root    213 :    21.304243521253640
 Root    214 :    21.350327656531790
 Root    215 :    21.387464280985600
 Root    216 :    21.429246943926610
 Root    217 :    21.453140714372520
 Root    218 :    21.557718161549720
 Root    219 :    21.567162446360720
 Root    220 :    21.594486187840270
 Root    221 :    21.657371408574940
 Root    222 :    21.692634012249600
 Root    223 :    21.716083407439130
 Root    224 :    21.741275072879970
 Root    225 :    21.772150118069620
 Root    226 :    21.807104395886070
 Root    227 :    21.856975286439240
 Root    228 :    21.880143313316560
 Root    229 :    21.936893999747140
 Root    230 :    21.959261535901520
 Root    231 :    21.989480443815320
 Root    232 :    22.053450877857550
 Root    233 :    22.090262780409260
 Root    234 :    22.107763699154010
 Root    235 :    22.139552352335400
 Root    236 :    22.194948336481350
 Root    237 :    22.226179253624700
 Root    238 :    22.258983147306910
 Root    239 :    22.329171662449150
 Root    240 :    22.394659933338890
 Root    241 :    22.417518127461750
 Root    242 :    22.452134065615500
 Root    243 :    22.505579322442400
 Root    244 :    22.552317573872350
 Root    245 :    22.580036796353670
 Root    246 :    22.597573922437650
 Root    247 :    22.640125904320730
 Root    248 :    22.672713812187380
 Root    249 :    22.673935647389750
 Root    250 :    22.788999715953260
 Root    251 :    22.820180117526340
 Root    252 :    22.860419087945870
 Root    253 :    22.944391088188730
 Root    254 :    22.959674933520090
 Root    255 :    22.995288460407560
 Root    256 :    23.004888589877400
 Root    257 :    23.102044651226370
 Root    258 :    23.132804326916580
 Root    259 :    23.151022533945170
 Root    260 :    23.175466008813150
 Root    261 :    23.229172106877580
 Root    262 :    23.289446866636630
 Root    263 :    23.345255118710470
 Root    264 :    23.370594297962870
 Root    265 :    23.398672228493870
 Root    266 :    23.466209048552610
 Root    267 :    23.490312389983590
 Root    268 :    23.525406964277050
 Root    269 :    23.572851848532990
 Root    270 :    23.584856438503080
 Root    271 :    23.620847663067260
 Root    272 :    23.690504971645980
 Root    273 :    23.743922108058860
 Root    274 :    23.782712861494900
 Root    275 :    23.795498576688680
 Root    276 :    23.867158841230070
 Root    277 :    23.894214610049560
 Root    278 :    23.972211696783450
 Root    279 :    24.012362872588830
 Root    280 :    24.081661718066630
 Root    281 :    24.157720810715990
 Root    282 :    24.170328240090760
 Root    283 :    24.231470488672140
 Root    284 :    24.253393852314470
 Root    285 :    24.290523464093060
 Root    286 :    24.330256489736320
 Root    287 :    24.348859323912510
 Root    288 :    24.362086720662210
 Root    289 :    24.386601587147300
 Root    290 :    24.499595043917440
 Root    291 :    24.514778789463650
 Root    292 :    24.538070626412390
 Root    293 :    24.554290737808280
 Root    294 :    24.659554115369250
 Root    295 :    24.667962672462470
 Root    296 :    24.701216638505060
 Root    297 :    24.756384062579680
 Root    298 :    24.793255940374640
 Root    299 :    24.880146214128230
 Root    300 :    24.935180285120940
 Root    301 :    24.951675004120830
 Root    302 :    25.023566078696810
 Root    303 :    25.033909058488390
 Root    304 :    25.129787159419430
 Root    305 :    25.191818445502290
 Root    306 :    25.207898390390200
 Root    307 :    25.238389616267450
 Root    308 :    25.330128354819060
 Root    309 :    25.418587605557600
 Root    310 :    25.521801541058970
 Root    311 :    25.550564333138040
 Root    312 :    25.600325141863700
 Root    313 :    25.622665554179100
 Root    314 :    25.719101705001190
 Root    315 :    25.735400162252120
 Root    316 :    25.755182187717740
 Root    317 :    25.847208362428800
 Root    318 :    25.875979579110960
 Root    319 :    25.897083681675600
 Root    320 :    25.978894520155430
 Root    321 :    26.022027883001840
 Root    322 :    26.052063355654650
 Root    323 :    26.124512128349280
 Root    324 :    26.165445117541150
 Root    325 :    26.214647894176070
 Root    326 :    26.283717056685960
 Root    327 :    26.290238560772190
 Root    328 :    26.334235221245580
 Root    329 :    26.377273488246090
 Root    330 :    26.444393434059550
 Root    331 :    26.501377685790710
 Root    332 :    26.546317590088140
 Root    333 :    26.604693327273580
 Root    334 :    26.664129251095420
 Root    335 :    26.782383718513910
 Root    336 :    26.824818178352780
 Root    337 :    26.856432836252550
 Root    338 :    26.962576095501240
 Root    339 :    26.997209560866020
 Root    340 :    27.055730932317260
 Root    341 :    27.189895236709520
 Root    342 :    27.274153297867920
 Root    343 :    27.318642918478170
 Root    344 :    27.368335918470740
 Root    345 :    27.507037608176930
 Root    346 :    27.533296952848250
 Root    347 :    27.572668976729950
 Root    348 :    27.604973065360130
 Root    349 :    27.652944429361070
 Root    350 :    27.733554262955410
 Root    351 :    27.790220499032420
 Root    352 :    27.965457300410440
 Root    353 :    28.087588526899680
 Root    354 :    28.143812625776280
 Root    355 :    28.180758371152500
 Root    356 :    28.249117390128720
 Root    357 :    28.301263281445690
 Root    358 :    28.337521402049150
 Root    359 :    28.412086054638710
 Root    360 :    28.490245369286170
 Root    361 :    28.661515003545660
 Root    362 :    28.710112561499290
 Root    363 :    28.748864364136140
 Root    364 :    28.805173435968460
 Root    365 :    28.831007485945250
 Root    366 :    28.914568374489700
 Root    367 :    28.975915256755890
 Root    368 :    29.087507557224360
 Root    369 :    29.134081138253180
 Root    370 :    29.166022352845950
 Root    371 :    29.195620410219760
 Root    372 :    29.266360539916100
 Root    373 :    29.302010326285520
 Root    374 :    29.382680412271950
 Root    375 :    29.459331245468510
 Root    376 :    29.473013273058910
 Root    377 :    29.497822275815010
 Root    378 :    29.594247113840230
 Root    379 :    29.639306790022610
 Root    380 :    29.688738056797490
 Root    381 :    29.756527710960340
 Root    382 :    29.819468974310210
 Root    383 :    29.905562551693180
 Root    384 :    30.007102868134780
 Root    385 :    30.049770781684430
 Root    386 :    30.213193237810230
 Root    387 :    30.248756530595730
 Root    388 :    30.308131787714690
 Root    389 :    30.418474754004130
 Root    390 :    30.474549345298740
 Root    391 :    30.521207358564180
 Root    392 :    30.630993383235180
 Root    393 :    30.671195107552390
 Root    394 :    30.786411878352290
 Root    395 :    30.837936773398170
 Root    396 :    30.942711336378300
 Root    397 :    30.961919854350050
 Root    398 :    31.019809987526650
 Root    399 :    31.052340362488430
 Root    400 :    31.104920102673130
 Root    401 :    31.159036892631170
 Root    402 :    31.193885537498240
 Root    403 :    31.291610002228210
 Root    404 :    31.325532361535420
 Root    405 :    31.420114034984000
 Root    406 :    31.492747100457570
 Root    407 :    31.543635079542280
 Root    408 :    31.596523512615600
 Root    409 :    31.668499388150530
 Root    410 :    31.678270182104730
 Root    411 :    31.718094395505530
 Root    412 :    31.756960072148260
 Root    413 :    31.838732541686020
 Root    414 :    31.882498995753490
 Root    415 :    31.983986669996650
 Root    416 :    32.159374280923900
 Root    417 :    32.206036873653030
 Root    418 :    32.219416598740590
 Root    419 :    32.301322883535460
 Root    420 :    32.423983853598780
 Root    421 :    32.526490368707930
 Root    422 :    32.589287228237810
 Root    423 :    32.677953261553190
 Root    424 :    32.683977927988020
 Root    425 :    32.855184874514760
 Root    426 :    32.933867389046060
 Root    427 :    33.068663625947390
 Root    428 :    33.123689969449740
 Root    429 :    33.231264834917070
 Root    430 :    33.303309957057240
 Root    431 :    33.400096913514850
 Root    432 :    33.492233846038540
 Root    433 :    33.564465543880230
 Root    434 :    33.650686903519610
 Root    435 :    33.723184092823910
 Root    436 :    33.763884310249970
 Root    437 :    33.826470848047680
 Root    438 :    33.889377372312790
 Root    439 :    33.923251355129190
 Root    440 :    34.030176474944970
 Root    441 :    34.074068018140490
 Root    442 :    34.115598135402620
 Root    443 :    34.235019395155710
 Root    444 :    34.353996772750850
 Root    445 :    34.375731698641050
 Root    446 :    34.458760415053040
 Root    447 :    34.556176792813430
 Root    448 :    34.577320320579550
 Root    449 :    34.623970236682180
 Root    450 :    34.674157914516000
 Root    451 :    34.777395447852320
 Root    452 :    34.869307536829620
 Root    453 :    34.917490329326590
 Root    454 :    34.945843886312230
 Root    455 :    35.057886098566480
 Root    456 :    35.159628464693870
 Root    457 :    35.235638192010290
 Root    458 :    35.297765183544910
 Root    459 :    35.389844465720760
 Root    460 :    35.412206273120740
 Root    461 :    35.493525487229320
 Root    462 :    35.565952813314320
 Root    463 :    35.699055926264350
 Root    464 :    35.704957881300360
 Root    465 :    35.860695006584760
 Root    466 :    35.888298631307820
 Root    467 :    35.936847205994870
 Root    468 :    35.991476323244630
 Root    469 :    36.139611003133290
 Root    470 :    36.208842404998180
 Root    471 :    36.297838366610820
 Root    472 :    36.345803432151460
 Root    473 :    36.393566320191570
 Root    474 :    36.409206650727750
 Root    475 :    36.512265776637830
 Root    476 :    36.559451158425490
 Root    477 :    36.621753148233890
 Root    478 :    36.655697957800740
 Root    479 :    36.736435007445000
 Root    480 :    36.871649527320910
 Root    481 :    36.974869740582420
 Root    482 :    36.999449773449510
 Root    483 :    37.082158226293840
 Root    484 :    37.226798671300220
 Root    485 :    37.358524509368110
 Root    486 :    37.373927814127780
 Root    487 :    37.408244794528870
[...]
     16  -0.784076D-01  0.379344D-01  0.944352D-01  0.348259D-01  0.624766D-01
               911           912           913           914           915 
      1  -0.151399D+03 -0.151390D+03 -0.151384D+03 -0.151378D+03 -0.151364D+03
      2   0.630075D-02  0.923496D-01 -0.117801D-02  0.157256D-01 -0.338051D-01
      3  -0.969282D-02  0.460051D-01  0.561238D-01  0.504438D-01  0.147210D-01
      4   0.138969D-01 -0.945481D-01  0.935033D-02  0.643247D-01  0.184574D-01
      5  -0.197801D-01 -0.284896D+00  0.872400D-02 -0.474242D-01  0.109094D+00
      6   0.375189D-01 -0.134552D+00 -0.171413D+00 -0.152388D+00 -0.340308D-01
      7  -0.325409D-01  0.305850D+00 -0.343703D-01 -0.186283D+00 -0.691752D-01
      8  -0.779049D-03 -0.574448D-01  0.487553D-01 -0.115255D+00  0.122565D+00
      9   0.288405D-01 -0.640022D+00  0.322380D+00  0.115139D-01  0.404795D+00
     10   0.304232D+00 -0.734034D-01  0.680190D-01 -0.104977D-01  0.218888D-01
     11  -0.137113D+00 -0.112681D+01 -0.538374D+00  0.575270D-01  0.387227D+00
     12  -0.171810D+00 -0.993179D-01  0.417370D-01  0.619883D-01  0.327047D-01
     13  -0.231175D-01 -0.154796D+00  0.146330D+00 -0.249171D-01  0.795191D-01
     14   0.280344D+00  0.184122D+00 -0.614344D-01  0.156880D+00  0.713977D-01
     15   0.866835D-01  0.657940D+00 -0.358505D+00 -0.351232D-01 -0.381827D+00
     16  -0.853701D-01 -0.143814D+00  0.171247D+00 -0.596596D-01  0.102686D+00
               916           917           918           919           920 
      1  -0.151359D+03 -0.151356D+03 -0.151350D+03 -0.151344D+03 -0.151337D+03
      2   0.613487D-01 -0.324555D-01  0.270620D-01 -0.113516D+00  0.599813D-01
      3  -0.739017D-02 -0.295179D-01  0.706132D-01 -0.659473D-02 -0.364418D-01
      4  -0.757704D-01  0.449713D-02  0.527695D-01  0.541550D-01 -0.367345D-02
      5  -0.190762D+00  0.107693D+00 -0.879189D-01  0.360605D+00 -0.199477D+00
      6   0.144401D-01  0.894872D-01 -0.220479D+00  0.214157D-01  0.126436D+00
      7   0.255849D+00 -0.735557D-02 -0.157869D+00 -0.172327D+00  0.604904D-02
      8  -0.219305D+00 -0.264608D-01 -0.281170D-01  0.642899D-01  0.139926D+00
      9  -0.853862D+00  0.248714D+00  0.412640D+00  0.135638D+00 -0.249046D-01
     10  -0.432390D+00  0.350596D+00 -0.528530D+00  0.127560D+00  0.275117D+00
     11  -0.939189D+00  0.134422D+01 -0.611081D+00  0.548133D+00 -0.405247D+00
     12   0.168655D+00  0.199598D+00  0.230421D-01 -0.256798D+00 -0.257008D+00
     13  -0.197603D+00 -0.380760D-01  0.272032D+00  0.210746D+00  0.241272D-02
     14  -0.237452D+00  0.114202D+00 -0.616092D+00 -0.307334D+00  0.323601D+00
     15   0.956987D+00 -0.437641D+00 -0.369682D+00 -0.334506D+00  0.127310D+00
     16  -0.115193D+00 -0.637454D-01  0.597974D-01 -0.125958D-01  0.108662D-01
               921           922           923           924           925 
      1  -0.151328D+03 -0.151327D+03 -0.151326D+03 -0.151314D+03 -0.151309D+03
      2  -0.255579D-01 -0.199784D-01  0.543336D-01 -0.835002D-01  0.469939D-01
      3   0.786474D-02 -0.345716D-01  0.420956D-01  0.348563D-01  0.622472D-01
      4  -0.819737D-01  0.270337D-02 -0.676960D-01  0.232630D-01  0.589993D-01
      5   0.771961D-01  0.639155D-01 -0.167175D+00  0.275639D+00 -0.144581D+00
      6  -0.304568D-01  0.117258D+00 -0.141517D+00 -0.100094D+00 -0.186848D+00
      7   0.265361D+00 -0.107097D-01  0.216334D+00 -0.838873D-01 -0.184064D+00
      8  -0.883431D-01  0.245241D-01 -0.692343D-01  0.631521D-01 -0.849212D-02
      9  -0.540038D+00 -0.701820D-01 -0.386947D+00 -0.127630D+00  0.380662D+00
     10   0.443243D-01  0.429254D+00 -0.478805D+00  0.279565D+00 -0.591084D+00
     11   0.246868D+00  0.229361D+00 -0.722064D-01  0.159358D+01 -0.104082D+01
     12  -0.269766D+00 -0.260688D+00  0.745192D-01 -0.589367D-01 -0.352551D-01
     13  -0.225672D+00 -0.211704D-01  0.126474D-01  0.204731D-02  0.122904D+00
     14  -0.282422D-01  0.275481D+00 -0.420123D+00 -0.385804D-01 -0.594810D+00
     15   0.614794D+00  0.476219D-01  0.391173D+00 -0.982689D-01 -0.284826D+00
     16  -0.110634D+00 -0.807486D-01  0.388541D-01  0.808675D-01  0.910225D-01
               926           927           928           929           930 
      1  -0.151302D+03 -0.151299D+03 -0.151295D+03 -0.151275D+03 -0.151272D+03
      2   0.609416D-01 -0.490691D-01 -0.634584D-01  0.216868D-01 -0.231539D-01
      3   0.541198D-01 -0.581349D-01  0.461967D-01 -0.291456D-02 -0.231425D-01
      4  -0.805536D-01 -0.416259D-02  0.295146D-01 -0.427493D-01  0.115603D-01
      5  -0.189800D+00  0.158788D+00  0.205680D+00 -0.862572D-01  0.741440D-01
      6  -0.181590D+00  0.171019D+00 -0.156997D+00  0.210906D-01  0.559706D-01
      7   0.260035D+00  0.852229D-02 -0.792137D-01  0.137820D+00 -0.341903D-01
      8  -0.178068D+00 -0.398504D-01 -0.681419D-01 -0.395955D-01 -0.351169D-01
      9  -0.506156D+00 -0.233435D+00  0.111948D-01 -0.300949D-01  0.985222D-01
     10  -0.270794D+00  0.398235D+00 -0.138055D+00  0.201976D+00 -0.278933D+00
     11  -0.967646D+00  0.941214D+00  0.365965D+00 -0.552048D+00  0.907933D+00
     12   0.265959D-01  0.459126D-01  0.189733D+00 -0.463397D-01 -0.342772D-01
     13  -0.139562D+00 -0.789184D-01  0.120689D+00 -0.169927D+00  0.575627D-01
     14   0.459457D-01  0.339414D+00 -0.406505D+00  0.179465D+00 -0.475272D-01
     15   0.740873D+00  0.701688D-01 -0.178580D+00 -0.939903D-03 -0.167702D+00
     16  -0.162482D+00 -0.932930D-01  0.245622D-01 -0.774947D-01 -0.632081D-02
               931           932           933           934           935 
      1  -0.151256D+03 -0.151255D+03 -0.151251D+03 -0.151241D+03 -0.151222D+03
      2   0.376360D-01  0.646840D-01 -0.384017D-01  0.270095D-01  0.307010D-01
      3  -0.141868D-01  0.383506D-01  0.247794D-01 -0.329608D-02  0.464704D-02
      4  -0.447578D-01 -0.432552D-01  0.212993D-01  0.250689D-02 -0.266726D-01
      5  -0.123226D+00 -0.220903D+00  0.133881D+00 -0.829958D-01 -0.110073D+00
      6   0.446309D-01 -0.117139D+00 -0.803306D-01  0.115878D-01 -0.171031D-01
      7   0.151635D+00  0.142222D+00 -0.653382D-01 -0.169792D-02  0.836226D-01
      8  -0.897249D-01 -0.983807D-01  0.113813D+00 -0.116020D+00  0.732860D-02
      9  -0.361631D+00 -0.470472D+00  0.163957D+00 -0.382958D+00 -0.678550D-01
     10  -0.432226D+00 -0.351708D+00 -0.181534D+00 -0.153356D+00 -0.164821D+00
     11  -0.481623D+00 -0.159495D+01  0.698738D-01  0.428960D-01 -0.572558D+00
     12   0.119577D+00  0.361037D+00  0.412459D-01 -0.180649D+00 -0.626198D-01
     13  -0.288607D-01 -0.615428D-01  0.492905D-01 -0.106712D+00  0.134438D+00
     14  -0.258670D+00 -0.142317D+00 -0.286034D+00 -0.185584D+00 -0.110569D+00
     15   0.488453D+00  0.572612D+00 -0.280957D+00  0.398931D+00  0.693329D-01
     16  -0.607628D-01  0.557518D-01  0.191653D+00 -0.945702D-01  0.542641D-01
               936           937           938           939           940 
      1  -0.151219D+03 -0.151214D+03 -0.151206D+03 -0.151194D+03 -0.151188D+03
      2   0.334893D-01  0.151116D-02 -0.937271D-02  0.501273D-01  0.202617D-01
      3  -0.299018D-01 -0.647790D-02 -0.135783D-01  0.202760D-01  0.424070D-01
      4  -0.415389D-01  0.347407D-01 -0.281735D-02  0.329715D-02  0.376795D-01
      5  -0.121061D+00 -0.159703D-01  0.410340D-01 -0.126184D+00 -0.684525D-01
      6   0.107788D+00  0.288268D-01  0.471793D-01 -0.529688D-01 -0.142111D+00
      7   0.142450D+00 -0.106003D+00  0.115769D-01 -0.583289D-02 -0.101885D+00
      8  -0.633259D-01 -0.235191D-01 -0.169126D-01 -0.344138D-01 -0.934564D-01
      9   0.164354D+00  0.161646D+00  0.328935D-01 -0.355988D-01 -0.159921D+00
     10   0.336339D-01  0.603732D-01  0.831213D-02 -0.112426D+00 -0.373276D+00
     11  -0.767668D+00 -0.671803D-01  0.461870D+00  0.710029D+00 -0.726744D+00
     12  -0.600678D-01  0.137771D-01  0.827865D-01 -0.148500D+00  0.117255D+00
     13  -0.386587D-01  0.583450D-01  0.673702D-01  0.488548D-01  0.819691D-02
     14   0.976125D-01  0.111901D+00  0.126871D+00 -0.503218D-01 -0.341863D+00
     15  -0.130886D-01 -0.117869D+00 -0.549432D-01  0.362836D-02  0.238839D+00
     16   0.244811D-01  0.160750D-03 -0.121894D-01 -0.452810D-01 -0.501398D-01
               941           942           943           944           945 
      1  -0.151181D+03 -0.151168D+03 -0.151153D+03 -0.151150D+03 -0.151143D+03
      2  -0.256126D-01 -0.342555D-01  0.114302D+00  0.338945D-01  0.581581D-01
      3  -0.186807D-01 -0.110405D+00  0.115598D+00  0.132370D+00  0.141419D-01
      4   0.556902D-01 -0.969234D-01  0.101094D+00  0.242705D-01  0.130043D+00
      5   0.865815D-01  0.890882D-01 -0.374167D+00 -0.105487D+00 -0.197036D+00
      6   0.709654D-01  0.362308D+00 -0.384737D+00 -0.422536D+00 -0.353180D-01
      7  -0.174594D+00  0.332790D+00 -0.319398D+00 -0.762499D-01 -0.433526D+00
      8   0.723292D-01 -0.182160D+00 -0.285859D-01 -0.938468D-01  0.702147D-01
      9  -0.104290D+00 -0.889205D+00  0.816274D+00  0.337203D+00  0.100421D+01
     10   0.148707D+00  0.983150D+00 -0.104865D+01 -0.441882D+00 -0.149113D+00
     11   0.485183D+00  0.531656D+00 -0.174776D+01 -0.861578D+00 -0.843804D+00
     12  -0.167101D+00 -0.576640D-01  0.402646D+00  0.320197D+00 -0.598138D-01
     13  -0.120556D-01 -0.303733D+00  0.206033D+00 -0.787319D-01  0.324254D+00
     14   0.122020D+00  0.104173D+01 -0.924553D+00 -0.329274D+00  0.691742D-01
     15   0.462194D-01  0.891583D+00 -0.641724D+00 -0.223698D+00 -0.108851D+01
     16   0.218642D-01 -0.222862D+00  0.272792D+00  0.572401D-01  0.258604D+00
               946           947           948           949           950 
      1  -0.151136D+03 -0.151114D+03 -0.151084D+03 -0.151068D+03 -0.151050D+03
      2   0.157679D-01  0.832381D-01  0.452086D-03 -0.172049D-01  0.205332D-02
      3   0.240143D-01  0.717687D-01  0.506023D-02 -0.520487D-01  0.320976D-01
      4   0.217772D-01  0.897063D-01  0.450777D-01 -0.427592D-01  0.122820D-01
      5  -0.621516D-01 -0.284985D+00  0.253969D-02  0.540915D-01  0.931503D-02
      6  -0.584907D-01 -0.236299D+00 -0.136740D-01  0.182445D+00 -0.108910D+00
      7  -0.738877D-01 -0.294830D+00 -0.135057D+00  0.145452D+00 -0.436113D-01
      8   0.111270D+00  0.184383D+00  0.851542D-01 -0.443811D-01  0.843837D-02
      9   0.689785D-01  0.403712D+00 -0.326666D+00 -0.328851D+00  0.645276D-01
     10   0.286883D+00 -0.813905D+00  0.229031D+00  0.520143D+00 -0.120027D+00
     11  -0.362950D+00 -0.131436D+01 -0.927218D-01  0.183823D+00  0.223085D+00
     12   0.457359D-01  0.339214D+00  0.558192D-01 -0.181980D+00 -0.158205D+00
     13   0.232894D-02  0.200472D+00 -0.878436D-01 -0.434238D-01  0.325992D-01
     14   0.350147D+00 -0.479271D+00  0.725916D-01  0.382466D+00 -0.134669D+00
     15  -0.655827D-02 -0.261476D+00  0.283255D+00  0.358952D+00 -0.137078D-01
     16   0.135441D+00  0.269140D+00 -0.805764D-01 -0.105741D+00 -0.921650D-02
               951           952           953           954           955 
      1  -0.151046D+03 -0.151026D+03 -0.151025D+03 -0.151007D+03 -0.150998D+03
      2   0.819733D-01  0.191115D-01  0.216102D-01  0.311188D-02 -0.148792D-01
      3  -0.240676D-01 -0.490128D-01  0.514436D-01 -0.207225D-01  0.202237D-01
      4   0.506871D-02  0.247463D-01  0.736401D-01  0.957027D-02  0.145947D-01
      5  -0.285163D+00 -0.774874D-01 -0.625872D-01 -0.224551D-01  0.582841D-01
      6   0.935406D-01  0.165494D+00 -0.188618D+00  0.628894D-01 -0.623966D-01
      7  -0.271888D-01 -0.692048D-01 -0.237657D+00 -0.314979D-01 -0.371846D-01
      8   0.193379D+00 -0.917736D-01  0.437951D-01 -0.811391D-02 -0.103553D+00
      9   0.335063D+00 -0.158990D+00  0.398408D+00 -0.825048D-03 -0.224471D+00
     10   0.256811D+00  0.273273D+00 -0.695934D+00 -0.286452D+00  0.163833D+00
     11  -0.119803D+01 -0.296805D+00 -0.558532D+00 -0.567238D-01  0.362317D-01
     12  -0.242473D+00 -0.209532D+00  0.463547D+00 -0.378737D-01  0.497965D-01
     13   0.155830D+00 -0.450231D-01  0.127968D+00 -0.315383D-01 -0.266790D-01
     14   0.482771D+00  0.253456D+00 -0.627634D+00 -0.815480D-01  0.104954D+00
     15  -0.290197D+00  0.116728D+00 -0.476471D+00  0.109901D+00  0.278963D+00
     16   0.954854D-01 -0.138713D+00  0.225677D+00 -0.357847D-01 -0.337121D-01
               956           957           958           959           960 
      1  -0.150975D+03 -0.150957D+03 -0.150944D+03 -0.150923D+03 -0.150920D+03
      2  -0.122351D+00  0.875029D-02 -0.507758D-01 -0.858765D-01  0.591222D-01
      3   0.729136D-01 -0.249418D-01  0.384050D-01  0.191416D-01 -0.398682D-01
      4  -0.125041D-01  0.984803D-02  0.993531D-02 -0.192943D-01 -0.160932D-01
      5   0.443237D+00 -0.266314D-01  0.187499D+00  0.312774D+00 -0.220564D+00
      6  -0.267110D+00  0.860756D-01 -0.151494D+00 -0.840480D-01  0.160415D+00
      7   0.482587D-01 -0.217428D-01 -0.260132D-01  0.620313D-01  0.579692D-01
      8  -0.871655D-01 -0.587844D-01 -0.907171D-01 -0.315551D-01 -0.291500D-01
      9  -0.175403D+00 -0.254985D+00 -0.364123D-02 -0.211298D+00 -0.102794D+00
     10  -0.223345D+00 -0.375238D-01 -0.344135D+00 -0.943486D-01  0.439894D+00
     11   0.176100D+01  0.435686D+00  0.972431D+00  0.111051D+01 -0.848809D+00
     12  -0.155006D-01 -0.322738D+00  0.177648D+00 -0.156549D+00 -0.301205D+00
     13  -0.269178D-01  0.669818D-01 -0.731378D-01  0.271467D+00  0.100993D+00
     14  -0.395129D+00  0.105892D+00 -0.461147D+00 -0.369487D+00  0.366671D+00
     15  -0.143221D-01  0.302137D+00 -0.616043D-01  0.117178D+00  0.257823D+00
     16   0.458852D-02 -0.151656D+00 -0.470797D-01  0.137675D+00 -0.133950D+00
               961           962           963           964           965 
      1  -0.150919D+03 -0.150876D+03 -0.150823D+03 -0.150805D+03 -0.150785D+03
      2  -0.163876D-01 -0.272865D-01 -0.562448D-01 -0.555155D-01  0.403031D-03
      3   0.823471D-01  0.109588D-01 -0.496195D-01 -0.746458D-01  0.126962D-01
      4   0.141147D-01  0.426074D-01 -0.717341D-02 -0.878981D-01  0.212900D-01
      5   0.786753D-01  0.959323D-01  0.208183D+00  0.210699D+00 -0.291106D-01
      6  -0.293774D+00 -0.348162D-01  0.175722D+00  0.288281D+00 -0.237138D-01
      7  -0.503220D-01 -0.140328D+00  0.304385D-01  0.331276D+00 -0.732588D-01
      8   0.290348D-01 -0.165951D-02 -0.172730D-01 -0.118200D+00  0.155567D-02
      9   0.226704D+00 -0.113581D+00 -0.999598D-01 -0.789818D+00  0.151968D+00
     10  -0.582931D+00  0.330960D-01  0.367694D+00  0.817790D+00 -0.784839D-01
     11   0.352486D+00  0.245495D+00  0.101104D+01  0.903683D+00 -0.663765D+00
     12   0.985842D-01  0.632593D-02 -0.228928D-01 -0.105516D+00 -0.151548D+00
     13  -0.550751D-01 -0.532820D-01 -0.982249D-01 -0.298857D+00  0.535121D-01
     14  -0.492982D+00  0.217633D-01  0.225463D+00  0.705444D+00  0.423512D+00
     15  -0.276669D+00  0.166730D+00  0.134739D+00  0.569148D+00 -0.496597D-02
     16   0.741809D-01 -0.603943D-04 -0.766834D-01 -0.210799D+00  0.792583D-02
               966           967           968           969           970 
      1  -0.150782D+03 -0.150778D+03 -0.150707D+03 -0.150681D+03 -0.150636D+03
      2   0.775691D-03  0.228043D-01  0.113471D+00  0.132016D-02  0.238402D-01
      3  -0.116464D-01 -0.466407D-02 -0.154153D+00 -0.394556D-01 -0.350193D-02
      4  -0.356201D-01 -0.342219D-01  0.674165D-01  0.192270D-01  0.313315D-02
      5  -0.102362D-01 -0.113730D+00 -0.457917D+00 -0.610853D-02 -0.918784D-01
      6   0.525077D-01  0.270271D-01  0.604179D+00  0.152247D+00  0.737245D-02
      7   0.124937D+00  0.129408D+00 -0.255051D+00 -0.689023D-01 -0.200598D-02
      8   0.704915D-01 -0.416386D-01  0.195600D+00  0.172236D-01 -0.618696D-01
      9  -0.152941D+00 -0.230185D+00  0.628900D+00  0.866464D-01 -0.123320D+00
     10   0.132377D+00 -0.115964D+00  0.111240D+01  0.269028D+00 -0.101714D+00
     11  -0.187890D+00 -0.710149D+00 -0.231618D+01  0.261850D-01 -0.118597D+00
     12  -0.134297D+00 -0.158952D+00 -0.457833D+00 -0.713659D-01  0.151977D+00
     13   0.488673D-01  0.304094D-01  0.149136D+00  0.336746D-01 -0.655976D-01
     14   0.211978D+00  0.137364D+00  0.159920D+01  0.186849D+00 -0.237829D+00
     15   0.137598D+00  0.239207D+00 -0.397827D+00 -0.984032D-01  0.546981D-01
     16  -0.224857D-01 -0.956058D-01 -0.214189D+00 -0.237584D-01 -0.489376D-01
               971           972           973           974           975 
      1  -0.150633D+03 -0.150607D+03 -0.150578D+03 -0.150529D+03 -0.150501D+03
      2   0.446704D-02  0.588292D-01 -0.292387D-01 -0.267758D-01 -0.312062D-01
      3   0.915446D-02 -0.699966D-03 -0.373647D-01 -0.612550D-01 -0.810889D-02
      4   0.671614D-02 -0.619818D-01  0.151265D-01  0.109620D+00  0.269522D-01
      5  -0.381824D-01 -0.244041D+00  0.118526D+00  0.117590D+00  0.129386D+00
      6  -0.196280D-01  0.185600D-01  0.138457D+00  0.232507D+00  0.322211D-01
      7  -0.141777D-01  0.244975D+00 -0.524367D-01 -0.430182D+00 -0.111561D+00
      8  -0.694852D-01 -0.663453D-01  0.382553D-01  0.251820D+00  0.403826D-01
      9  -0.884017D-01 -0.451133D+00  0.125177D+00  0.956040D+00  0.214499D+00
     10   0.262077D-01 -0.356007D-01  0.335693D+00  0.593968D+00  0.888618D-01
     11  -0.532272D+00 -0.110664D+01  0.469196D+00  0.389795D+00  0.635239D+00
     12  -0.140684D+00 -0.101617D+00  0.621676D-02 -0.269606D+00  0.196156D-01
     13   0.131471D-01 -0.153815D+00 -0.225276D-01  0.347413D+00  0.560561D-01
     14   0.276047D+00  0.188730D+00  0.296759D+00  0.553265D+00 -0.242257D-01
     15   0.106587D+00  0.553480D+00 -0.208565D+00 -0.106446D+01 -0.279212D+00
     16  -0.832155D-01 -0.129704D-01 -0.656931D-01 -0.248703D-01  0.685380D-02
               976           977           978           979           980 
      1  -0.150476D+03 -0.150467D+03 -0.150337D+03 -0.150187D+03 -0.150044D+03
      2  -0.146389D-01 -0.244884D-01  0.815080D-02 -0.504477D-02  0.910125D-02
      3  -0.395658D-01 -0.414108D-01  0.269907D-01  0.675028D-02  0.124459D-01
      4   0.324368D-01  0.680235D-01 -0.415965D-01 -0.662631D-03 -0.213007D-01
      5   0.931480D-01  0.606848D-01 -0.421661D-01  0.194523D-01 -0.621344D-01
      6   0.132509D+00  0.190853D+00 -0.102987D+00 -0.290023D-01 -0.322600D-01
      7  -0.136650D+00 -0.271176D+00  0.170499D+00  0.252015D-02  0.878577D-01
      8   0.101929D+00  0.187109D+00 -0.943691D-01  0.288368D-02 -0.337314D-01
      9   0.309445D+00  0.640900D+00 -0.376462D+00 -0.204933D-02 -0.174937D+00
     10   0.328009D+00  0.523026D+00 -0.259687D+00 -0.324262D-01 -0.865404D-01
     11   0.429716D+00  0.189933D+00 -0.420646D+00 -0.127457D+00 -0.202297D+00
     12  -0.102439D+00 -0.260465D+00  0.941209D-02 -0.532910D-01 -0.199018D-01
     13   0.143907D+00  0.145858D+00 -0.110890D+00  0.365233D-01 -0.811868D-01
     14   0.360932D+00  0.437411D+00 -0.605030D-01  0.408364D-01 -0.127929D-01
     15  -0.380017D+00 -0.762864D+00  0.463091D+00  0.154571D-01  0.217032D+00
     16   0.417740D-01 -0.964550D-01 -0.594075D-01 -0.639962D-01  0.142015D+00
 Unable to Open any file for archive entry.
 1\1\GINC-HEL11\SP\RM11 TD-FC\Gen\C2H6O1\SABYASACHI\21-Mar-2022\0\\#P T
 D(Nstates=10000) m11/Gen SCF(maxcycles=100) Int(Grid=ultrafine)\\xGDB7
 _00001_tier4.com\\0,1\C,0,-1.208422,-0.239069,-0.021917\C,0,0.083893,0
 .553452,0.046734\O,0,1.233467,-0.256002,-0.105864\H,0,-2.071999,0.4251
 36,0.0517\H,0,-1.27067,-0.957756,0.799731\H,0,-1.270625,-0.78828,-0.96
 2327\H,0,0.13003,1.119197,0.986112\H,0,0.125952,1.277026,-0.768547\H,0
 ,1.236751,-0.913605,0.591341\\Version=EM64L-G16RevC.01\State=1-A\HF=-1
 54.8447508\RMSD=4.572e-09\PG=C01 [X(C2H6O1)]\\@
 The archive entry for this job was punched.


 IT CANNOT BE MY BEAUTY, FOR I HAVE NONE; AND IT CANNOT BE MY WIT,
 FOR HE HAS NOT ENOUGH TO KNOW THAT I HAVE ANY.
 -- CATHARINE SEDLEY, PUZZLED ABOUT WHY SHE WAS MISTRESS TO JAMES II
 Job cpu time:       0 days  0 hours 53 minutes 11.7 seconds.
 Elapsed time:       0 days  0 hours  6 minutes 39.3 seconds.
 File lengths (MBytes):  RWF=   1237 Int=      0 D2E=      0 Chk=    291 Scr=      1
 Normal termination of Gaussian 16 at Mon Mar 21 20:16:17 2022.
