 Entering Gaussian System, Link 0=g16
 Input=000016.com
 Output=000016.log
 Initial command:
 /home/sabyasachi/g16/l1.exe "/scratch/sabyasachi/PBS_7976249.helios/Gau-157663.inp" -scrdir="/scratch/sabyasachi/PBS_7976249.helios/"
 Entering Link 1 = /home/sabyasachi/g16/l1.exe PID=    157664.
  
 Copyright (c) 1988-2019, Gaussian, Inc.  All Rights Reserved.
  
 This is part of the Gaussian(R) 16 program.  It is based on
 the Gaussian(R) 09 system (copyright 2009, Gaussian, Inc.),
 the Gaussian(R) 03 system (copyright 2003, Gaussian, Inc.),
 the Gaussian(R) 98 system (copyright 1998, Gaussian, Inc.),
 the Gaussian(R) 94 system (copyright 1995, Gaussian, Inc.),
 the Gaussian 92(TM) system (copyright 1992, Gaussian, Inc.),
 the Gaussian 90(TM) system (copyright 1990, Gaussian, Inc.),
 the Gaussian 88(TM) system (copyright 1988, Gaussian, Inc.),
 the Gaussian 86(TM) system (copyright 1986, Carnegie Mellon
 University), and the Gaussian 82(TM) system (copyright 1983,
 Carnegie Mellon University). Gaussian is a federally registered
 trademark of Gaussian, Inc.
  
 This software contains proprietary and confidential information,
 including trade secrets, belonging to Gaussian, Inc.
  
 This software is provided under written license and may be
 used, copied, transmitted, or stored only in accord with that
 written license.
  
 The following legend is applicable only to US Government
 contracts under FAR:
  
                    RESTRICTED RIGHTS LEGEND
  
 Use, reproduction and disclosure by the US Government is
 subject to restrictions as set forth in subparagraphs (a)
 and (c) of the Commercial Computer Software - Restricted
 Rights clause in FAR 52.227-19.
  
 Gaussian, Inc.
 340 Quinnipiac St., Bldg. 40, Wallingford CT 06492
  
  
 ---------------------------------------------------------------
 Warning -- This program may not be used in any manner that
 competes with the business of Gaussian, Inc. or will provide
 assistance to any competitor of Gaussian, Inc.  The licensee
 of this program is prohibited from giving any competitor of
 Gaussian, Inc. access to this program.  By using this program,
 the user acknowledges that Gaussian, Inc. is engaged in the
 business of creating and licensing software in the field of
 computational chemistry and represents and warrants to the
 licensee that it is not a competitor of Gaussian, Inc. and that
 it will not use this program in any manner prohibited above.
 ---------------------------------------------------------------
  

 Cite this work as:
 Gaussian 16, Revision C.01,
 M. J. Frisch, G. W. Trucks, H. B. Schlegel, G. E. Scuseria, 
 M. A. Robb, J. R. Cheeseman, G. Scalmani, V. Barone, 
 G. A. Petersson, H. Nakatsuji, X. Li, M. Caricato, A. V. Marenich, 
 J. Bloino, B. G. Janesko, R. Gomperts, B. Mennucci, H. P. Hratchian, 
 J. V. Ortiz, A. F. Izmaylov, J. L. Sonnenberg, D. Williams-Young, 
 F. Ding, F. Lipparini, F. Egidi, J. Goings, B. Peng, A. Petrone, 
 T. Henderson, D. Ranasinghe, V. G. Zakrzewski, J. Gao, N. Rega, 
 G. Zheng, W. Liang, M. Hada, M. Ehara, K. Toyota, R. Fukuda, 
 J. Hasegawa, M. Ishida, T. Nakajima, Y. Honda, O. Kitao, H. Nakai, 
 T. Vreven, K. Throssell, J. A. Montgomery, Jr., J. E. Peralta, 
 F. Ogliaro, M. J. Bearpark, J. J. Heyd, E. N. Brothers, K. N. Kudin, 
 V. N. Staroverov, T. A. Keith, R. Kobayashi, J. Normand, 
 K. Raghavachari, A. P. Rendell, J. C. Burant, S. S. Iyengar, 
 J. Tomasi, M. Cossi, J. M. Millam, M. Klene, C. Adamo, R. Cammi, 
 J. W. Ochterski, R. L. Martin, K. Morokuma, O. Farkas, 
 J. B. Foresman, and D. J. Fox, Gaussian, Inc., Wallingford CT, 2019.
 
 ******************************************
 Gaussian 16:  EM64L-G16RevC.01  3-Jul-2019
                21-Mar-2022 
 ******************************************
 %mem=64gb
 %nproc=8
 Will use up to    8 processors via shared memory.
 ----------------------------------------------------------------------
 #P TD(Nstates=10000) lc-whpbe/Gen SCF(maxcycles=100) Int(Grid=ultrafin
 e)
 ----------------------------------------------------------------------
 1/38=1,172=1/1;
 2/12=2,17=6,18=5,40=1/2;
 3/5=7,11=9,25=1,30=1,74=-71,75=-5/1,2,3,8;
 4//1;
 5/5=2,7=100,38=5/2;
 8/6=1,10=1,108=10000/1;
 9/41=10000,42=1,70=2/14;
 6/7=2,8=2,9=2,10=2/1;
 99/5=1,9=1/99;
 Leave Link    1 at Mon Mar 21 20:20:05 2022, MaxMem=  8589934592 cpu:               0.4 elap:               0.1
 (Enter /home/sabyasachi/g16/l101.exe)
 ---------------------
 xGDB7_00001_tier4.com
 ---------------------
 Symbolic Z-matrix:
 Charge =  0 Multiplicity = 1
 6                    -1.20842  -0.23907  -0.02192 
 6                     0.08389   0.55345   0.04673 
 8                     1.23347  -0.256    -0.10586 
 1                    -2.072     0.42514   0.0517 
 1                    -1.27067  -0.95776   0.79973 
 1                    -1.27063  -0.78828  -0.96233 
 1                     0.13003   1.1192    0.98611 
 1                     0.12595   1.27703  -0.76855 
 1                     1.23675  -0.91361   0.59134 
 
 ITRead=  0  0  0  0  0  0  0  0  0
 MicOpt= -1 -1 -1 -1 -1 -1 -1 -1 -1
 NAtoms=      9 NQM=        9 NQMF=       0 NMMI=      0 NMMIF=      0
                NMic=       0 NMicF=      0.
                    Isotopes and Nuclear Properties:
 (Nuclear quadrupole moments (NQMom) in fm**2, nuclear magnetic moments (NMagM)
  in nuclear magnetons)

  Atom         1           2           3           4           5           6           7           8           9
 IAtWgt=          12          12          16           1           1           1           1           1           1
 AtmWgt=  12.0000000  12.0000000  15.9949146   1.0078250   1.0078250   1.0078250   1.0078250   1.0078250   1.0078250
 NucSpn=           0           0           0           1           1           1           1           1           1
 AtZEff=  -0.0000000  -0.0000000  -0.0000000  -0.0000000  -0.0000000  -0.0000000  -0.0000000  -0.0000000  -0.0000000
 NQMom=    0.0000000   0.0000000   0.0000000   0.0000000   0.0000000   0.0000000   0.0000000   0.0000000   0.0000000
 NMagM=    0.0000000   0.0000000   0.0000000   2.7928460   2.7928460   2.7928460   2.7928460   2.7928460   2.7928460
 AtZNuc=   6.0000000   6.0000000   8.0000000   1.0000000   1.0000000   1.0000000   1.0000000   1.0000000   1.0000000
 Leave Link  101 at Mon Mar 21 20:20:05 2022, MaxMem=  8589934592 cpu:               0.6 elap:               0.1
 (Enter /home/sabyasachi/g16/l202.exe)
                          Input orientation:                          
 ---------------------------------------------------------------------
 Center     Atomic      Atomic             Coordinates (Angstroms)
 Number     Number       Type             X           Y           Z
 ---------------------------------------------------------------------
      1          6           0       -1.208422   -0.239069   -0.021917
      2          6           0        0.083893    0.553452    0.046734
      3          8           0        1.233467   -0.256002   -0.105864
      4          1           0       -2.071999    0.425136    0.051700
      5          1           0       -1.270670   -0.957756    0.799731
      6          1           0       -1.270625   -0.788280   -0.962327
      7          1           0        0.130030    1.119197    0.986112
      8          1           0        0.125952    1.277026   -0.768547
      9          1           0        1.236751   -0.913605    0.591341
 ---------------------------------------------------------------------
                    Distance matrix (angstroms):
                    1          2          3          4          5
     1  C    0.000000
     2  C    1.517524   0.000000
     3  O    2.443390   1.414221   0.000000
     4  H    1.091949   2.159713   3.378592   0.000000
     5  H    1.093385   2.164624   2.753773   1.764672   0.000000
     6  H    1.090813   2.157120   2.699505   1.772803   1.770189
     7  H    2.156957   1.097555   2.073923   2.490738   2.512057
     8  H    2.153266   1.090876   2.003974   2.495899   3.066643
     9  H    2.609589   1.943691   0.958409   3.609885   2.516453
                    6          7          8          9
     6  H    0.000000
     7  H    3.065407   0.000000
     8  H    2.500693   1.761748   0.000000
     9  H    2.952376   2.347969   2.807496   0.000000
 Stoichiometry    C2H6O
 Framework group  C1[X(C2H6O)]
 Deg. of freedom    21
 Full point group                 C1      NOp   1
 Largest Abelian subgroup         C1      NOp   1
 Largest concise Abelian subgroup C1      NOp   1
                         Standard orientation:                         
 ---------------------------------------------------------------------
 Center     Atomic      Atomic             Coordinates (Angstroms)
 Number     Number       Type             X           Y           Z
 ---------------------------------------------------------------------
      1          6           0       -1.208422   -0.239069   -0.021917
      2          6           0        0.083893    0.553452    0.046734
      3          8           0        1.233467   -0.256002   -0.105864
      4          1           0       -2.071999    0.425135    0.051700
      5          1           0       -1.270670   -0.957756    0.799731
      6          1           0       -1.270625   -0.788280   -0.962327
      7          1           0        0.130030    1.119197    0.986112
      8          1           0        0.125951    1.277026   -0.768547
      9          1           0        1.236751   -0.913605    0.591341
 ---------------------------------------------------------------------
 Rotational constants (GHZ):          34.6666409           9.2583988           8.1755823
 Leave Link  202 at Mon Mar 21 20:20:05 2022, MaxMem=  8589934592 cpu:               0.1 elap:               0.0
 (Enter /home/sabyasachi/g16/l301.exe)
 General basis read from cards:  (5D, 7F)
 Centers:       4      5      6      7      8      9
 S 3 1.00
     Exponent=  1.3010701000D+01 Coefficients=  1.9682158000D-02
     Exponent=  1.9622572000D+00 Coefficients=  1.3796524000D-01
     Exponent=  4.4453796000D-01 Coefficients=  4.7831935000D-01
 S 1 1.00
     Exponent=  1.2194962000D-01 Coefficients=  1.0000000000D+00
 P 1 1.00
     Exponent=  8.0000000000D-01 Coefficients=  1.0000000000D+00
 P 1 1.00
     Exponent=  1.1704099050D-01 Coefficients=  1.0000000000D+00
 ****
 Centers:       1      2
 S 5 1.00
     Exponent=  1.2384016938D+03 Coefficients=  5.4568832082D-03
     Exponent=  1.8629004992D+02 Coefficients=  4.0638409211D-02
     Exponent=  4.2251176346D+01 Coefficients=  1.8025593888D-01
     Exponent=  1.1676557932D+01 Coefficients=  4.6315121755D-01
     Exponent=  3.5930506482D+00 Coefficients=  4.4087173314D-01
 S 1 1.00
     Exponent=  4.0245147363D-01 Coefficients=  1.0000000000D+00
 S 1 1.00
     Exponent=  1.3090182668D-01 Coefficients=  1.0000000000D+00
 S 1 1.00
     Exponent=  6.7053540256D-02 Coefficients=  1.0000000000D+00
 P 3 1.00
     Exponent=  9.4680970621D+00 Coefficients=  3.8387871728D-02
     Exponent=  2.0103545142D+00 Coefficients=  2.1117025112D-01
     Exponent=  5.4771004707D-01 Coefficients=  5.1328172114D-01
 P 1 1.00
     Exponent=  1.5268613795D-01 Coefficients=  1.0000000000D+00
 D 1 1.00
     Exponent=  8.0000000000D-01 Coefficients=  1.0000000000D+00
 D 1 1.00
     Exponent=  1.1713185140D-01 Coefficients=  1.0000000000D+00
 ****
 Centers:       3
 S 5 1.00
     Exponent=  2.2661767785D+03 Coefficients= -5.3431809926D-03
     Exponent=  3.4087010191D+02 Coefficients= -3.9890039230D-02
     Exponent=  7.7363135167D+01 Coefficients= -1.7853911985D-01
     Exponent=  2.1479644940D+01 Coefficients= -4.6427684959D-01
     Exponent=  6.6589433124D+00 Coefficients= -4.4309745172D-01
 S 1 1.00
     Exponent=  8.0975975668D-01 Coefficients=  1.0000000000D+00
 S 1 1.00
     Exponent=  2.5530772234D-01 Coefficients=  1.0000000000D+00
 S 1 1.00
     Exponent=  7.6572453250D-02 Coefficients=  1.0000000000D+00
 P 3 1.00
     Exponent=  1.7721504317D+01 Coefficients=  4.3394573193D-02
     Exponent=  3.8635505440D+00 Coefficients=  2.3094120765D-01
     Exponent=  1.0480920883D+00 Coefficients=  5.1375311064D-01
 P 1 1.00
     Exponent=  2.7641544411D-01 Coefficients=  1.0000000000D+00
 P 1 1.00
     Exponent=  6.9002276350D-02 Coefficients=  1.0000000000D+00
 D 1 1.00
     Exponent=  1.2000000000D+00 Coefficients=  1.0000000000D+00
 D 1 1.00
     Exponent=  1.7992024323D-01 Coefficients=  1.0000000000D+00
 ****
 Ernie: Thresh=  0.10000D-02 Tol=  0.10000D-05 Strict=F.
 There are   117 symmetry adapted cartesian basis functions of A   symmetry.
 There are   111 symmetry adapted basis functions of A   symmetry.
   111 basis functions,   159 primitive gaussians,   117 cartesian basis functions
    13 alpha electrons       13 beta electrons
       nuclear repulsion energy        81.9103171642 Hartrees.
 IExCor=33909 DFT=T Ex+Corr=LC-wHPBE ExCW=0 ScaHFX=  1.000000
 ScaDFX=  1.000000  1.000000  1.000000  1.000000 ScalE2=  1.000000  1.000000
 IRadAn=      5 IRanWt=     -1 IRanGd=            0 ICorTp=0 IEmpDi=  4
 HFx  wShort=  0.000000 wLong=  0.400000 cFull=  0.000000 cShort=  0.000000 cLong=  1.000000
 DFx  wShort=  0.000000 wLong=  0.400000 cFull=  0.000000 cShort=  1.000000 cLong=  0.000000
 NAtoms=    9 NActive=    9 NUniq=    9 SFac= 1.00D+00 NAtFMM=   60 NAOKFM=F Big=F
 Integral buffers will be    131072 words long.
 Raffenetti 1 integral format.
 Two-electron integral symmetry is turned on.
 Leave Link  301 at Mon Mar 21 20:20:05 2022, MaxMem=  8589934592 cpu:               0.5 elap:               0.1
 (Enter /home/sabyasachi/g16/l302.exe)
 NPDir=0 NMtPBC=     1 NCelOv=     1 NCel=       1 NClECP=     1 NCelD=      1
         NCelK=      1 NCelE2=     1 NClLst=     1 CellRange=     0.0.
 One-electron integrals computed using PRISM.
 One-electron integral symmetry used in STVInt
 NBasis=   111 RedAO= T EigKep=  3.00D-04  NBF=   111
 NBsUse=   111 1.00D-06 EigRej= -1.00D+00 NBFU=   111
 Precomputing XC quadrature grid using
 IXCGrd= 4 IRadAn=           5 IRanWt=          -1 IRanGd=           0 AccXCQ= 0.00D+00.
 Generated NRdTot=       0 NPtTot=           0 NUsed=           0 NTot=          32
 NSgBfM=   117   117   117   117   117 MxSgAt=     9 MxSgA2=     9.
 Leave Link  302 at Mon Mar 21 20:20:05 2022, MaxMem=  8589934592 cpu:               1.1 elap:               0.2
 (Enter /home/sabyasachi/g16/l303.exe)
 DipDrv:  MaxL=1.
 Leave Link  303 at Mon Mar 21 20:20:05 2022, MaxMem=  8589934592 cpu:               0.2 elap:               0.0
 (Enter /home/sabyasachi/g16/l308.exe)
 Leave Link  308 at Mon Mar 21 20:20:05 2022, MaxMem=  8589934592 cpu:               0.2 elap:               0.1
 (Enter /home/sabyasachi/g16/l401.exe)
 ExpMin= 6.71D-02 ExpMax= 2.27D+03 ExpMxC= 3.41D+02 IAcc=3 IRadAn=         5 AccDes= 0.00D+00
 Harris functional with IExCor=33909 and IRadAn=       5 diagonalized for initial guess.
 HarFok:  IExCor=33909 AccDes= 0.00D+00 IRadAn=         5 IDoV= 1 UseB2=F ITyADJ=14
 ICtDFT=  3500011 ScaDFX=  1.000000  1.000000  1.000000  1.000000
 FoFCou: FMM=F IPFlag=           0 FMFlag=      100000 FMFlg1=           0
         NFxFlg=           0 DoJE=T BraDBF=F KetDBF=T FulRan=T
         wScrn=  0.000000 ICntrl=       500 IOpCl=  0 I1Cent=   200000004 NGrid=           0
         NMat0=    1 NMatS0=      1 NMatT0=    0 NMatD0=    1 NMtDS0=    0 NMtDT0=    0
 Petite list used in FoFCou.
 Harris En= -149.733910268522    
 JPrj=0 DoOrth=F DoCkMO=F.
 Leave Link  401 at Mon Mar 21 20:20:06 2022, MaxMem=  8589934592 cpu:               4.0 elap:               0.5
 (Enter /home/sabyasachi/g16/l502.exe)
 Keep R1 ints in memory in canonical form, NReq=46894608.
 FoFCou: FMM=F IPFlag=           0 FMFlag=           0 FMFlg1=           0
         NFxFlg=           0 DoJE=F BraDBF=F KetDBF=F FulRan=T
         wScrn=  0.000000 ICntrl=       600 IOpCl=  0 I1Cent=           0 NGrid=           0
         NMat0=    1 NMatS0=   6216 NMatT0=    0 NMatD0=    1 NMtDS0=    0 NMtDT0=    0
 Symmetry not used in FoFCou.
 Two-electron integral symmetry not used.
 Closed shell SCF:
 Using DIIS extrapolation, IDIIS=  1040.
 NGot=  8589934592 LenX=  8551259892 LenY=  8551245762
 Requested convergence on RMS density matrix=1.00D-08 within 100 cycles.
 Requested convergence on MAX density matrix=1.00D-06.
 Requested convergence on             energy=1.00D-06.
 No special actions if energy rises.
 Integral accuracy reduced to 1.0D-05 until final iterations.

 Cycle   1  Pass 0  IDiag  1:
 E= -154.804843553655    
 DIIS: error= 1.83D-02 at cycle   1 NSaved=   1.
 NSaved= 1 IEnMin= 1 EnMin= -154.804843553655     IErMin= 1 ErrMin= 1.83D-02
 ErrMax= 1.83D-02  0.00D+00 EMaxC= 1.00D-01 BMatC= 4.70D-02 BMatP= 4.70D-02
 IDIUse=3 WtCom= 8.17D-01 WtEn= 1.83D-01
 Coeff-Com:  0.100D+01
 Coeff-En:   0.100D+01
 Coeff:      0.100D+01
 Gap=     0.435 Goal=   None    Shift=    0.000
 GapD=    0.435 DampG=2.000 DampE=0.500 DampFc=1.0000 IDamp=-1.
 RMSDP=4.00D-03 MaxDP=1.14D-01              OVMax= 7.46D-02

 Cycle   2  Pass 0  IDiag  1:
 E= -154.832017000613     Delta-E=       -0.027173446958 Rises=F Damp=F
 DIIS: error= 1.02D-02 at cycle   2 NSaved=   2.
 NSaved= 2 IEnMin= 2 EnMin= -154.832017000613     IErMin= 2 ErrMin= 1.02D-02
 ErrMax= 1.02D-02  0.00D+00 EMaxC= 1.00D-01 BMatC= 2.23D-02 BMatP= 4.70D-02
 IDIUse=3 WtCom= 8.98D-01 WtEn= 1.02D-01
 Coeff-Com:  0.403D+00 0.597D+00
 Coeff-En:   0.202D+00 0.798D+00
 Coeff:      0.382D+00 0.618D+00
 Gap=     0.492 Goal=   None    Shift=    0.000
 RMSDP=1.58D-03 MaxDP=4.19D-02 DE=-2.72D-02 OVMax= 3.04D-02

 Cycle   3  Pass 0  IDiag  1:
 E= -154.851181177422     Delta-E=       -0.019164176809 Rises=F Damp=F
 DIIS: error= 1.27D-03 at cycle   3 NSaved=   3.
 NSaved= 3 IEnMin= 3 EnMin= -154.851181177422     IErMin= 3 ErrMin= 1.27D-03
 ErrMax= 1.27D-03  0.00D+00 EMaxC= 1.00D-01 BMatC= 5.86D-04 BMatP= 2.23D-02
 IDIUse=3 WtCom= 9.87D-01 WtEn= 1.27D-02
 Coeff-Com:  0.851D-01 0.189D+00 0.726D+00
 Coeff-En:   0.000D+00 0.000D+00 0.100D+01
 Coeff:      0.840D-01 0.187D+00 0.729D+00
 Gap=     0.481 Goal=   None    Shift=    0.000
 RMSDP=2.63D-04 MaxDP=6.53D-03 DE=-1.92D-02 OVMax= 5.23D-03

 Cycle   4  Pass 0  IDiag  1:
 E= -154.851561264931     Delta-E=       -0.000380087509 Rises=F Damp=F
 DIIS: error= 5.48D-04 at cycle   4 NSaved=   4.
 NSaved= 4 IEnMin= 4 EnMin= -154.851561264931     IErMin= 4 ErrMin= 5.48D-04
 ErrMax= 5.48D-04  0.00D+00 EMaxC= 1.00D-01 BMatC= 8.24D-05 BMatP= 5.86D-04
 IDIUse=3 WtCom= 9.95D-01 WtEn= 5.48D-03
 Coeff-Com: -0.113D-01 0.357D-02 0.280D+00 0.727D+00
 Coeff-En:   0.000D+00 0.000D+00 0.000D+00 0.100D+01
 Coeff:     -0.112D-01 0.355D-02 0.279D+00 0.729D+00
 Gap=     0.483 Goal=   None    Shift=    0.000
 RMSDP=1.21D-04 MaxDP=2.00D-03 DE=-3.80D-04 OVMax= 2.49D-03

 Cycle   5  Pass 0  IDiag  1:
 E= -154.851635592621     Delta-E=       -0.000074327690 Rises=F Damp=F
 DIIS: error= 1.54D-04 at cycle   5 NSaved=   5.
 NSaved= 5 IEnMin= 5 EnMin= -154.851635592621     IErMin= 5 ErrMin= 1.54D-04
 ErrMax= 1.54D-04  0.00D+00 EMaxC= 1.00D-01 BMatC= 3.33D-06 BMatP= 8.24D-05
 IDIUse=3 WtCom= 9.98D-01 WtEn= 1.54D-03
 Coeff-Com: -0.853D-02-0.155D-01-0.322D-01 0.121D+00 0.935D+00
 Coeff-En:   0.000D+00 0.000D+00 0.000D+00 0.000D+00 0.100D+01
 Coeff:     -0.852D-02-0.154D-01-0.321D-01 0.121D+00 0.935D+00
 Gap=     0.483 Goal=   None    Shift=    0.000
 RMSDP=4.69D-05 MaxDP=5.87D-04 DE=-7.43D-05 OVMax= 5.59D-04

 Cycle   6  Pass 0  IDiag  1:
 E= -154.851639579317     Delta-E=       -0.000003986695 Rises=F Damp=F
 DIIS: error= 1.64D-05 at cycle   6 NSaved=   6.
 NSaved= 6 IEnMin= 6 EnMin= -154.851639579317     IErMin= 6 ErrMin= 1.64D-05
 ErrMax= 1.64D-05  0.00D+00 EMaxC= 1.00D-01 BMatC= 5.48D-08 BMatP= 3.33D-06
 IDIUse=1 WtCom= 1.00D+00 WtEn= 0.00D+00
 Coeff-Com:  0.136D-03-0.689D-03-0.138D-01-0.193D-01 0.327D-01 0.100D+01
 Coeff:      0.136D-03-0.689D-03-0.138D-01-0.193D-01 0.327D-01 0.100D+01
 Gap=     0.483 Goal=   None    Shift=    0.000
 RMSDP=7.54D-06 MaxDP=1.13D-04 DE=-3.99D-06 OVMax= 1.30D-04

 Initial convergence to 1.0D-05 achieved.  Increase integral accuracy.
 Cycle   7  Pass 1  IDiag  1:
 E= -154.851639679594     Delta-E=       -0.000000100278 Rises=F Damp=F
 DIIS: error= 4.88D-06 at cycle   1 NSaved=   1.
 NSaved= 1 IEnMin= 1 EnMin= -154.851639679594     IErMin= 1 ErrMin= 4.88D-06
 ErrMax= 4.88D-06  0.00D+00 EMaxC= 1.00D-01 BMatC= 4.57D-09 BMatP= 4.57D-09
 IDIUse=1 WtCom= 1.00D+00 WtEn= 0.00D+00
 Coeff-Com:  0.100D+01
 Coeff:      0.100D+01
 Gap=     0.483 Goal=   None    Shift=    0.000
 RMSDP=7.54D-06 MaxDP=1.13D-04 DE=-1.00D-07 OVMax= 3.24D-05

 Cycle   8  Pass 1  IDiag  1:
 E= -154.851639685797     Delta-E=       -0.000000006203 Rises=F Damp=F
 DIIS: error= 2.62D-06 at cycle   2 NSaved=   2.
 NSaved= 2 IEnMin= 2 EnMin= -154.851639685797     IErMin= 2 ErrMin= 2.62D-06
 ErrMax= 2.62D-06  0.00D+00 EMaxC= 1.00D-01 BMatC= 1.60D-09 BMatP= 4.57D-09
 IDIUse=1 WtCom= 1.00D+00 WtEn= 0.00D+00
 Coeff-Com:  0.341D+00 0.659D+00
 Coeff:      0.341D+00 0.659D+00
 Gap=     0.483 Goal=   None    Shift=    0.000
 RMSDP=5.70D-07 MaxDP=1.47D-05 DE=-6.20D-09 OVMax= 9.59D-06

 Cycle   9  Pass 1  IDiag  1:
 E= -154.851639687492     Delta-E=       -0.000000001694 Rises=F Damp=F
 DIIS: error= 7.28D-07 at cycle   3 NSaved=   3.
 NSaved= 3 IEnMin= 3 EnMin= -154.851639687492     IErMin= 3 ErrMin= 7.28D-07
 ErrMax= 7.28D-07  0.00D+00 EMaxC= 1.00D-01 BMatC= 8.70D-11 BMatP= 1.60D-09
 IDIUse=1 WtCom= 1.00D+00 WtEn= 0.00D+00
 Coeff-Com: -0.144D+00-0.458D-01 0.119D+01
 Coeff:     -0.144D+00-0.458D-01 0.119D+01
 Gap=     0.483 Goal=   None    Shift=    0.000
 RMSDP=3.08D-07 MaxDP=4.80D-06 DE=-1.69D-09 OVMax= 8.26D-06

 Cycle  10  Pass 1  IDiag  1:
 E= -154.851639687718     Delta-E=       -0.000000000226 Rises=F Damp=F
 DIIS: error= 2.40D-07 at cycle   4 NSaved=   4.
 NSaved= 4 IEnMin= 4 EnMin= -154.851639687718     IErMin= 4 ErrMin= 2.40D-07
 ErrMax= 2.40D-07  0.00D+00 EMaxC= 1.00D-01 BMatC= 1.44D-11 BMatP= 8.70D-11
 IDIUse=1 WtCom= 1.00D+00 WtEn= 0.00D+00
 Coeff-Com: -0.760D-01-0.540D-01 0.463D+00 0.667D+00
 Coeff:     -0.760D-01-0.540D-01 0.463D+00 0.667D+00
 Gap=     0.483 Goal=   None    Shift=    0.000
 RMSDP=4.84D-08 MaxDP=9.32D-07 DE=-2.26D-10 OVMax= 1.91D-06

 Cycle  11  Pass 1  IDiag  1:
 E= -154.851639687734     Delta-E=       -0.000000000016 Rises=F Damp=F
 DIIS: error= 5.93D-08 at cycle   5 NSaved=   5.
 NSaved= 5 IEnMin= 5 EnMin= -154.851639687734     IErMin= 5 ErrMin= 5.93D-08
 ErrMax= 5.93D-08  0.00D+00 EMaxC= 1.00D-01 BMatC= 1.34D-12 BMatP= 1.44D-11
 IDIUse=1 WtCom= 1.00D+00 WtEn= 0.00D+00
 Coeff-Com: -0.139D-01-0.149D-01 0.424D-01 0.243D+00 0.743D+00
 Coeff:     -0.139D-01-0.149D-01 0.424D-01 0.243D+00 0.743D+00
 Gap=     0.483 Goal=   None    Shift=    0.000
 RMSDP=1.56D-08 MaxDP=2.65D-07 DE=-1.63D-11 OVMax= 5.16D-07

 Cycle  12  Pass 1  IDiag  1:
 E= -154.851639687736     Delta-E=       -0.000000000002 Rises=F Damp=F
 DIIS: error= 1.73D-08 at cycle   6 NSaved=   6.
 NSaved= 6 IEnMin= 6 EnMin= -154.851639687736     IErMin= 6 ErrMin= 1.73D-08
 ErrMax= 1.73D-08  0.00D+00 EMaxC= 1.00D-01 BMatC= 4.02D-14 BMatP= 1.34D-12
 IDIUse=1 WtCom= 1.00D+00 WtEn= 0.00D+00
 Coeff-Com:  0.711D-02 0.603D-02-0.424D-01-0.671D-01-0.306D-01 0.113D+01
 Coeff:      0.711D-02 0.603D-02-0.424D-01-0.671D-01-0.306D-01 0.113D+01
 Gap=     0.483 Goal=   None    Shift=    0.000
 RMSDP=7.79D-09 MaxDP=1.63D-07 DE=-1.53D-12 OVMax= 2.88D-07

 SCF Done:  E(RLC-wHPBE) =  -154.851639688     A.U. after   12 cycles
            NFock= 12  Conv=0.78D-08     -V/T= 2.0113
 KE= 1.531194386336D+02 PE=-5.248120649020D+02 EE= 1.349306694165D+02
 Leave Link  502 at Mon Mar 21 20:20:10 2022, MaxMem=  8589934592 cpu:              31.7 elap:               4.2
 (Enter /home/sabyasachi/g16/l801.exe)
 DoSCS=F DFT=T ScalE2(SS,OS)=  1.000000  1.000000
 ExpMin= 6.71D-02 ExpMax= 2.27D+03 ExpMxC= 3.41D+02 IAcc=3 IRadAn=         5 AccDes= 0.00D+00
 HarFok:  IExCor=  205 AccDes= 0.00D+00 IRadAn=         5 IDoV=-2 UseB2=F ITyADJ=14
 ICtDFT= 12500011 ScaDFX=  1.000000  1.000000  1.000000  1.000000
 Largest valence mixing into a core orbital is  6.37D-05
 Largest core mixing into a valence orbital is  1.21D-05
 Range of M.O.s used for correlation:     4   111
 NBasis=   111 NAE=    13 NBE=    13 NFC=     3 NFV=     0
 NROrb=    108 NOA=    10 NOB=    10 NVA=    98 NVB=    98

 **** Warning!!: The largest alpha MO coefficient is  0.22283982D+02

 Leave Link  801 at Mon Mar 21 20:20:10 2022, MaxMem=  8589934592 cpu:               0.6 elap:               0.1
 (Enter /home/sabyasachi/g16/l914.exe)
 RHF ground state
 Keep R1, R2, and R3 ints in memory in canonical form, NReq=1186336844.
 FoFCou: FMM=F IPFlag=           0 FMFlag=           0 FMFlg1=           0
         NFxFlg=           0 DoJE=F BraDBF=F KetDBF=F FulRan=T
         wScrn=  0.000000 ICntrl=       600 IOpCl=  0 I1Cent=           0 NGrid=           0
         NMat0=    1 NMatS0=   6216 NMatT0=    0 NMatD0=    1 NMtDS0=    0 NMtDT0=    0
 Symmetry not used in FoFCou.
 Two-electron integral symmetry not used.
 MDV=  8589934592 DFT=T DoStab=F Mixed=T DoRPA=T DoScal=F NonHer=T
 Making orbital integer symmetry assigments:
 Orbital symmetries:
       Occupied  (A) (A) (A) (A) (A) (A) (A) (A) (A) (A) (A) (A)
                 (A)
       Virtual   (A) (A) (A) (A) (A) (A) (A) (A) (A) (A) (A) (A)
                 (A) (A) (A) (A) (A) (A) (A) (A) (A) (A) (A) (A)
                 (A) (A) (A) (A) (A) (A) (A) (A) (A) (A) (A) (A)
                 (A) (A) (A) (A) (A) (A) (A) (A) (A) (A) (A) (A)
                 (A) (A) (A) (A) (A) (A) (A) (A) (A) (A) (A) (A)
                 (A) (A) (A) (A) (A) (A) (A) (A) (A) (A) (A) (A)
                 (A) (A) (A) (A) (A) (A) (A) (A) (A) (A) (A) (A)
                 (A) (A) (A) (A) (A) (A) (A) (A) (A) (A) (A) (A)
                 (A) (A)
   980 initial guesses have been made.
 Convergence on wavefunction:    0.001000000000000
 Davidson Disk Diagonalization:  ConvIn= 1.00D-03 SkipCon=T Conv= 1.00D-03.
 Max sub-space:  5880 roots to seek:  1960 dimension of matrix:         1960
 *** WARNING: Number of orthogonal guesses is          980
 Iteration     1 Dimension   980 NMult     0 NNew    980
 CISAX will form   980 AO SS matrices at one time.
 NMat=   980 NSing=   980 JSym2X= 0.
 New state      3 was old state      4
 New state      4 was old state      3
 New state      7 was old state      8
 New state      8 was old state      7
 New state      9 was old state     10
 New state     10 was old state      9
 New state     11 was old state     13
 New state     13 was old state     11
 New state     15 was old state     20
 New state     16 was old state     15
 New state     17 was old state     22
 New state     18 was old state     17
 New state     19 was old state     16
 New state     20 was old state     21
 New state     21 was old state     19
 New state     22 was old state     27
 New state     25 was old state     31
 New state     26 was old state     25
 New state     27 was old state     28
 New state     28 was old state     33
 New state     31 was old state     32
 New state     32 was old state     36
 New state     33 was old state     34
 New state     34 was old state     40
 New state     35 was old state     37
 New state     36 was old state     47
 New state     37 was old state     41
 New state     38 was old state     45
 New state     39 was old state     43
 New state     40 was old state     39
 New state     41 was old state     46
 New state     42 was old state     35
 New state     43 was old state     44
 New state     44 was old state     38
 New state     45 was old state     51
 New state     46 was old state     42
 New state     47 was old state     65
 New state     48 was old state     50
 New state     49 was old state     59
 New state     50 was old state     61
 New state     51 was old state     55
 New state     52 was old state     54
 New state     53 was old state     48
 New state     54 was old state     53
 New state     55 was old state     52
 New state     56 was old state     66
 New state     57 was old state     56
 New state     58 was old state     64
 New state     59 was old state     49
 New state     60 was old state     58
 New state     61 was old state     60
 New state     62 was old state     72
 New state     63 was old state     70
 New state     64 was old state     57
 New state     65 was old state     73
 New state     66 was old state     68
 New state     67 was old state     62
 New state     68 was old state     63
 New state     69 was old state     71
 New state     70 was old state     74
 New state     71 was old state     79
 New state     72 was old state     69
 New state     73 was old state     78
 New state     74 was old state     76
 New state     75 was old state     67
 New state     76 was old state     89
 New state     77 was old state     80
 New state     78 was old state     77
 New state     79 was old state     75
 New state     80 was old state     88
 New state     81 was old state     85
 New state     82 was old state     86
 New state     83 was old state     81
 New state     84 was old state     83
 New state     85 was old state     82
 New state     86 was old state     90
 New state     87 was old state     96
 New state     88 was old state     93
 New state     89 was old state     99
 New state     90 was old state     87
 New state     92 was old state     97
 New state     93 was old state     94
 New state     94 was old state     92
 New state     95 was old state    102
 New state     96 was old state     98
 New state     97 was old state     95
 New state     98 was old state    100
 New state     99 was old state    105
 New state    100 was old state    103
 New state    101 was old state     84
 New state    102 was old state    101
 New state    103 was old state    104
 New state    104 was old state    115
 New state    105 was old state    108
 New state    106 was old state    114
 New state    107 was old state    110
 New state    108 was old state    118
 New state    109 was old state    120
 New state    110 was old state    106
 New state    111 was old state    113
 New state    112 was old state    111
 New state    113 was old state    116
 New state    114 was old state    109
 New state    115 was old state    121
 New state    116 was old state    107
 New state    117 was old state    119
 New state    118 was old state    124
 New state    119 was old state    117
 New state    120 was old state    129
 New state    121 was old state    122
 New state    122 was old state    123
 New state    123 was old state    112
 New state    124 was old state    132
 New state    126 was old state    128
 New state    127 was old state    136
 New state    128 was old state    133
 New state    129 was old state    137
 New state    130 was old state    135
 New state    131 was old state    134
 New state    132 was old state    126
 New state    133 was old state    141
 New state    134 was old state    149
 New state    135 was old state    140
 New state    136 was old state    127
 New state    137 was old state    138
 New state    138 was old state    144
 New state    140 was old state    143
 New state    141 was old state    145
 New state    142 was old state    154
 New state    143 was old state    130
 New state    144 was old state    146
 New state    145 was old state    142
 New state    146 was old state    150
 New state    147 was old state    152
 New state    148 was old state    160
 New state    149 was old state    166
 New state    150 was old state    163
 New state    151 was old state    148
 New state    152 was old state    157
 New state    153 was old state    147
 New state    154 was old state    153
 New state    155 was old state    151
 New state    156 was old state    161
 New state    157 was old state    159
 New state    158 was old state    167
 New state    159 was old state    170
 New state    160 was old state    162
 New state    161 was old state    156
 New state    162 was old state    164
 New state    163 was old state    168
 New state    164 was old state    176
 New state    165 was old state    171
 New state    166 was old state    173
 New state    167 was old state    158
 New state    168 was old state    165
 New state    169 was old state    186
 New state    170 was old state    172
 New state    171 was old state    178
 New state    172 was old state    177
 New state    173 was old state    169
 New state    174 was old state    189
 New state    175 was old state    182
 New state    176 was old state    179
 New state    177 was old state    174
 New state    178 was old state    184
 New state    179 was old state    175
 New state    180 was old state    185
 New state    182 was old state    180
 New state    183 was old state    190
 New state    184 was old state    183
 New state    185 was old state    200
 New state    186 was old state    191
 New state    187 was old state    196
 New state    188 was old state    193
 New state    189 was old state    188
 New state    190 was old state    199
 New state    191 was old state    187
 New state    192 was old state    197
 New state    193 was old state    198
 New state    194 was old state    201
 New state    195 was old state    192
 New state    196 was old state    207
 New state    197 was old state    195
 New state    198 was old state    217
 New state    199 was old state    204
 New state    200 was old state    202
 New state    201 was old state    203
 New state    202 was old state    194
 New state    203 was old state    216
 New state    204 was old state    208
 New state    205 was old state    213
 New state    206 was old state    211
 New state    207 was old state    206
 New state    208 was old state    212
 New state    209 was old state    220
 New state    210 was old state    214
 New state    211 was old state    225
 New state    212 was old state    218
 New state    213 was old state    221
 New state    214 was old state    209
 New state    215 was old state    236
 New state    216 was old state    205
 New state    217 was old state    223
 New state    218 was old state    215
 New state    219 was old state    230
 New state    220 was old state    237
 New state    221 was old state    226
 New state    222 was old state    219
 New state    223 was old state    222
 New state    224 was old state    227
 New state    225 was old state    210
 New state    226 was old state    224
 New state    227 was old state    242
 New state    228 was old state    248
 New state    229 was old state    246
 New state    230 was old state    233
 New state    233 was old state    241
 New state    235 was old state    240
 New state    236 was old state    238
 New state    237 was old state    235
 New state    238 was old state    228
 New state    239 was old state    244
 New state    240 was old state    250
 New state    241 was old state    229
 New state    242 was old state    239
 New state    244 was old state    252
 New state    246 was old state    249
 New state    247 was old state    257
 New state    248 was old state    253
 New state    249 was old state    255
 New state    250 was old state    258
 New state    251 was old state    247
 New state    252 was old state    256
 New state    253 was old state    260
 New state    254 was old state    266
 New state    255 was old state    254
 New state    256 was old state    251
 New state    257 was old state    263
 New state    258 was old state    265
 New state    259 was old state    261
 New state    260 was old state    271
 New state    261 was old state    268
 New state    263 was old state    259
 New state    265 was old state    270
 New state    266 was old state    291
 New state    267 was old state    269
 New state    268 was old state    273
 New state    269 was old state    276
 New state    270 was old state    267
 New state    271 was old state    275
 New state    272 was old state    301
 New state    273 was old state    277
 New state    274 was old state    272
 New state    275 was old state    281
 New state    276 was old state    282
 New state    277 was old state    278
 New state    278 was old state    286
 New state    279 was old state    283
 New state    280 was old state    274
 New state    281 was old state    285
 New state    282 was old state    279
 New state    283 was old state    309
 New state    284 was old state    293
 New state    285 was old state    287
 New state    286 was old state    280
 New state    287 was old state    289
 New state    288 was old state    284
 New state    289 was old state    292
 New state    290 was old state    296
 New state    291 was old state    288
 New state    292 was old state    294
 New state    293 was old state    290
 New state    294 was old state    298
 New state    295 was old state    305
 New state    296 was old state    312
 New state    297 was old state    300
 New state    298 was old state    295
 New state    299 was old state    303
 New state    300 was old state    297
 New state    301 was old state    299
 New state    302 was old state    307
 New state    303 was old state    314
 New state    304 was old state    308
 New state    305 was old state    302
 New state    307 was old state    318
 New state    308 was old state    304
 New state    309 was old state    320
 New state    311 was old state    315
 New state    312 was old state    316
 New state    313 was old state    317
 New state    314 was old state    311
 New state    315 was old state    337
 New state    316 was old state    319
 New state    317 was old state    332
 New state    318 was old state    313
 New state    319 was old state    323
 New state    320 was old state    329
 New state    321 was old state    326
 New state    322 was old state    334
 New state    323 was old state    333
 New state    324 was old state    330
 New state    325 was old state    321
 New state    326 was old state    325
 New state    327 was old state    322
 New state    329 was old state    324
 New state    330 was old state    341
 New state    331 was old state    327
 New state    332 was old state    342
 New state    333 was old state    343
 New state    334 was old state    340
 New state    335 was old state    339
 New state    336 was old state    331
 New state    337 was old state    336
 New state    338 was old state    335
 New state    339 was old state    345
 New state    340 was old state    359
 New state    341 was old state    352
 New state    342 was old state    338
 New state    343 was old state    349
 New state    344 was old state    357
 New state    345 was old state    351
 New state    346 was old state    344
 New state    348 was old state    353
 New state    349 was old state    346
 New state    350 was old state    360
 New state    351 was old state    348
 New state    352 was old state    355
 New state    353 was old state    354
 New state    354 was old state    358
 New state    355 was old state    362
 New state    356 was old state    350
 New state    357 was old state    356
 New state    358 was old state    364
 New state    359 was old state    365
 New state    360 was old state    378
 New state    361 was old state    363
 New state    362 was old state    361
 New state    363 was old state    368
 New state    364 was old state    366
 New state    365 was old state    367
 New state    366 was old state    371
 New state    367 was old state    370
 New state    368 was old state    373
 New state    370 was old state    374
 New state    371 was old state    372
 New state    372 was old state    417
 New state    373 was old state    377
 New state    374 was old state    382
 New state    377 was old state    379
 New state    378 was old state    383
 New state    379 was old state    384
 New state    382 was old state    386
 New state    383 was old state    385
 New state    384 was old state    387
 New state    385 was old state    388
 New state    386 was old state    397
 New state    387 was old state    390
 New state    388 was old state    389
 New state    389 was old state    392
 New state    390 was old state    394
 New state    391 was old state    395
 New state    392 was old state    404
 New state    393 was old state    401
 New state    394 was old state    398
 New state    395 was old state    409
 New state    397 was old state    399
 New state    398 was old state    391
 New state    399 was old state    403
 New state    400 was old state    402
 New state    401 was old state    406
 New state    402 was old state    411
 New state    403 was old state    405
 New state    404 was old state    393
 New state    405 was old state    414
 New state    406 was old state    400
 New state    407 was old state    408
 New state    408 was old state    413
 New state    409 was old state    418
 New state    410 was old state    407
 New state    411 was old state    415
 New state    412 was old state    416
 New state    413 was old state    420
 New state    414 was old state    422
 New state    415 was old state    410
 New state    416 was old state    412
 New state    417 was old state    425
 New state    418 was old state    424
 New state    419 was old state    428
 New state    420 was old state    419
 New state    421 was old state    431
 New state    422 was old state    427
 New state    423 was old state    421
 New state    424 was old state    429
 New state    425 was old state    423
 New state    426 was old state    434
 New state    427 was old state    436
 New state    428 was old state    445
 New state    429 was old state    426
 New state    431 was old state    432
 New state    432 was old state    433
 New state    433 was old state    439
 New state    434 was old state    441
 New state    435 was old state    440
 New state    436 was old state    438
 New state    437 was old state    447
 New state    438 was old state    442
 New state    439 was old state    453
 New state    440 was old state    448
 New state    441 was old state    458
 New state    442 was old state    461
 New state    443 was old state    437
 New state    444 was old state    435
 New state    445 was old state    443
 New state    446 was old state    444
 New state    447 was old state    452
 New state    448 was old state    449
 New state    449 was old state    463
 New state    450 was old state    446
 New state    451 was old state    450
 New state    452 was old state    466
 New state    453 was old state    460
 New state    454 was old state    465
 New state    455 was old state    457
 New state    456 was old state    455
 New state    457 was old state    451
 New state    458 was old state    477
 New state    459 was old state    454
 New state    460 was old state    470
 New state    461 was old state    478
 New state    462 was old state    456
 New state    463 was old state    481
 New state    464 was old state    486
 New state    465 was old state    472
 New state    466 was old state    479
 New state    467 was old state    459
 New state    470 was old state    483
 New state    471 was old state    473
 New state    472 was old state    462
 New state    473 was old state    484
 New state    474 was old state    471
 New state    475 was old state    464
 New state    476 was old state    467
 New state    477 was old state    476
 New state    478 was old state    474
 New state    479 was old state    489
 New state    480 was old state    475
 New state    481 was old state    485
 New state    482 was old state    480
 New state    483 was old state    492
 New state    484 was old state    494
 New state    485 was old state    488
 New state    486 was old state    498
 New state    487 was old state    493
 New state    488 was old state    482
 New state    489 was old state    497
 New state    490 was old state    505
 New state    491 was old state    490
 New state    492 was old state    503
 New state    493 was old state    506
 New state    494 was old state    501
 New state    495 was old state    507
 New state    496 was old state    491
 New state    497 was old state    487
 New state    498 was old state    502
 New state    499 was old state    508
 New state    501 was old state    496
 New state    502 was old state    519
 New state    503 was old state    511
 New state    504 was old state    495
 New state    505 was old state    513
 New state    506 was old state    509
 New state    507 was old state    499
 New state    508 was old state    524
 New state    509 was old state    514
 New state    510 was old state    512
 New state    511 was old state    504
 New state    512 was old state    518
 New state    513 was old state    510
 New state    514 was old state    515
 New state    515 was old state    522
 New state    516 was old state    527
 New state    518 was old state    525
 New state    519 was old state    520
 New state    520 was old state    535
 New state    521 was old state    529
 New state    522 was old state    523
 New state    523 was old state    532
 New state    524 was old state    521
 New state    525 was old state    531
 New state    526 was old state    516
 New state    527 was old state    533
 New state    528 was old state    530
 New state    529 was old state    528
 New state    530 was old state    534
 New state    531 was old state    541
 New state    532 was old state    539
 New state    533 was old state    538
 New state    534 was old state    542
 New state    535 was old state    549
 New state    537 was old state    540
 New state    538 was old state    526
 New state    539 was old state    548
 New state    540 was old state    537
 New state    541 was old state    546
 New state    542 was old state    554
 New state    543 was old state    547
 New state    544 was old state    545
 New state    545 was old state    553
 New state    546 was old state    550
 New state    547 was old state    551
 New state    548 was old state    544
 New state    549 was old state    543
 New state    550 was old state    566
 New state    551 was old state    552
 New state    552 was old state    556
 New state    553 was old state    562
 New state    554 was old state    559
 New state    555 was old state    558
 New state    556 was old state    560
 New state    557 was old state    555
 New state    558 was old state    567
 New state    559 was old state    557
 New state    560 was old state    574
 New state    561 was old state    563
 New state    562 was old state    561
 New state    563 was old state    565
 New state    565 was old state    568
 New state    566 was old state    572
 New state    567 was old state    569
 New state    568 was old state    576
 New state    569 was old state    571
 No map to state    571
 No map to state    572
 New state    573 was old state    575
 New state    574 was old state    573
 New state    575 was old state    585
 New state    576 was old state    579
 New state    579 was old state    590
 New state    580 was old state    582
 New state    581 was old state    583
 New state    582 was old state    581
 New state    583 was old state    580
 New state    584 was old state    587
 New state    585 was old state    589
 New state    586 was old state    584
 New state    587 was old state    591
 New state    588 was old state    586
 New state    589 was old state    588
 New state    590 was old state    594
 New state    591 was old state    603
 New state    592 was old state    593
 New state    593 was old state    592
 New state    594 was old state    595
 New state    595 was old state    597
 New state    596 was old state    600
 New state    597 was old state    599
 New state    599 was old state    601
 New state    600 was old state    596
 New state    601 was old state    625
 New state    602 was old state    608
 New state    603 was old state    604
 New state    604 was old state    602
 New state    607 was old state    615
 New state    608 was old state    611
 New state    609 was old state    607
 New state    610 was old state    609
 New state    611 was old state    617
 New state    612 was old state    613
 New state    613 was old state    610
 New state    614 was old state    612
 New state    615 was old state    616
 New state    616 was old state    614
 New state    617 was old state    621
 New state    618 was old state    620
 New state    620 was old state    623
 New state    621 was old state    628
 New state    622 was old state    626
 New state    623 was old state    618
 New state    624 was old state    622
 New state    625 was old state    630
 New state    626 was old state    633
 New state    628 was old state    634
 New state    629 was old state    636
 New state    630 was old state    629
 New state    631 was old state    624
 New state    632 was old state    635
 New state    633 was old state    645
 New state    634 was old state    637
 New state    635 was old state    639
 New state    636 was old state    643
 New state    637 was old state    631
 New state    639 was old state    641
 New state    640 was old state    632
 New state    641 was old state    642
 New state    642 was old state    640
 New state    643 was old state    644
 New state    644 was old state    646
 New state    645 was old state    647
 New state    646 was old state    648
 New state    647 was old state    655
 New state    648 was old state    652
 New state    649 was old state    657
 New state    650 was old state    649
 New state    651 was old state    650
 New state    652 was old state    651
 New state    654 was old state    661
 New state    655 was old state    658
 New state    656 was old state    654
 New state    657 was old state    660
 New state    658 was old state    659
 New state    659 was old state    656
 New state    660 was old state    665
 New state    661 was old state    662
 New state    662 was old state    668
 New state    663 was old state    669
 New state    665 was old state    667
 New state    666 was old state    663
 New state    667 was old state    671
 New state    668 was old state    666
 New state    669 was old state    675
 New state    670 was old state    672
 New state    671 was old state    674
 New state    672 was old state    677
 New state    673 was old state    678
 New state    674 was old state    676
 New state    675 was old state    670
 New state    676 was old state    680
 New state    677 was old state    673
 New state    678 was old state    679
 New state    679 was old state    682
 New state    680 was old state    683
 New state    682 was old state    688
 New state    683 was old state    686
 New state    685 was old state    699
 New state    686 was old state    687
 New state    687 was old state    693
 New state    688 was old state    694
 New state    689 was old state    692
 New state    690 was old state    691
 New state    691 was old state    703
 New state    692 was old state    690
 New state    693 was old state    689
 New state    694 was old state    685
 New state    695 was old state    702
 New state    696 was old state    706
 New state    697 was old state    704
 New state    698 was old state    700
 New state    699 was old state    697
 New state    700 was old state    701
 New state    701 was old state    696
 New state    702 was old state    698
 New state    703 was old state    705
 New state    704 was old state    711
 New state    705 was old state    709
 New state    706 was old state    708
 New state    707 was old state    710
 New state    708 was old state    707
 New state    709 was old state    717
 New state    710 was old state    715
 New state    711 was old state    712
 New state    712 was old state    713
 New state    713 was old state    716
 New state    714 was old state    718
 New state    715 was old state    723
 New state    716 was old state    714
 New state    717 was old state    720
 New state    718 was old state    721
 New state    719 was old state    722
 New state    720 was old state    719
 New state    721 was old state    725
 New state    722 was old state    726
 New state    723 was old state    724
 New state    724 was old state    728
 New state    725 was old state    727
 New state    726 was old state    737
 New state    727 was old state    729
 New state    728 was old state    735
 New state    729 was old state    730
 New state    730 was old state    731
 New state    731 was old state    732
 New state    732 was old state    733
 New state    733 was old state    736
 New state    735 was old state    743
 New state    736 was old state    738
 New state    737 was old state    746
 New state    738 was old state    739
 New state    739 was old state    740
 New state    740 was old state    742
 New state    741 was old state    753
 New state    742 was old state    748
 New state    743 was old state    744
 New state    744 was old state    741
 New state    745 was old state    747
 New state    746 was old state    757
 New state    747 was old state    755
 New state    748 was old state    749
 New state    749 was old state    745
 New state    751 was old state    754
 New state    752 was old state    762
 New state    753 was old state    752
 New state    754 was old state    760
 New state    755 was old state    758
 New state    756 was old state    751
 New state    757 was old state    763
 New state    758 was old state    759
 New state    759 was old state    764
 New state    760 was old state    778
 New state    761 was old state    756
 New state    762 was old state    761
 New state    763 was old state    768
 New state    764 was old state    772
 New state    765 was old state    771
 New state    768 was old state    769
 New state    769 was old state    765
 New state    770 was old state    776
 New state    771 was old state    773
 New state    772 was old state    777
 New state    773 was old state    774
 New state    774 was old state    784
 New state    775 was old state    770
 New state    776 was old state    779
 New state    777 was old state    785
 New state    778 was old state    782
 New state    779 was old state    786
 New state    780 was old state    775
 New state    782 was old state    780
 New state    784 was old state    789
 New state    785 was old state    788
 New state    786 was old state    795
 New state    788 was old state    796
 New state    789 was old state    791
 New state    790 was old state    793
 New state    791 was old state    792
 New state    792 was old state    794
 New state    793 was old state    798
 New state    794 was old state    799
 New state    795 was old state    797
 New state    796 was old state    800
 New state    797 was old state    803
 New state    798 was old state    804
 New state    799 was old state    806
 New state    800 was old state    801
 New state    801 was old state    790
 New state    803 was old state    805
 New state    804 was old state    809
 New state    805 was old state    808
 New state    806 was old state    811
 New state    807 was old state    812
 New state    808 was old state    807
 New state    809 was old state    814
 New state    810 was old state    813
 New state    811 was old state    810
 New state    812 was old state    815
 New state    813 was old state    825
 New state    814 was old state    820
 New state    815 was old state    817
 New state    816 was old state    819
 New state    817 was old state    818
 New state    818 was old state    822
 New state    819 was old state    816
 New state    820 was old state    821
 New state    821 was old state    831
 New state    822 was old state    832
 New state    823 was old state    830
 New state    824 was old state    827
 New state    825 was old state    823
 New state    827 was old state    824
 New state    829 was old state    833
 New state    830 was old state    829
 New state    831 was old state    837
 No map to state    832
 New state    833 was old state    835
 New state    834 was old state    842
 New state    835 was old state    834
 New state    836 was old state    843
 New state    837 was old state    836
 New state    838 was old state    840
 New state    839 was old state    838
 New state    840 was old state    846
 New state    841 was old state    845
 New state    842 was old state    839
 New state    843 was old state    847
 New state    845 was old state    862
 New state    846 was old state    857
 New state    847 was old state    841
 New state    848 was old state    849
 New state    849 was old state    848
 New state    850 was old state    851
 New state    851 was old state    852
 New state    852 was old state    853
 New state    853 was old state    854
 New state    854 was old state    855
 New state    855 was old state    850
 New state    857 was old state    858
 New state    858 was old state    860
 New state    859 was old state    863
 New state    860 was old state    859
 New state    862 was old state    866
 New state    863 was old state    864
 New state    864 was old state    865
 New state    865 was old state    867
 New state    866 was old state    872
 New state    867 was old state    869
 New state    869 was old state    878
 New state    872 was old state    877
 New state    873 was old state    874
 New state    874 was old state    876
 New state    876 was old state    879
 New state    877 was old state    882
 New state    878 was old state    885
 New state    879 was old state    873
 New state    882 was old state    886
 New state    884 was old state    887
 New state    885 was old state    884
 New state    886 was old state    891
 New state    887 was old state    890
 New state    889 was old state    893
 New state    890 was old state    892
 New state    891 was old state    897
 New state    892 was old state    895
 New state    893 was old state    889
 New state    894 was old state    899
 New state    895 was old state    894
 New state    896 was old state    903
 New state    897 was old state    904
 New state    898 was old state    902
 New state    899 was old state    900
 New state    900 was old state    896
 New state    901 was old state    909
 New state    902 was old state    898
 New state    903 was old state    901
 New state    904 was old state    905
 New state    905 was old state    907
 New state    907 was old state    914
 New state    909 was old state    911
 New state    910 was old state    916
 New state    911 was old state    910
 New state    912 was old state    913
 New state    913 was old state    922
 New state    914 was old state    912
 New state    916 was old state    917
 New state    917 was old state    918
 New state    918 was old state    919
 New state    919 was old state    920
 New state    920 was old state    927
 New state    921 was old state    925
 New state    922 was old state    923
 New state    923 was old state    924
 New state    924 was old state    928
 New state    925 was old state    929
 New state    926 was old state    921
 New state    927 was old state    932
 New state    928 was old state    926
 New state    929 was old state    931
 New state    930 was old state    934
 New state    931 was old state    933
 New state    932 was old state    930
 New state    933 was old state    940
 New state    934 was old state    938
 New state    935 was old state    939
 New state    936 was old state    935
 New state    937 was old state    936
 New state    938 was old state    937
 New state    939 was old state    941
 New state    940 was old state    942
 New state    941 was old state    944
 New state    942 was old state    946
 New state    944 was old state    945
 New state    945 was old state    949
 New state    946 was old state    948
 No map to state    947
 New state    948 was old state    955
 New state    949 was old state    947
 New state    953 was old state    954
 New state    954 was old state    953
 New state    955 was old state    957
 New state    957 was old state    960
 New state    960 was old state    962
 No map to state    961
 New state    962 was old state    961
 New state    963 was old state    964
 New state    964 was old state    963
 New state    965 was old state    966
 New state    966 was old state    965
 New state    967 was old state    968
 New state    968 was old state    967
 New state    969 was old state    970
 New state    970 was old state    971
 New state    971 was old state    969
 New state    976 was old state    977
 New state    977 was old state    976
 Excitation Energies [eV] at current iteration:
 Root      1 :     7.531884413688477
 Root      2 :     9.004757722379232
 Root      3 :     9.191543449987917
 Root      4 :     9.508032792590356
 Root      5 :     9.600057922360927
 Root      6 :    10.135205018670230
 Root      7 :    10.474044444937160
 Root      8 :    10.574464779494140
 Root      9 :    10.661775553094660
 Root     10 :    10.768916539114450
 Root     11 :    10.970290271548010
 Root     12 :    11.026415101335260
 Root     13 :    11.149646549731460
 Root     14 :    11.431743081844750
 Root     15 :    11.562583721248690
 Root     16 :    11.608943755207400
 Root     17 :    11.704509783725840
 Root     18 :    11.803517193710420
 Root     19 :    11.912295093944450
 Root     20 :    12.049320475547480
 Root     21 :    12.187591734146500
 Root     22 :    12.286261974916680
 Root     23 :    12.316401244725490
 Root     24 :    12.381101615473380
 Root     25 :    12.525694546685810
 Root     26 :    12.645017208121390
 Root     27 :    12.716540558743270
 Root     28 :    12.763504201933510
 Root     29 :    12.806680847232010
 Root     30 :    12.924594561709830
 Root     31 :    13.066862336216300
 Root     32 :    13.135941180867790
 Root     33 :    13.158130997074550
 Root     34 :    13.273231407743390
 Root     35 :    13.311005314040490
 Root     36 :    13.322773606505000
 Root     37 :    13.419098105347560
 Root     38 :    13.457053512008130
 Root     39 :    13.547468521261940
 Root     40 :    13.572357310906130
 Root     41 :    13.719632321891950
 Root     42 :    13.767236632191760
 Root     43 :    13.889594093880480
 Root     44 :    13.945685827677200
 Root     45 :    14.054993205067000
 Root     46 :    14.081886914152690
 Root     47 :    14.198378674476180
 Root     48 :    14.280974995033500
 Root     49 :    14.354521175448540
 Root     50 :    14.442725323724330
 Root     51 :    14.490391980839230
 Root     52 :    14.574794397953440
 Root     53 :    14.626869917871260
 Root     54 :    14.639348319239510
 Root     55 :    14.723442375511910
 Root     56 :    14.897676649876970
 Root     57 :    14.931677423172660
 Root     58 :    14.980484951793420
 Root     59 :    15.045283824868510
 Root     60 :    15.058846545777400
 Root     61 :    15.187601964255230
 Root     62 :    15.231595916481330
 Root     63 :    15.304071634526120
 Root     64 :    15.330285749909300
 Root     65 :    15.442669210796480
 Root     66 :    15.453807687736570
 Root     67 :    15.534104523414690
 Root     68 :    15.588138375878320
 Root     69 :    15.665824036206090
 Root     70 :    15.782250613347330
 Root     71 :    15.837622261434850
 Root     72 :    15.878875371825220
 Root     73 :    15.938580086670540
 Root     74 :    15.987227915514150
 Root     75 :    16.050551311409910
 Root     76 :    16.161832126943310
 Root     77 :    16.194737708135880
 Root     78 :    16.260967164084380
 Root     79 :    16.285156513646580
 Root     80 :    16.303326984296490
 Root     81 :    16.408906926918510
 Root     82 :    16.441052637361260
 Root     83 :    16.457539948028670
 Root     84 :    16.467771558505120
 Root     85 :    16.571885397641490
 Root     86 :    16.593821631139050
 Root     87 :    16.640795306805180
 Root     88 :    16.766737300238900
 Root     89 :    16.839891869541360
 Root     90 :    16.881751592890310
 Root     91 :    16.946402082951690
 Root     92 :    16.988146130276400
 Root     93 :    17.027067919848750
 Root     94 :    17.108234643807190
 Root     95 :    17.150974273821360
 Root     96 :    17.233245413991480
 Root     97 :    17.278181876037460
 Root     98 :    17.346048434376460
 Root     99 :    17.367319259288410
 Root    100 :    17.446253367711230
 Root    101 :    17.476512596838860
 Root    102 :    17.537882066505180
 Root    103 :    17.556285286657920
 Root    104 :    17.630993016924070
 Root    105 :    17.725237636452390
 Root    106 :    17.745415084051970
 Root    107 :    17.797241953003380
 Root    108 :    17.858744344914800
 Root    109 :    17.909543405763380
 Root    110 :    17.951806138202350
 Root    111 :    18.006504458540390
 Root    112 :    18.051784439048080
 Root    113 :    18.101085655974960
 Root    114 :    18.146616036541490
 Root    115 :    18.177374975625890
 Root    116 :    18.216681015712810
 Root    117 :    18.228292552790200
 Root    118 :    18.306660400091300
 Root    119 :    18.360175080300030
 Root    120 :    18.380442814807320
 Root    121 :    18.453299956836450
 Root    122 :    18.496698098776430
 Root    123 :    18.518916981665530
 Root    124 :    18.538004329707170
 Root    125 :    18.615880366989880
 Root    126 :    18.687847699080910
 Root    127 :    18.708565593224670
 Root    128 :    18.766767568016370
 Root    129 :    18.918892061236130
 Root    130 :    18.953978536027100
 Root    131 :    19.007263545680900
 Root    132 :    19.063726289637170
 Root    133 :    19.084881508728350
 Root    134 :    19.120009283114080
 Root    135 :    19.166769745276510
 Root    136 :    19.211857334630250
 Root    137 :    19.221223406062140
 Root    138 :    19.252335746156300
 Root    139 :    19.273292958047620
 Root    140 :    19.310097392027860
 Root    141 :    19.341515860318680
 Root    142 :    19.432192836952150
 Root    143 :    19.472009088749490
 Root    144 :    19.518970123096050
 Root    145 :    19.576616562786050
 Root    146 :    19.624567200560640
 Root    147 :    19.697965010117380
 Root    148 :    19.731537779796590
 Root    149 :    19.759904411336870
 Root    150 :    19.790045781461400
 Root    151 :    19.818351266078760
 Root    152 :    19.867058122326890
 Root    153 :    19.930356152057480
 Root    154 :    19.940990427616090
 Root    155 :    20.001945208168290
 Root    156 :    20.020080508531210
 Root    157 :    20.088267318228030
 Root    158 :    20.128234526500710
 Root    159 :    20.160384525497310
 Root    160 :    20.255579565095790
 Root    161 :    20.272078847744040
 Root    162 :    20.331192706895640
 Root    163 :    20.367651633155030
 Root    164 :    20.458577083438240
 Root    165 :    20.517330839384210
 Root    166 :    20.564814995293060
 Root    167 :    20.618898458653150
 Root    168 :    20.696354628496310
 Root    169 :    20.717167292495500
 Root    170 :    20.723806369679570
 Root    171 :    20.745952193082970
 Root    172 :    20.812472109356690
 Root    173 :    20.826220436553470
 Root    174 :    20.889280686286980
 Root    175 :    20.907937445256100
 Root    176 :    20.918420030290570
 Root    177 :    21.006452984274330
 Root    178 :    21.021638844153760
 Root    179 :    21.047517445244570
 Root    180 :    21.115247059059140
 Root    181 :    21.165933073267630
 Root    182 :    21.226513514554020
 Root    183 :    21.251197649099420
 Root    184 :    21.309437781717810
 Root    185 :    21.345270851380010
 Root    186 :    21.421909219287390
 Root    187 :    21.448725824127410
 Root    188 :    21.481242012354690
 Root    189 :    21.529206092282390
 Root    190 :    21.548150703562650
 Root    191 :    21.575516016076160
 Root    192 :    21.630235748480530
 Root    193 :    21.678680905523770
 Root    194 :    21.722264664156630
 Root    195 :    21.756134343543700
 Root    196 :    21.768110169971020
 Root    197 :    21.839410266931650
 Root    198 :    21.855457369683130
 Root    199 :    21.916316721655160
 Root    200 :    21.952230991514970
 Root    201 :    22.011009223824040
 Root    202 :    22.038780074504080
 Root    203 :    22.059283112201820
 Root    204 :    22.090841856984310
 Root    205 :    22.147192668167280
 Root    206 :    22.203290287185920
 Root    207 :    22.235280208320650
 Root    208 :    22.292712486841370
 Root    209 :    22.298720409736600
 Root    210 :    22.385422261194820
 Root    211 :    22.397228909444970
 Root    212 :    22.447912647690230
 Root    213 :    22.485306330411160
 Root    214 :    22.503911174313690
 Root    215 :    22.546638166536730
 Root    216 :    22.568444356233430
 Root    217 :    22.601427179708360
 Root    218 :    22.653962441134450
 Root    219 :    22.688798498102650
 Root    220 :    22.741263990204660
 Root    221 :    22.785900492631490
 Root    222 :    22.821988154565460
 Root    223 :    22.850396038878570
 Root    224 :    22.879868136830100
 Root    225 :    22.904736407020960
 Root    226 :    22.923642748768020
 Root    227 :    22.982774729672350
 Root    228 :    23.063018843293060
 Root    229 :    23.090789179803210
 Root    230 :    23.115596592391150
 Root    231 :    23.161068644312830
 Root    232 :    23.205186258951950
 Root    233 :    23.232512124447120
 Root    234 :    23.300069606625380
 Root    235 :    23.303827285573950
 Root    236 :    23.381420282154750
 Root    237 :    23.416918517804860
 Root    238 :    23.422633925900300
 Root    239 :    23.455254655958590
 Root    240 :    23.497255020712500
 Root    241 :    23.503801311298510
 Root    242 :    23.570330827934100
 Root    243 :    23.607355363282340
 Root    244 :    23.686973584428730
 Root    245 :    23.712250958086700
 Root    246 :    23.751506300639280
 Root    247 :    23.763810753591860
 Root    248 :    23.862496566214690
 Root    249 :    23.904508341865280
 Root    250 :    23.937757853461540
 Root    251 :    23.974230680555730
 Root    252 :    24.028008350993090
 Root    253 :    24.054968025920380
 Root    254 :    24.110134473069940
 Root    255 :    24.143650301237780
 Root    256 :    24.190019232456370
 Root    257 :    24.214091409586920
 Root    258 :    24.295066869446960
 Root    259 :    24.329245190522570
 Root    260 :    24.351338323770090
 Root    261 :    24.403984623620070
 Root    262 :    24.442054411742180
 Root    263 :    24.467740439145510
 Root    264 :    24.521031642565770
 Root    265 :    24.589544084775370
 Root    266 :    24.636185471150030
 Root    267 :    24.686298752412810
 Root    268 :    24.775480553327340
 Root    269 :    24.789431546138200
 Root    270 :    24.812437965570930
 Root    271 :    24.845119422552060
 Root    272 :    24.886185085616810
 Root    273 :    24.904106114916660
 Root    274 :    24.990351191432830
 Root    275 :    25.035815568878300
 Root    276 :    25.069918408827710
 Root    277 :    25.076313535178300
 Root    278 :    25.135008541665170
 Root    279 :    25.174140568190960
 Root    280 :    25.234754732800340
 Root    281 :    25.270218558679560
 Root    282 :    25.350178603769460
 Root    283 :    25.371483289310850
 Root    284 :    25.447084679885150
 Root    285 :    25.493657648536130
 Root    286 :    25.499328718605100
 Root    287 :    25.530831924864470
 Root    288 :    25.559123202125890
 Root    289 :    25.616602161719100
 Root    290 :    25.659967250653680
 Root    291 :    25.709363861637880
 Root    292 :    25.780784033788350
 Root    293 :    25.810731711681520
 Root    294 :    25.833267689155070
 Root    295 :    25.859268381104420
 Root    296 :    25.892408508305940
 Root    297 :    25.920945478561410
 Root    298 :    25.950838793436230
 Root    299 :    26.054379624551500
 Root    300 :    26.148449762759970
 Root    301 :    26.163749146005540
 Root    302 :    26.195720035285150
 Root    303 :    26.285994239544230
 Root    304 :    26.299423892227700
 Root    305 :    26.348634668806470
 Root    306 :    26.414389417839030
 Root    307 :    26.504636147167980
 Root    308 :    26.537431399613710
 Root    309 :    26.585886613658710
 Root    310 :    26.675268130419690
 Root    311 :    26.739758582003990
 Root    312 :    26.804991981512300
 Root    313 :    26.833861164788320
 Root    314 :    26.953588366525640
 Root    315 :    26.972006214036620
 Root    316 :    27.029769540125080
 Root    317 :    27.038178292744900
 Root    318 :    27.091830568101210
 Root    319 :    27.100254392505830
 Root    320 :    27.169144281102650
 Root    321 :    27.233810306417080
 Root    322 :    27.265241861596340
 Root    323 :    27.302764521944930
 Root    324 :    27.335400254950360
 Root    325 :    27.405155722933810
 Root    326 :    27.452129865697260
 Root    327 :    27.488901286787250
 Root    328 :    27.544757106449330
 Root    329 :    27.593031423486150
 Root    330 :    27.667038715917230
 Root    331 :    27.707926278908950
 Root    332 :    27.795514442709490
 Root    333 :    27.817609161766510
 Root    334 :    27.914054103216300
 Root    335 :    27.916303882141860
 Root    336 :    27.987896183666630
 Root    337 :    28.020317148575690
 Root    338 :    28.136418913180230
 Root    339 :    28.185221153340790
 Root    340 :    28.282400735977400
 Root    341 :    28.355896402171490
 Root    342 :    28.432633237807320
 Root    343 :    28.548338860730380
 Root    344 :    28.573984357726120
 Root    345 :    28.653928893352590
 Root    346 :    28.722925882242250
 Root    347 :    28.795626250126970
 Root    348 :    28.873719663822960
 Root    349 :    28.895278002231340
 Root    350 :    28.943283438394090
 Root    351 :    28.981525161781510
 Root    352 :    29.143107990026600
 Root    353 :    29.244933667988750
 Root    354 :    29.277671349419950
 Root    355 :    29.371232923443680
 Root    356 :    29.444267583015040
 Root    357 :    29.514113850161590
 Root    358 :    29.546305583142170
 Root    359 :    29.628734599032240
 Root    360 :    29.696298416838420
 Root    361 :    29.719676265454820
 Root    362 :    29.895056356534690
 Root    363 :    29.946266818791810
 Root    364 :    30.004079150612230
 Root    365 :    30.021618916623780
 Root    366 :    30.054632143225640
 Root    367 :    30.122047589105070
 Root    368 :    30.163619296182190
 Root    369 :    30.282926514741390
 Root    370 :    30.341580111041100
 Root    371 :    30.406249074508130
 Root    372 :    30.466657802719390
 Root    373 :    30.527684774419300
 Root    374 :    30.543556786275140
 Root    375 :    30.703593637051260
 Root    376 :    30.749048899877690
 Root    377 :    30.784056980445080
 Root    378 :    30.885997133718340
 Root    379 :    30.920766830858260
 Root    380 :    30.969040511988960
 Root    381 :    30.998606411835370
 Root    382 :    31.026255538101460
 Root    383 :    31.083699301258440
 Root    384 :    31.137207501608830
 Root    385 :    31.156589787419100
 Root    386 :    31.234875686921940
 Root    387 :    31.280668940058040
 Root    388 :    31.322900203849400
 Root    389 :    31.497443443913510
 Root    390 :    31.571747505938210
 Root    391 :    31.624097339987230
 Root    392 :    31.710552947828790
 Root    393 :    31.843684097338960
 Root    394 :    31.869074317296610
 Root    395 :    31.937047402055970
 Root    396 :    31.981616672802750
 Root    397 :    32.011221816800950
 Root    398 :    32.080257813178780
 Root    399 :    32.150045971510440
 Root    400 :    32.205637200747700
 Root    401 :    32.251454085905100
 Root    402 :    32.313710077987340
 Root    403 :    32.343872288485010
 Root    404 :    32.376317927703820
 Root    405 :    32.422859637013310
 Root    406 :    32.438918565398620
 Root    407 :    32.581452786842820
 Root    408 :    32.625514228339810
 Root    409 :    32.704427780858300
 Root    410 :    32.725020711487400
 Root    411 :    32.797109968615860
 Root    412 :    32.881197017131140
 Root    413 :    32.946425065216190
 Root    414 :    32.954678801298930
 Root    415 :    33.014261352640420
 Root    416 :    33.040270625525140
 Root    417 :    33.150175639272710
 Root    418 :    33.181912721936190
 Root    419 :    33.261046540355320
 Root    420 :    33.399771729453340
 Root    421 :    33.519021447018100
 Root    422 :    33.525066514377780
 Root    423 :    33.679859670961730
 Root    424 :    33.793790023277030
 Root    425 :    33.894158308834410
 Root    426 :    33.948384197902520
 Root    427 :    33.986493856736030
 Root    428 :    34.012560486830130
 Root    429 :    34.099061918459640
 Root    430 :    34.262864735640730
 Root    431 :    34.284267219010420
 Root    432 :    34.392624522398680
 Root    433 :    34.474018511622270
 Root    434 :    34.508788216606530
 Root    435 :    34.587582977255220
 Root    436 :    34.675819280287080
 Root    437 :    34.806940053223340
 Root    438 :    34.830555255118570
 Root    439 :    34.850966079359200
 Root    440 :    34.950441446368300
 Root    441 :    35.050345944437790
 Root    442 :    35.093588893619230
 Root    443 :    35.208657750211570
 Root    444 :    35.278492018871380
 Root    445 :    35.407096124960300
 Root    446 :    35.450933764156230
 Root    447 :    35.539281545440110
 Root    448 :    35.614594319045000
 Root    449 :    35.643207285229420
 Root    450 :    35.653482023030490
 Root    451 :    35.768131235759330
 Root    452 :    35.818247595562810
 Root    453 :    35.907101084050030
 Root    454 :    36.110147184486730
 Root    455 :    36.144695184958130
 Root    456 :    36.195821600823020
 Root    457 :    36.221053381389090
 Root    458 :    36.287158571446400
 Root    459 :    36.332997995307010
 Root    460 :    36.390719163797400
 Root    461 :    36.449836757531450
 Root    462 :    36.577681967074750
 Root    463 :    36.604431773950980
 Root    464 :    36.629364006718280
 Root    465 :    36.697575159116010
 Root    466 :    36.773681506111260
 Root    467 :    36.812475238039700
 Root    468 :    36.955230961794450
 Root    469 :    37.058126919358880
 Root    470 :    37.151254532830930
 Root    471 :    37.187638304289560
 Root    472 :    37.254599610936370
 Root    473 :    37.281256530110470
 Root    474 :    37.378840962395440
 Root    475 :    37.442782507336280
 Root    476 :    37.543245441437750
 Root    477 :    37.558557798443690
 Root    478 :    37.620184319888340
 Root    479 :    37.699725542725280
 Root    480 :    37.765742406938390
 Root    481 :    37.930612862305760
 Root    482 :    37.967908175642200
 Root    483 :    38.013512622132960
 Root    484 :    38.126750402526610
 Root    485 :    38.238671892395570
 Root    486 :    38.365215187479440
 Root    487 :    38.451649555794570
 Root    488 :    38.521442577793400
 Root    489 :    38.581014155449920
 Root    490 :    38.592280604285470
 Root    491 :    38.679765134210460
 Root    492 :    38.729325153801370
 Root    493 :    39.012547519301410
 Root    494 :    39.093011381957780
 Root    495 :    39.156387229925110
 Root    496 :    39.196874635087990
 Root    497 :    39.219205951190110
 Root    498 :    39.308814692356900
 Root    499 :    39.420072896189420
 Root    500 :    39.478291881246610
 Root    501 :    39.677099556791810
 Root    502 :    39.729588109200510
 Root    503 :    39.772622326790510
 Root    504 :    39.811923366331940
 Root    505 :    39.861121987930490
 Root    506 :    39.940310424312050
 Root    507 :    40.015069042275390
 Root    508 :    40.116354110474350
 Root    509 :    40.168708830520920
 Root    510 :    40.223166269870610
 Root    511 :    40.303938503997250
 Root    512 :    40.486618154055680
 Root    513 :    40.513206438272380
 Root    514 :    40.540715084352390
 Root    515 :    40.704405311505210
[...]
     15   0.502957D-01 -0.343325D+00 -0.914600D-01  0.288609D+00 -0.937349D+00
     16  -0.840490D-01  0.567392D-02 -0.541992D-01  0.181787D-01  0.148030D+00
               911           912           913           914           915 
      1  -0.151383D+03 -0.151374D+03 -0.151374D+03 -0.151367D+03 -0.151351D+03
      2  -0.450371D-01 -0.921208D-02  0.513953D-01  0.110176D-01 -0.322051D-01
      3  -0.525404D-01 -0.731153D-01  0.274918D-01  0.476640D-01  0.213890D-01
      4  -0.292455D-01 -0.368252D-01 -0.251697D-01  0.680840D-01 -0.109742D-01
      5   0.136797D+00  0.192359D-01 -0.149187D+00 -0.322797D-01  0.105237D+00
      6   0.157971D+00  0.214280D+00 -0.794309D-01 -0.138824D+00 -0.572849D-01
      7   0.932835D-01  0.109497D+00  0.886677D-01 -0.195775D+00  0.279791D-01
      8  -0.245479D-01 -0.294739D-01 -0.261362D-01 -0.107309D+00  0.276956D-01
      9  -0.297772D+00 -0.333605D+00 -0.218190D+00  0.254089D-01  0.641482D-01
     10   0.280060D+00 -0.588296D-01 -0.111598D+00 -0.186661D+00 -0.134807D+00
     11   0.481018D+00  0.396190D+00 -0.241972D+00  0.199249D+00  0.256385D+00
     12  -0.138177D+00  0.257787D-01 -0.135407D+00  0.654020D-01  0.676876D-01
     13  -0.115298D+00 -0.110171D+00 -0.950021D-01 -0.160846D-01 -0.895206D-02
     14   0.214152D+00 -0.236616D-02  0.440674D-01 -0.463846D-01 -0.385874D-01
     15   0.354308D+00  0.379816D+00  0.161700D+00 -0.373078D-01 -0.207845D-01
     16  -0.101413D+00 -0.104863D+00 -0.166637D+00 -0.479448D-01  0.560781D-01
               916           917           918           919           920 
      1  -0.151344D+03 -0.151342D+03 -0.151338D+03 -0.151324D+03 -0.151318D+03
      2  -0.317821D-02  0.607136D-01  0.729671D-01  0.908939D-01 -0.387591D-01
      3  -0.379454D-01  0.174898D-01  0.585794D-01 -0.529269D-02  0.739092D-01
      4  -0.337496D-01 -0.715911D-01  0.185260D-01 -0.184259D-01  0.101522D+00
      5   0.115027D-01 -0.181869D+00 -0.222927D+00 -0.291311D+00  0.120258D+00
      6   0.109415D+00 -0.593074D-01 -0.183360D+00  0.208408D-01 -0.223431D+00
      7   0.114258D+00  0.231156D+00 -0.475322D-01  0.568558D-01 -0.308275D+00
      8  -0.157247D+00 -0.175890D+00 -0.654767D-01  0.722670D-01  0.343378D-01
      9  -0.288024D+00 -0.845183D+00  0.316064D+00 -0.164899D+00  0.618686D+00
     10   0.137139D+00 -0.486053D+00 -0.380893D+00 -0.311977D-01 -0.527821D+00
     11   0.519637D+00 -0.143811D+01 -0.390398D+00 -0.835790D+00 -0.454124D+00
     12   0.156362D+00  0.845716D-01  0.296823D+00 -0.194772D+00 -0.722459D-01
     13  -0.153309D+00 -0.135734D+00  0.528484D-01  0.408937D-01  0.420148D+00
     14   0.170831D-01 -0.240345D+00 -0.214885D+00  0.708968D-01 -0.883498D+00
     15   0.177425D+00  0.980684D+00 -0.235115D+00  0.310245D+00 -0.734735D+00
     16  -0.139330D+00 -0.461637D-01  0.480713D-01  0.200078D-01  0.919731D-01
               921           922           923           924           925 
      1  -0.151317D+03 -0.151314D+03 -0.151304D+03 -0.151294D+03 -0.151291D+03
      2   0.900861D-02 -0.530948D-01 -0.352576D-01 -0.388291D-01  0.918145D-02
      3   0.574088D-01 -0.351967D-02  0.391198D-01 -0.335940D-01 -0.200702D-01
      4  -0.925762D-01  0.874514D-03 -0.274259D-02 -0.596670D-01  0.547081D-01
      5  -0.278486D-01  0.161320D+00  0.115936D+00  0.124227D+00 -0.238507D-01
      6  -0.187241D+00  0.203408D-01 -0.110378D+00  0.955769D-01  0.690249D-01
      7   0.288787D+00 -0.232462D-02  0.811268D-03  0.184398D+00 -0.169060D+00
      8  -0.153595D+00  0.111882D-01  0.563864D-01 -0.772271D-01  0.747081D-01
      9  -0.628105D+00 -0.113467D+00 -0.843853D-01 -0.490100D+00  0.379199D+00
     10  -0.465931D+00  0.349609D+00  0.116826D+00  0.430426D+00 -0.737954D-02
     11  -0.107986D-01  0.941557D-01  0.105069D+01  0.571646D+00 -0.904637D-01
     12  -0.540800D-01 -0.363341D+00 -0.727502D-01 -0.145975D-01 -0.925806D-01
     13  -0.121279D+00 -0.692525D-01 -0.192608D-02 -0.695984D-01  0.132891D+00
     14  -0.513543D+00  0.141591D+00 -0.979479D-01  0.343106D+00 -0.109818D+00
     15   0.680352D+00  0.151639D+00 -0.647799D-01  0.422606D+00 -0.449325D+00
     16  -0.329984D-01 -0.929386D-01  0.754722D-01 -0.155784D+00  0.580335D-01
               926           927           928           929           930 
      1  -0.151289D+03 -0.151285D+03 -0.151278D+03 -0.151261D+03 -0.151257D+03
      2  -0.141472D+00 -0.230859D-01 -0.553824D-01  0.196809D-01 -0.207707D-01
      3  -0.537949D-01 -0.143212D-01  0.731685D-01 -0.862541D-02 -0.412026D-01
      4   0.568846D-01  0.435819D-01  0.368193D-01 -0.625995D-01 -0.148150D-01
      5   0.435967D+00  0.632046D-01  0.179034D+00 -0.803982D-01  0.603527D-01
      6   0.163699D+00  0.573930D-01 -0.231632D+00  0.348203D-01  0.113257D+00
      7  -0.183176D+00 -0.133237D+00 -0.101452D+00  0.197226D+00  0.481288D-01
      8   0.101830D+00  0.164819D+00 -0.634170D-01 -0.552210D-01 -0.423355D-01
      9   0.136041D+00  0.380599D+00  0.177328D+00 -0.214006D+00 -0.981914D-02
     10   0.654368D+00  0.174103D+00 -0.338400D+00  0.296670D+00 -0.972174D-01
     11   0.225229D+01  0.210220D+00  0.351088D+00 -0.614478D+00  0.901408D+00
     12   0.397359D-01 -0.821864D-01  0.167213D+00 -0.114043D-01 -0.987564D-01
     13   0.517452D-01  0.102757D+00  0.138475D+00 -0.227136D+00  0.430245D-02
     14   0.194163D+00  0.129539D-02 -0.546402D+00  0.286497D+00  0.123195D+00
     15  -0.540847D+00 -0.421953D+00 -0.310131D+00  0.202224D+00 -0.356759D-01
     16   0.665579D-01  0.129191D+00  0.763554D-01 -0.115761D+00 -0.553021D-01
               931           932           933           934           935 
      1  -0.151244D+03 -0.151238D+03 -0.151236D+03 -0.151229D+03 -0.151205D+03
      2  -0.102698D-01  0.596653D-01 -0.835652D-01  0.471772D-01  0.603733D-01
      3   0.291462D-01  0.394224D-01 -0.930350D-02 -0.526412D-02 -0.246044D-01
      4   0.201509D-01 -0.384790D-01  0.775559D-01 -0.214939D-01 -0.608269D-01
      5   0.332098D-01 -0.188023D+00  0.276745D+00 -0.148889D+00 -0.204214D+00
      6  -0.853663D-01 -0.120170D+00  0.259065D-01  0.178214D-01  0.878337D-01
      7  -0.648077D-01  0.133941D+00 -0.242294D+00  0.747754D-01  0.195269D+00
      8   0.654058D-01 -0.867177D-01  0.161076D+00 -0.150876D+00 -0.543126D-01
      9   0.115829D+00 -0.433440D+00  0.557260D+00 -0.512768D+00  0.187036D+00
     10   0.757256D-01 -0.759995D+00  0.100242D+00 -0.150239D+00 -0.558912D-01
     11  -0.361236D+00 -0.138170D+01  0.125973D+01 -0.194991D+00 -0.110688D+01
     12   0.921853D-01  0.343220D+00 -0.245513D+00 -0.177752D+00 -0.745708D-01
     13   0.101366D-02 -0.650741D-02  0.121348D+00 -0.152318D+00  0.902070D-03
     14  -0.107076D-01 -0.523453D+00 -0.158952D+00 -0.157157D+00  0.579652D-01
     15  -0.209977D+00  0.542754D+00 -0.738460D+00  0.574311D+00 -0.451019D-03
     16   0.142741D+00  0.918174D-01  0.121398D+00 -0.152256D+00  0.429924D-01
               936           937           938           939           940 
      1  -0.151200D+03 -0.151193D+03 -0.151191D+03 -0.151177D+03 -0.151175D+03
      2  -0.366012D-03  0.235505D-02 -0.111256D-01  0.554395D-01 -0.712892D-02
      3   0.647661D-02 -0.506916D-02  0.236705D-02  0.144085D-01 -0.451206D-02
      4  -0.227183D-01  0.268753D-01  0.109997D-01 -0.113745D-01 -0.456995D-01
      5   0.847871D-03 -0.113632D-01  0.457013D-01 -0.139225D+00  0.279188D-01
      6  -0.273608D-01  0.223374D-01 -0.346972D-02 -0.349817D-01  0.963559D-02
      7   0.653127D-01 -0.800077D-01 -0.360063D-01  0.429428D-01  0.125763D+00
      8   0.311588D-01 -0.338839D-01 -0.988239D-02 -0.559415D-01  0.683451D-01
      9  -0.193171D+00  0.129747D+00  0.612139D-01 -0.103744D+00  0.314250D+00
     10  -0.712168D-01 -0.167658D-01 -0.763390D-01 -0.200814D+00  0.431353D-01
     11  -0.140499D-01 -0.431278D-01  0.280917D+00  0.659725D+00  0.347982D+00
     12  -0.303935D-01  0.481256D-01  0.127383D+00 -0.108670D+00  0.548496D-02
     13   0.116656D+00  0.979020D-01  0.223275D-01  0.484379D-01  0.588227D-01
     14  -0.611425D-01  0.818761D-01  0.537278D-02 -0.904126D-01  0.402328D-02
     15   0.113852D+00 -0.980967D-01 -0.666007D-01  0.880378D-01 -0.376282D+00
     16   0.202096D-01  0.105635D-01  0.158462D-01 -0.561904D-01  0.514092D-01
               941           942           943           944           945 
      1  -0.151168D+03 -0.151155D+03 -0.151138D+03 -0.151125D+03 -0.151124D+03
      2  -0.113265D-01 -0.392823D-01 -0.171665D-01  0.619923D-01  0.575375D-01
      3  -0.321941D-01  0.151528D-01  0.566621D-01  0.109681D+00  0.994123D-01
      4   0.463678D-01  0.439399D-01 -0.118837D-01  0.547977D-01  0.102921D+00
      5   0.410300D-01  0.146599D+00  0.627708D-01 -0.196219D+00 -0.169959D+00
      6   0.111810D+00 -0.436976D-01 -0.165129D+00 -0.336300D+00 -0.326928D+00
      7  -0.152722D+00 -0.157469D+00  0.353705D-01 -0.174770D+00 -0.335747D+00
      8   0.853814D-01  0.219395D+00 -0.747611D-01  0.381691D-01 -0.685602D-01
      9   0.235599D+00  0.243821D+00  0.230719D-01  0.474249D+00  0.106548D+01
     10   0.291808D+00 -0.206421D+00  0.173390D+00 -0.304155D+00 -0.910433D+00
     11   0.663546D+00  0.763413D+00  0.444641D-01 -0.105937D+01 -0.878783D+00
     12  -0.177872D+00 -0.220515D+00  0.104830D+00  0.192130D+00  0.132615D+00
     13   0.384549D-01  0.160929D+00 -0.114051D+00  0.499469D-01  0.272438D+00
     14   0.293522D+00 -0.342456D+00  0.258033D+00 -0.268062D+00 -0.918575D+00
     15  -0.326180D+00 -0.355813D+00 -0.314524D-01 -0.338756D+00 -0.109152D+01
     16   0.858188D-01  0.475321D-01 -0.420436D-01  0.191167D+00  0.171037D+00
               946           947           948           949           950 
      1  -0.151101D+03 -0.151095D+03 -0.151073D+03 -0.151054D+03 -0.151020D+03
      2   0.110579D-01  0.133323D+00 -0.129188D-01 -0.296191D-01  0.122294D-01
      3   0.880598D-01  0.126348D+00 -0.942457D-02 -0.695846D-01  0.306036D-01
      4  -0.317566D-01  0.168760D+00  0.398118D-01 -0.614517D-01 -0.302591D-01
      5  -0.251457D-01 -0.440793D+00  0.499913D-01  0.948837D-01 -0.314848D-01
      6  -0.297223D+00 -0.405507D+00  0.361354D-01  0.235503D+00 -0.902166D-01
      7   0.110067D+00 -0.544835D+00 -0.116971D+00  0.202405D+00  0.876600D-01
      8  -0.266984D-01  0.198990D+00  0.820399D-01 -0.540845D-01  0.780052D-01
      9  -0.243116D+00  0.982212D+00 -0.334855D+00 -0.418334D+00  0.106262D+00
     10  -0.655833D+00 -0.115497D+01  0.407942D+00  0.635742D+00  0.450652D-02
     11  -0.281735D+00 -0.209549D+01  0.136547D+00  0.388134D+00  0.784291D-01
     12   0.321715D+00  0.425614D+00 -0.240641D-01 -0.244250D+00 -0.191621D+00
     13  -0.122723D+00  0.348777D+00 -0.884286D-01 -0.731576D-01  0.411232D-01
     14  -0.749668D+00 -0.770299D+00  0.208733D+00  0.493841D+00  0.540212D-01
     15   0.374681D+00 -0.830639D+00  0.256344D+00  0.439430D+00 -0.203228D-02
     16  -0.561264D-01  0.420190D+00 -0.974619D-01 -0.143016D+00  0.193300D-01
               951           952           953           954           955 
      1  -0.151016D+03 -0.151011D+03 -0.150993D+03 -0.150988D+03 -0.150984D+03
      2   0.241818D-01 -0.927972D-01 -0.106484D-01  0.137475D-01 -0.274246D-01
      3   0.397837D-02  0.311834D-01  0.260822D-02  0.814889D-01  0.411484D-01
      4   0.535867D-01 -0.228106D-01  0.179577D-01  0.587068D-01  0.976854D-02
      5  -0.789919D-01  0.321675D+00  0.289963D-01 -0.288928D-01  0.105352D+00
      6  -0.147206D-01 -0.115860D+00 -0.204678D-01 -0.281563D+00 -0.131923D+00
      7  -0.164445D+00  0.805564D-01 -0.543722D-01 -0.192090D+00 -0.224197D-01
      8  -0.559296D-01 -0.171245D+00 -0.323072D-01  0.939053D-01 -0.108680D+00
      9   0.288887D-01 -0.357888D+00 -0.376042D-01  0.497335D+00 -0.222723D+00
     10  -0.119298D+00 -0.206098D+00 -0.447035D+00 -0.743373D+00  0.101987D+00
     11  -0.281079D+00  0.140748D+01  0.855681D-01 -0.421071D+00  0.206881D+00
     12  -0.860015D-01  0.195979D+00  0.849609D-01  0.512641D+00  0.106714D+00
     13   0.378204D-01 -0.170569D+00 -0.219509D-01  0.150252D+00 -0.378234D-01
     14  -0.134789D+00 -0.496722D+00 -0.270609D+00 -0.699745D+00  0.445129D-02
     15  -0.464600D-01  0.314736D+00  0.132577D+00 -0.564053D+00  0.255290D+00
     16  -0.340901D-01 -0.111962D+00 -0.522728D-02  0.284911D+00 -0.188278D-01
               956           957           958           959           960 
      1  -0.150943D+03 -0.150939D+03 -0.150909D+03 -0.150898D+03 -0.150897D+03
      2   0.370937D-01 -0.123121D+00 -0.469343D-01  0.167584D-02 -0.620868D-01
      3  -0.469973D-01  0.594485D-01  0.385795D-01  0.312096D-02 -0.399136D-01
      4   0.132010D-01 -0.123345D-01  0.106638D-01 -0.161855D-01 -0.249274D-01
      5  -0.123831D+00  0.436777D+00  0.172252D+00  0.211421D-02  0.207250D+00
      6   0.165679D+00 -0.217853D+00 -0.147648D+00 -0.229946D-02  0.127370D+00
      7  -0.361892D-01  0.473562D-01 -0.297075D-01  0.570068D-01  0.842896D-01
      8  -0.268308D-01 -0.959899D-01 -0.825307D-01 -0.454298D-01 -0.544149D-01
      9  -0.213192D+00 -0.252799D+00  0.117944D-01 -0.138820D+00 -0.312302D+00
     10   0.731063D-01 -0.200592D+00 -0.338871D+00  0.111970D+00  0.337231D+00
     11   0.720803D-02  0.197991D+01  0.897887D+00  0.591735D-01  0.656382D+00
     12  -0.260168D+00 -0.133747D+00  0.179622D+00 -0.344550D+00 -0.102490D+00
     13   0.548613D-01 -0.279252D-01 -0.875613D-01  0.244598D+00  0.189948D+00
     14   0.247181D+00 -0.339463D+00 -0.467860D+00 -0.564856D-01  0.491557D-01
     15   0.298479D+00  0.718151D-01 -0.695563D-01  0.199038D+00  0.256155D+00
     16  -0.134847D+00 -0.488549D-01 -0.549724D-01 -0.222086D-01  0.594457D-01
               961           962           963           964           965 
      1  -0.150887D+03 -0.150861D+03 -0.150801D+03 -0.150783D+03 -0.150762D+03
      2  -0.942695D-01 -0.242493D-01 -0.284019D-01 -0.513559D-02  0.795765D-02
      3   0.890014D-01  0.160474D-01 -0.198884D-01 -0.876739D-02 -0.226698D-01
      4   0.109602D-01  0.339666D-01  0.305799D-01 -0.338618D-01 -0.427989D-01
      5   0.351754D+00  0.818412D-01  0.101670D+00  0.183814D-01 -0.378158D-01
      6  -0.330211D+00 -0.535460D-01  0.618283D-01  0.334369D-01  0.792821D-01
      7  -0.415120D-01 -0.109062D+00 -0.102256D+00  0.113116D+00  0.153288D+00
      8   0.189676D-01 -0.285458D-03  0.391252D-02  0.730963D-01 -0.396598D-01
      9   0.114057D+00 -0.138258D+00  0.170494D+00 -0.127411D+00 -0.289428D+00
     10  -0.696147D+00 -0.139337D-02  0.580865D-01  0.978820D-01  0.650244D-01
     11   0.134135D+01  0.151838D+00  0.528538D+00  0.612246D-01 -0.506143D-01
     12   0.161702D+00  0.108943D-02 -0.225362D-01 -0.999950D-01 -0.114267D+00
     13   0.475702D-01 -0.476886D-01  0.149452D-01  0.761124D-01  0.114479D-01
     14  -0.761411D+00 -0.137775D-01 -0.405423D-02  0.366764D-01 -0.838908D-02
     15  -0.294654D+00  0.206096D+00 -0.116861D-01  0.110490D+00  0.188286D+00
     16   0.205802D+00  0.735993D-02 -0.163512D-01  0.582789D-02 -0.100630D+00
               966           967           968           969           970 
      1  -0.150751D+03 -0.150731D+03 -0.150672D+03 -0.150636D+03 -0.150629D+03
      2   0.986202D-02 -0.716856D-01 -0.161559D-01 -0.103963D+00  0.224966D-01
      3  -0.102552D-01 -0.846360D-01 -0.146514D-01  0.157573D+00 -0.280926D-02
      4  -0.116259D-01 -0.804680D-01  0.372622D-02 -0.767341D-01  0.997387D-02
      5  -0.765694D-01  0.272976D+00  0.630037D-01  0.413937D+00 -0.994363D-01
      6   0.662024D-01  0.318811D+00  0.532484D-01 -0.607611D+00  0.177723D-01
      7   0.466464D-01  0.302508D+00 -0.903799D-02  0.286289D+00 -0.256309D-01
      8  -0.849058D-02 -0.105876D+00 -0.234308D-01 -0.205299D+00 -0.716077D-01
      9  -0.648471D-01 -0.737388D+00 -0.609929D-01 -0.681630D+00 -0.989327D-01
     10   0.480718D-01  0.891250D+00  0.996211D-01 -0.112242D+01 -0.481223D-02
     11  -0.947364D+00  0.127174D+01  0.336060D+00  0.205289D+01 -0.484944D+00
     12  -0.283417D+00 -0.674669D-01  0.562666D-02  0.422356D+00 -0.138504D-01
     13   0.604218D-01 -0.327549D+00  0.257167D-02 -0.170935D+00 -0.137825D-01
     14   0.639194D+00  0.692829D+00 -0.474053D-01 -0.151525D+01  0.900699D-01
     15   0.178608D+00  0.534575D+00  0.876664D-02  0.480697D+00  0.289189D-01
     16  -0.746792D-01 -0.209964D+00  0.794964D-02  0.204300D+00 -0.100822D+00
               971           972           973           974           975 
      1  -0.150601D+03 -0.150556D+03 -0.150527D+03 -0.150480D+03 -0.150448D+03
      2  -0.805550D-02 -0.705554D-01 -0.331375D-01 -0.290563D-01 -0.336349D-01
      3   0.201846D-03  0.175282D-01 -0.424458D-01 -0.682443D-01 -0.621614D-04
      4   0.724888D-02  0.571193D-01  0.182732D-01  0.119202D+00  0.178915D-01
      5   0.113562D-01  0.290026D+00  0.134776D+00  0.127791D+00  0.138329D+00
      6   0.145631D-01 -0.848277D-01  0.155256D+00  0.251135D+00  0.208170D-03
      7  -0.266785D-01 -0.224572D+00 -0.633939D-01 -0.460486D+00 -0.755126D-01
      8   0.448220D-02  0.551669D-01  0.471115D-01  0.270662D+00  0.210494D-01
      9   0.626614D-01  0.410265D+00  0.148397D+00  0.102397D+01  0.136561D+00
     10   0.152120D+00 -0.829538D-01  0.383253D+00  0.639149D+00  0.246943D-01
     11  -0.428649D+00  0.134221D+01  0.542640D+00  0.453704D+00  0.684637D+00
     12  -0.229842D+00  0.140915D+00 -0.166560D-02 -0.281076D+00  0.483278D-01
     13   0.637801D-01  0.152419D+00 -0.164588D-01  0.379209D+00  0.317408D-01
     14   0.456658D+00 -0.352645D+00  0.334749D+00  0.593940D+00 -0.100648D+00
     15   0.863453D-02 -0.530985D+00 -0.243790D+00 -0.114191D+01 -0.203050D+00
     16  -0.403490D-01  0.432457D-01 -0.702711D-01 -0.199872D-01  0.148362D-01
               976           977           978           979           980 
      1  -0.150429D+03 -0.150421D+03 -0.150289D+03 -0.150135D+03 -0.149989D+03
      2   0.799545D-02 -0.244700D-01  0.946110D-02 -0.371026D-02  0.742809D-02
      3   0.273510D-01 -0.504405D-01  0.217730D-01  0.322029D-02  0.181291D-01
      4  -0.120723D-01  0.727408D-01 -0.373260D-01  0.178843D-02 -0.258776D-01
      5  -0.737924D-01  0.656012D-01 -0.507562D-01  0.127671D-01 -0.562818D-01
      6  -0.767254D-01  0.217073D+00 -0.788523D-01 -0.149269D-01 -0.509317D-01
      7   0.563651D-01 -0.283388D+00  0.151084D+00 -0.648722D-02  0.103288D+00
      8  -0.494052D-01  0.197830D+00 -0.815499D-01  0.871335D-02 -0.455572D-01
      9  -0.125335D+00  0.667793D+00 -0.331646D+00  0.184280D-01 -0.212542D+00
     10  -0.187981D+00  0.573260D+00 -0.208196D+00 -0.652259D-02 -0.128368D+00
     11  -0.346834D+00  0.247258D+00 -0.466471D+00 -0.154100D+00 -0.161273D+00
     12   0.406287D-01 -0.259092D+00 -0.193646D-01 -0.666194D-01  0.880490D-02
     13  -0.101188D+00  0.161556D+00 -0.103504D+00  0.377042D-01 -0.882029D-01
     14  -0.256091D+00  0.481993D+00 -0.264395D-02  0.689280D-01 -0.649668D-01
     15   0.159251D+00 -0.799633D+00  0.414945D+00 -0.639820D-02  0.258228D+00
     16  -0.606760D-01 -0.884658D-01 -0.634809D-01 -0.608096D-01  0.144939D+00
 Unable to Open any file for archive entry.
 1\1\GINC-HEL10\SP\RLC-wHPBE TD-FC\Gen\C2H6O1\SABYASACHI\21-Mar-2022\0\
 \#P TD(Nstates=10000) lc-whpbe/Gen SCF(maxcycles=100) Int(Grid=ultrafi
 ne)\\xGDB7_00001_tier4.com\\0,1\C,0,-1.208422,-0.239069,-0.021917\C,0,
 0.083893,0.553452,0.046734\O,0,1.233467,-0.256002,-0.105864\H,0,-2.071
 999,0.425136,0.0517\H,0,-1.27067,-0.957756,0.799731\H,0,-1.270625,-0.7
 8828,-0.962327\H,0,0.13003,1.119197,0.986112\H,0,0.125952,1.277026,-0.
 768547\H,0,1.236751,-0.913605,0.591341\\Version=EM64L-G16RevC.01\State
 =1-A\HF=-154.8516397\RMSD=7.794e-09\PG=C01 [X(C2H6O1)]\\@
 The archive entry for this job was punched.


 YOU SHOULDN'T LET PEOPLE DRIVE YOU CRAZY
 WHEN YOU KNOW IT'S WITHIN WALKING DISTANCE.
 Job cpu time:       0 days  0 hours 24 minutes 22.0 seconds.
 Elapsed time:       0 days  0 hours  3 minutes  3.2 seconds.
 File lengths (MBytes):  RWF=   1237 Int=      0 D2E=      0 Chk=    291 Scr=      1
 Normal termination of Gaussian 16 at Mon Mar 21 20:23:08 2022.
