 Entering Gaussian System, Link 0=g16
 Input=000008.com
 Output=000008.log
 Initial command:
 /home/sabyasachi/g16/l1.exe "/scratch/sabyasachi/PBS_7976241.helios/Gau-109913.inp" -scrdir="/scratch/sabyasachi/PBS_7976241.helios/"
 Entering Link 1 = /home/sabyasachi/g16/l1.exe PID=    109914.
  
 Copyright (c) 1988-2019, Gaussian, Inc.  All Rights Reserved.
  
 This is part of the Gaussian(R) 16 program.  It is based on
 the Gaussian(R) 09 system (copyright 2009, Gaussian, Inc.),
 the Gaussian(R) 03 system (copyright 2003, Gaussian, Inc.),
 the Gaussian(R) 98 system (copyright 1998, Gaussian, Inc.),
 the Gaussian(R) 94 system (copyright 1995, Gaussian, Inc.),
 the Gaussian 92(TM) system (copyright 1992, Gaussian, Inc.),
 the Gaussian 90(TM) system (copyright 1990, Gaussian, Inc.),
 the Gaussian 88(TM) system (copyright 1988, Gaussian, Inc.),
 the Gaussian 86(TM) system (copyright 1986, Carnegie Mellon
 University), and the Gaussian 82(TM) system (copyright 1983,
 Carnegie Mellon University). Gaussian is a federally registered
 trademark of Gaussian, Inc.
  
 This software contains proprietary and confidential information,
 including trade secrets, belonging to Gaussian, Inc.
  
 This software is provided under written license and may be
 used, copied, transmitted, or stored only in accord with that
 written license.
  
 The following legend is applicable only to US Government
 contracts under FAR:
  
                    RESTRICTED RIGHTS LEGEND
  
 Use, reproduction and disclosure by the US Government is
 subject to restrictions as set forth in subparagraphs (a)
 and (c) of the Commercial Computer Software - Restricted
 Rights clause in FAR 52.227-19.
  
 Gaussian, Inc.
 340 Quinnipiac St., Bldg. 40, Wallingford CT 06492
  
  
 ---------------------------------------------------------------
 Warning -- This program may not be used in any manner that
 competes with the business of Gaussian, Inc. or will provide
 assistance to any competitor of Gaussian, Inc.  The licensee
 of this program is prohibited from giving any competitor of
 Gaussian, Inc. access to this program.  By using this program,
 the user acknowledges that Gaussian, Inc. is engaged in the
 business of creating and licensing software in the field of
 computational chemistry and represents and warrants to the
 licensee that it is not a competitor of Gaussian, Inc. and that
 it will not use this program in any manner prohibited above.
 ---------------------------------------------------------------
  

 Cite this work as:
 Gaussian 16, Revision C.01,
 M. J. Frisch, G. W. Trucks, H. B. Schlegel, G. E. Scuseria, 
 M. A. Robb, J. R. Cheeseman, G. Scalmani, V. Barone, 
 G. A. Petersson, H. Nakatsuji, X. Li, M. Caricato, A. V. Marenich, 
 J. Bloino, B. G. Janesko, R. Gomperts, B. Mennucci, H. P. Hratchian, 
 J. V. Ortiz, A. F. Izmaylov, J. L. Sonnenberg, D. Williams-Young, 
 F. Ding, F. Lipparini, F. Egidi, J. Goings, B. Peng, A. Petrone, 
 T. Henderson, D. Ranasinghe, V. G. Zakrzewski, J. Gao, N. Rega, 
 G. Zheng, W. Liang, M. Hada, M. Ehara, K. Toyota, R. Fukuda, 
 J. Hasegawa, M. Ishida, T. Nakajima, Y. Honda, O. Kitao, H. Nakai, 
 T. Vreven, K. Throssell, J. A. Montgomery, Jr., J. E. Peralta, 
 F. Ogliaro, M. J. Bearpark, J. J. Heyd, E. N. Brothers, K. N. Kudin, 
 V. N. Staroverov, T. A. Keith, R. Kobayashi, J. Normand, 
 K. Raghavachari, A. P. Rendell, J. C. Burant, S. S. Iyengar, 
 J. Tomasi, M. Cossi, J. M. Millam, M. Klene, C. Adamo, R. Cammi, 
 J. W. Ochterski, R. L. Martin, K. Morokuma, O. Farkas, 
 J. B. Foresman, and D. J. Fox, Gaussian, Inc., Wallingford CT, 2019.
 
 ******************************************
 Gaussian 16:  EM64L-G16RevC.01  3-Jul-2019
                21-Mar-2022 
 ******************************************
 %mem=64gb
 %nproc=8
 Will use up to    8 processors via shared memory.
 ----------------------------------------------------------------------
 #P TD(Nstates=10000) lc-whpbe/Gen SCF(maxcycles=100) Int(Grid=ultrafin
 e)
 ----------------------------------------------------------------------
 1/38=1,172=1/1;
 2/12=2,17=6,18=5,40=1/2;
 3/5=7,11=9,25=1,30=1,74=-71,75=-5/1,2,3,8;
 4//1;
 5/5=2,7=100,38=5/2;
 8/6=1,10=1,108=10000/1;
 9/41=10000,42=1,70=2/14;
 6/7=2,8=2,9=2,10=2/1;
 99/5=1,9=1/99;
 Leave Link    1 at Mon Mar 21 20:08:52 2022, MaxMem=  8589934592 cpu:               0.4 elap:               0.1
 (Enter /home/sabyasachi/g16/l101.exe)
 ---------------------
 xGDB7_00001_tier4.com
 ---------------------
 Symbolic Z-matrix:
 Charge =  0 Multiplicity = 1
 6                    -0.63015  0.         0. 
 9                     0.74851   0.       0. 
 1                    -0.98525   0.89968   0.50542 
 1                    -0.98522  -0.88756   0.52642 
 1                    -0.98525  -0.01213  -1.03184 
 
 ITRead=  0  0  0  0  0
 MicOpt= -1 -1 -1 -1 -1
 NAtoms=      5 NQM=        5 NQMF=       0 NMMI=      0 NMMIF=      0
                NMic=       0 NMicF=      0.
                    Isotopes and Nuclear Properties:
 (Nuclear quadrupole moments (NQMom) in fm**2, nuclear magnetic moments (NMagM)
  in nuclear magnetons)

  Atom         1           2           3           4           5
 IAtWgt=          12          19           1           1           1
 AtmWgt=  12.0000000  18.9984033   1.0078250   1.0078250   1.0078250
 NucSpn=           0           1           1           1           1
 AtZEff=  -0.0000000  -0.0000000  -0.0000000  -0.0000000  -0.0000000
 NQMom=    0.0000000   0.0000000   0.0000000   0.0000000   0.0000000
 NMagM=    0.0000000   2.6288670   2.7928460   2.7928460   2.7928460
 AtZNuc=   6.0000000   9.0000000   1.0000000   1.0000000   1.0000000
 Leave Link  101 at Mon Mar 21 20:08:52 2022, MaxMem=  8589934592 cpu:               0.6 elap:               0.1
 (Enter /home/sabyasachi/g16/l202.exe)
                          Input orientation:                          
 ---------------------------------------------------------------------
 Center     Atomic      Atomic             Coordinates (Angstroms)
 Number     Number       Type             X           Y           Z
 ---------------------------------------------------------------------
      1          6           0       -0.630149   -0.000001    0.000003
      2          9           0        0.748512    0.000002   -0.000001
      3          1           0       -0.985250    0.899676    0.505416
      4          1           0       -0.985222   -0.887557    0.526417
      5          1           0       -0.985245   -0.012128   -1.031840
 ---------------------------------------------------------------------
                    Distance matrix (angstroms):
                    1          2          3          4          5
     1  C    0.000000
     2  F    1.378661   0.000000
     3  H    1.091310   2.017620   0.000000
     4  H    1.091304   2.017600   1.787356   0.000000
     5  H    1.091302   2.017611   1.787328   1.787328   0.000000
 Stoichiometry    CH3F
 Framework group  C1[X(CH3F)]
 Deg. of freedom     9
 Full point group                 C1      NOp   1
 Largest Abelian subgroup         C1      NOp   1
 Largest concise Abelian subgroup C1      NOp   1
                         Standard orientation:                         
 ---------------------------------------------------------------------
 Center     Atomic      Atomic             Coordinates (Angstroms)
 Number     Number       Type             X           Y           Z
 ---------------------------------------------------------------------
      1          6           0        0.630149   -0.000001   -0.000003
      2          9           0       -0.748512    0.000002    0.000001
      3          1           0        0.985250    0.897475   -0.509314
      4          1           0        0.985222   -0.889832   -0.522562
      5          1           0        0.985245   -0.007652    1.031883
 ---------------------------------------------------------------------
 Rotational constants (GHZ):         156.9708152          25.8428001          25.8427103
 Leave Link  202 at Mon Mar 21 20:08:52 2022, MaxMem=  8589934592 cpu:               0.1 elap:               0.0
 (Enter /home/sabyasachi/g16/l301.exe)
 General basis read from cards:  (5D, 7F)
 Centers:       3      4      5
 S 3 1.00
     Exponent=  1.3010701000D+01 Coefficients=  1.9682158000D-02
     Exponent=  1.9622572000D+00 Coefficients=  1.3796524000D-01
     Exponent=  4.4453796000D-01 Coefficients=  4.7831935000D-01
 S 1 1.00
     Exponent=  1.2194962000D-01 Coefficients=  1.0000000000D+00
 P 1 1.00
     Exponent=  8.0000000000D-01 Coefficients=  1.0000000000D+00
 P 1 1.00
     Exponent=  1.1704099050D-01 Coefficients=  1.0000000000D+00
 ****
 Centers:       1
 S 5 1.00
     Exponent=  1.2384016938D+03 Coefficients=  5.4568832082D-03
     Exponent=  1.8629004992D+02 Coefficients=  4.0638409211D-02
     Exponent=  4.2251176346D+01 Coefficients=  1.8025593888D-01
     Exponent=  1.1676557932D+01 Coefficients=  4.6315121755D-01
     Exponent=  3.5930506482D+00 Coefficients=  4.4087173314D-01
 S 1 1.00
     Exponent=  4.0245147363D-01 Coefficients=  1.0000000000D+00
 S 1 1.00
     Exponent=  1.3090182668D-01 Coefficients=  1.0000000000D+00
 S 1 1.00
     Exponent=  6.7053540256D-02 Coefficients=  1.0000000000D+00
 P 3 1.00
     Exponent=  9.4680970621D+00 Coefficients=  3.8387871728D-02
     Exponent=  2.0103545142D+00 Coefficients=  2.1117025112D-01
     Exponent=  5.4771004707D-01 Coefficients=  5.1328172114D-01
 P 1 1.00
     Exponent=  1.5268613795D-01 Coefficients=  1.0000000000D+00
 D 1 1.00
     Exponent=  8.0000000000D-01 Coefficients=  1.0000000000D+00
 D 1 1.00
     Exponent=  1.1713185140D-01 Coefficients=  1.0000000000D+00
 ****
 Centers:       2
 S 5 1.00
     Exponent=  2.8948325990D+03 Coefficients= -5.3408255515D-03
     Exponent=  4.3541939120D+02 Coefficients= -3.9904258866D-02
     Exponent=  9.8843328866D+01 Coefficients= -1.7912768038D-01
     Exponent=  2.7485198001D+01 Coefficients= -4.6758090825D-01
     Exponent=  8.5405498171D+00 Coefficients= -4.4653131020D-01
 S 1 1.00
     Exponent=  1.0654578038D+00 Coefficients=  1.0000000000D+00
 S 1 1.00
     Exponent=  3.3247346748D-01 Coefficients=  1.0000000000D+00
 S 1 1.00
     Exponent=  9.8097752264D-02 Coefficients=  1.0000000000D+00
 P 3 1.00
     Exponent=  2.2696633924D+01 Coefficients= -4.5212874436D-02
     Exponent=  4.9872339257D+00 Coefficients= -2.3754317067D-01
     Exponent=  1.3491613954D+00 Coefficients= -5.1287353587D-01
 P 1 1.00
     Exponent=  3.4829881977D-01 Coefficients=  1.0000000000D+00
 P 1 1.00
     Exponent=  8.3372148304D-02 Coefficients=  1.0000000000D+00
 D 1 1.00
     Exponent=  1.4000000000D+00 Coefficients=  1.0000000000D+00
 D 1 1.00
     Exponent=  2.2301361948D-01 Coefficients=  1.0000000000D+00
 ****
 Ernie: Thresh=  0.10000D-02 Tol=  0.10000D-05 Strict=F.
 There are    71 symmetry adapted cartesian basis functions of A   symmetry.
 There are    67 symmetry adapted basis functions of A   symmetry.
    67 basis functions,    97 primitive gaussians,    71 cartesian basis functions
     9 alpha electrons        9 beta electrons
       nuclear repulsion energy        37.4250480537 Hartrees.
 IExCor=33909 DFT=T Ex+Corr=LC-wHPBE ExCW=0 ScaHFX=  1.000000
 ScaDFX=  1.000000  1.000000  1.000000  1.000000 ScalE2=  1.000000  1.000000
 IRadAn=      5 IRanWt=     -1 IRanGd=            0 ICorTp=0 IEmpDi=  4
 HFx  wShort=  0.000000 wLong=  0.400000 cFull=  0.000000 cShort=  0.000000 cLong=  1.000000
 DFx  wShort=  0.000000 wLong=  0.400000 cFull=  0.000000 cShort=  1.000000 cLong=  0.000000
 NAtoms=    5 NActive=    5 NUniq=    5 SFac= 1.00D+00 NAtFMM=   60 NAOKFM=F Big=F
 Integral buffers will be    131072 words long.
 Raffenetti 1 integral format.
 Two-electron integral symmetry is turned on.
 Leave Link  301 at Mon Mar 21 20:08:52 2022, MaxMem=  8589934592 cpu:               0.5 elap:               0.1
 (Enter /home/sabyasachi/g16/l302.exe)
 NPDir=0 NMtPBC=     1 NCelOv=     1 NCel=       1 NClECP=     1 NCelD=      1
         NCelK=      1 NCelE2=     1 NClLst=     1 CellRange=     0.0.
 One-electron integrals computed using PRISM.
 One-electron integral symmetry used in STVInt
 NBasis=    67 RedAO= T EigKep=  6.61D-04  NBF=    67
 NBsUse=    67 1.00D-06 EigRej= -1.00D+00 NBFU=    67
 Precomputing XC quadrature grid using
 IXCGrd= 4 IRadAn=           5 IRanWt=          -1 IRanGd=           0 AccXCQ= 0.00D+00.
 Generated NRdTot=       0 NPtTot=           0 NUsed=           0 NTot=          32
 NSgBfM=    71    71    71    71    71 MxSgAt=     5 MxSgA2=     5.
 Leave Link  302 at Mon Mar 21 20:08:52 2022, MaxMem=  8589934592 cpu:               0.9 elap:               0.1
 (Enter /home/sabyasachi/g16/l303.exe)
 DipDrv:  MaxL=1.
 Leave Link  303 at Mon Mar 21 20:08:52 2022, MaxMem=  8589934592 cpu:               0.2 elap:               0.0
 (Enter /home/sabyasachi/g16/l308.exe)
 Leave Link  308 at Mon Mar 21 20:08:52 2022, MaxMem=  8589934592 cpu:               0.2 elap:               0.0
 (Enter /home/sabyasachi/g16/l401.exe)
 ExpMin= 6.71D-02 ExpMax= 2.89D+03 ExpMxC= 4.35D+02 IAcc=3 IRadAn=         5 AccDes= 0.00D+00
 Harris functional with IExCor=33909 and IRadAn=       5 diagonalized for initial guess.
 HarFok:  IExCor=33909 AccDes= 0.00D+00 IRadAn=         5 IDoV= 1 UseB2=F ITyADJ=14
 ICtDFT=  3500011 ScaDFX=  1.000000  1.000000  1.000000  1.000000
 FoFCou: FMM=F IPFlag=           0 FMFlag=      100000 FMFlg1=           0
         NFxFlg=           0 DoJE=T BraDBF=F KetDBF=T FulRan=T
         wScrn=  0.000000 ICntrl=       500 IOpCl=  0 I1Cent=   200000004 NGrid=           0
         NMat0=    1 NMatS0=      1 NMatT0=    0 NMatD0=    1 NMtDS0=    0 NMtDT0=    0
 Petite list used in FoFCou.
 Harris En= -135.930852193650    
 JPrj=0 DoOrth=F DoCkMO=F.
 Leave Link  401 at Mon Mar 21 20:08:53 2022, MaxMem=  8589934592 cpu:               2.1 elap:               0.3
 (Enter /home/sabyasachi/g16/l502.exe)
 Keep R1 ints in memory in canonical form, NReq=12497692.
 FoFCou: FMM=F IPFlag=           0 FMFlag=           0 FMFlg1=           0
         NFxFlg=           0 DoJE=F BraDBF=F KetDBF=F FulRan=T
         wScrn=  0.000000 ICntrl=       600 IOpCl=  0 I1Cent=           0 NGrid=           0
         NMat0=    1 NMatS0=   2278 NMatT0=    0 NMatD0=    1 NMtDS0=    0 NMtDT0=    0
 Symmetry not used in FoFCou.
 Two-electron integral symmetry not used.
 Closed shell SCF:
 Using DIIS extrapolation, IDIIS=  1040.
 NGot=  8589934592 LenX=  8584731422 LenY=  8584725940
 Requested convergence on RMS density matrix=1.00D-08 within 100 cycles.
 Requested convergence on MAX density matrix=1.00D-06.
 Requested convergence on             energy=1.00D-06.
 No special actions if energy rises.
 Integral accuracy reduced to 1.0D-05 until final iterations.

 Cycle   1  Pass 0  IDiag  1:
 E= -139.559112834504    
 DIIS: error= 1.05D-02 at cycle   1 NSaved=   1.
 NSaved= 1 IEnMin= 1 EnMin= -139.559112834504     IErMin= 1 ErrMin= 1.05D-02
 ErrMax= 1.05D-02  0.00D+00 EMaxC= 1.00D-01 BMatC= 1.13D-02 BMatP= 1.13D-02
 IDIUse=3 WtCom= 8.95D-01 WtEn= 1.05D-01
 Coeff-Com:  0.100D+01
 Coeff-En:   0.100D+01
 Coeff:      0.100D+01
 Gap=     0.580 Goal=   None    Shift=    0.000
 GapD=    0.580 DampG=2.000 DampE=0.500 DampFc=1.0000 IDamp=-1.
 RMSDP=2.52D-03 MaxDP=5.00D-02              OVMax= 5.05D-02

 Cycle   2  Pass 0  IDiag  1:
 E= -139.566084047899     Delta-E=       -0.006971213395 Rises=F Damp=F
 DIIS: error= 8.09D-03 at cycle   2 NSaved=   2.
 NSaved= 2 IEnMin= 2 EnMin= -139.566084047899     IErMin= 2 ErrMin= 8.09D-03
 ErrMax= 8.09D-03  0.00D+00 EMaxC= 1.00D-01 BMatC= 6.39D-03 BMatP= 1.13D-02
 IDIUse=3 WtCom= 9.19D-01 WtEn= 8.09D-02
 Coeff-Com:  0.415D+00 0.585D+00
 Coeff-En:   0.109D+00 0.891D+00
 Coeff:      0.390D+00 0.610D+00
 Gap=     0.562 Goal=   None    Shift=    0.000
 RMSDP=1.12D-03 MaxDP=1.97D-02 DE=-6.97D-03 OVMax= 2.05D-02

 Cycle   3  Pass 0  IDiag  1:
 E= -139.570188338690     Delta-E=       -0.004104290791 Rises=F Damp=F
 DIIS: error= 2.49D-03 at cycle   3 NSaved=   3.
 NSaved= 3 IEnMin= 3 EnMin= -139.570188338690     IErMin= 3 ErrMin= 2.49D-03
 ErrMax= 2.49D-03  0.00D+00 EMaxC= 1.00D-01 BMatC= 4.19D-04 BMatP= 6.39D-03
 IDIUse=3 WtCom= 9.75D-01 WtEn= 2.49D-02
 Coeff-Com:  0.620D-01 0.211D+00 0.727D+00
 Coeff-En:   0.000D+00 0.000D+00 0.100D+01
 Coeff:      0.604D-01 0.206D+00 0.734D+00
 Gap=     0.564 Goal=   None    Shift=    0.000
 RMSDP=2.61D-04 MaxDP=4.82D-03 DE=-4.10D-03 OVMax= 5.47D-03

 Cycle   4  Pass 0  IDiag  1:
 E= -139.570462761617     Delta-E=       -0.000274422928 Rises=F Damp=F
 DIIS: error= 5.42D-04 at cycle   4 NSaved=   4.
 NSaved= 4 IEnMin= 4 EnMin= -139.570462761617     IErMin= 4 ErrMin= 5.42D-04
 ErrMax= 5.42D-04  0.00D+00 EMaxC= 1.00D-01 BMatC= 3.14D-05 BMatP= 4.19D-04
 IDIUse=3 WtCom= 9.95D-01 WtEn= 5.42D-03
 Coeff-Com: -0.130D-01-0.725D-02 0.196D+00 0.824D+00
 Coeff-En:   0.000D+00 0.000D+00 0.000D+00 0.100D+01
 Coeff:     -0.129D-01-0.721D-02 0.195D+00 0.825D+00
 Gap=     0.561 Goal=   None    Shift=    0.000
 RMSDP=8.89D-05 MaxDP=1.32D-03 DE=-2.74D-04 OVMax= 1.16D-03

 Cycle   5  Pass 0  IDiag  1:
 E= -139.570484919806     Delta-E=       -0.000022158189 Rises=F Damp=F
 DIIS: error= 1.10D-04 at cycle   5 NSaved=   5.
 NSaved= 5 IEnMin= 5 EnMin= -139.570484919806     IErMin= 5 ErrMin= 1.10D-04
 ErrMax= 1.10D-04  0.00D+00 EMaxC= 1.00D-01 BMatC= 1.11D-06 BMatP= 3.14D-05
 IDIUse=3 WtCom= 9.99D-01 WtEn= 1.10D-03
 Coeff-Com: -0.808D-02-0.207D-01-0.660D-02 0.177D+00 0.859D+00
 Coeff-En:   0.000D+00 0.000D+00 0.000D+00 0.000D+00 0.100D+01
 Coeff:     -0.807D-02-0.207D-01-0.659D-02 0.176D+00 0.859D+00
 Gap=     0.561 Goal=   None    Shift=    0.000
 RMSDP=3.43D-05 MaxDP=4.95D-04 DE=-2.22D-05 OVMax= 3.20D-04

 Cycle   6  Pass 0  IDiag  1:
 E= -139.570486117937     Delta-E=       -0.000001198131 Rises=F Damp=F
 DIIS: error= 1.14D-05 at cycle   6 NSaved=   6.
 NSaved= 6 IEnMin= 6 EnMin= -139.570486117937     IErMin= 6 ErrMin= 1.14D-05
 ErrMax= 1.14D-05  0.00D+00 EMaxC= 1.00D-01 BMatC= 1.04D-08 BMatP= 1.11D-06
 IDIUse=1 WtCom= 1.00D+00 WtEn= 0.00D+00
 Coeff-Com:  0.849D-03 0.947D-03-0.582D-02-0.330D-01-0.404D-01 0.108D+01
 Coeff:      0.849D-03 0.947D-03-0.582D-02-0.330D-01-0.404D-01 0.108D+01
 Gap=     0.561 Goal=   None    Shift=    0.000
 RMSDP=5.16D-06 MaxDP=5.64D-05 DE=-1.20D-06 OVMax= 7.18D-05

 Initial convergence to 1.0D-05 achieved.  Increase integral accuracy.
 Cycle   7  Pass 1  IDiag  1:
 E= -139.570485245009     Delta-E=        0.000000872928 Rises=F Damp=F
 DIIS: error= 2.89D-06 at cycle   1 NSaved=   1.
 NSaved= 1 IEnMin= 1 EnMin= -139.570485245009     IErMin= 1 ErrMin= 2.89D-06
 ErrMax= 2.89D-06  0.00D+00 EMaxC= 1.00D-01 BMatC= 3.99D-10 BMatP= 3.99D-10
 IDIUse=1 WtCom= 1.00D+00 WtEn= 0.00D+00
 Coeff-Com:  0.100D+01
 Coeff:      0.100D+01
 Gap=     0.561 Goal=   None    Shift=    0.000
 RMSDP=5.16D-06 MaxDP=5.64D-05 DE= 8.73D-07 OVMax= 1.10D-05

 Cycle   8  Pass 1  IDiag  1:
 E= -139.570485245883     Delta-E=       -0.000000000874 Rises=F Damp=F
 DIIS: error= 5.99D-07 at cycle   2 NSaved=   2.
 NSaved= 2 IEnMin= 2 EnMin= -139.570485245883     IErMin= 2 ErrMin= 5.99D-07
 ErrMax= 5.99D-07  0.00D+00 EMaxC= 1.00D-01 BMatC= 3.90D-11 BMatP= 3.99D-10
 IDIUse=1 WtCom= 1.00D+00 WtEn= 0.00D+00
 Coeff-Com: -0.879D-01 0.109D+01
 Coeff:     -0.879D-01 0.109D+01
 Gap=     0.561 Goal=   None    Shift=    0.000
 RMSDP=2.41D-07 MaxDP=3.21D-06 DE=-8.74D-10 OVMax= 4.93D-06

 Cycle   9  Pass 1  IDiag  1:
 E= -139.570485245976     Delta-E=       -0.000000000093 Rises=F Damp=F
 DIIS: error= 4.09D-07 at cycle   3 NSaved=   3.
 NSaved= 3 IEnMin= 3 EnMin= -139.570485245976     IErMin= 3 ErrMin= 4.09D-07
 ErrMax= 4.09D-07  0.00D+00 EMaxC= 1.00D-01 BMatC= 1.11D-11 BMatP= 3.90D-11
 IDIUse=1 WtCom= 1.00D+00 WtEn= 0.00D+00
 Coeff-Com: -0.147D+00 0.333D+00 0.814D+00
 Coeff:     -0.147D+00 0.333D+00 0.814D+00
 Gap=     0.561 Goal=   None    Shift=    0.000
 RMSDP=6.61D-08 MaxDP=1.87D-06 DE=-9.32D-11 OVMax= 1.19D-06

 Cycle  10  Pass 1  IDiag  1:
 E= -139.570485245990     Delta-E=       -0.000000000014 Rises=F Damp=F
 DIIS: error= 2.63D-08 at cycle   4 NSaved=   4.
 NSaved= 4 IEnMin= 4 EnMin= -139.570485245990     IErMin= 4 ErrMin= 2.63D-08
 ErrMax= 2.63D-08  0.00D+00 EMaxC= 1.00D-01 BMatC= 7.78D-14 BMatP= 1.11D-11
 IDIUse=1 WtCom= 1.00D+00 WtEn= 0.00D+00
 Coeff-Com:  0.560D-02-0.367D-01-0.360D-01 0.107D+01
 Coeff:      0.560D-02-0.367D-01-0.360D-01 0.107D+01
 Gap=     0.561 Goal=   None    Shift=    0.000
 RMSDP=1.04D-08 MaxDP=1.14D-07 DE=-1.42D-11 OVMax= 2.02D-07

 Cycle  11  Pass 1  IDiag  1:
 E= -139.570485245992     Delta-E=       -0.000000000001 Rises=F Damp=F
 DIIS: error= 9.41D-09 at cycle   5 NSaved=   5.
 NSaved= 5 IEnMin= 5 EnMin= -139.570485245992     IErMin= 5 ErrMin= 9.41D-09
 ErrMax= 9.41D-09  0.00D+00 EMaxC= 1.00D-01 BMatC= 9.77D-15 BMatP= 7.78D-14
 IDIUse=1 WtCom= 1.00D+00 WtEn= 0.00D+00
 Coeff-Com:  0.572D-02-0.187D-01-0.334D-01 0.238D+00 0.808D+00
 Coeff:      0.572D-02-0.187D-01-0.334D-01 0.238D+00 0.808D+00
 Gap=     0.561 Goal=   None    Shift=    0.000
 RMSDP=2.11D-09 MaxDP=2.63D-08 DE=-1.31D-12 OVMax= 3.29D-08

 SCF Done:  E(RLC-wHPBE) =  -139.570485246     A.U. after   11 cycles
            NFock= 11  Conv=0.21D-08     -V/T= 2.0088
 KE= 1.383510151275D+02 PE=-4.046002813968D+02 EE= 8.925373296962D+01
 Leave Link  502 at Mon Mar 21 20:08:54 2022, MaxMem=  8589934592 cpu:              10.3 elap:               1.3
 (Enter /home/sabyasachi/g16/l801.exe)
 DoSCS=F DFT=T ScalE2(SS,OS)=  1.000000  1.000000
 ExpMin= 6.71D-02 ExpMax= 2.89D+03 ExpMxC= 4.35D+02 IAcc=3 IRadAn=         5 AccDes= 0.00D+00
 HarFok:  IExCor=  205 AccDes= 0.00D+00 IRadAn=         5 IDoV=-2 UseB2=F ITyADJ=14
 ICtDFT= 12500011 ScaDFX=  1.000000  1.000000  1.000000  1.000000
 Largest valence mixing into a core orbital is  6.55D-05
 Largest core mixing into a valence orbital is  1.11D-05
 Range of M.O.s used for correlation:     3    67
 NBasis=    67 NAE=     9 NBE=     9 NFC=     2 NFV=     0
 NROrb=     65 NOA=     7 NOB=     7 NVA=    58 NVB=    58

 **** Warning!!: The largest alpha MO coefficient is  0.21050402D+02

 Leave Link  801 at Mon Mar 21 20:08:54 2022, MaxMem=  8589934592 cpu:               0.4 elap:               0.1
 (Enter /home/sabyasachi/g16/l914.exe)
 RHF ground state
 Keep R1, R2, and R3 ints in memory in canonical form, NReq=207421788.
 FoFCou: FMM=F IPFlag=           0 FMFlag=           0 FMFlg1=           0
         NFxFlg=           0 DoJE=F BraDBF=F KetDBF=F FulRan=T
         wScrn=  0.000000 ICntrl=       600 IOpCl=  0 I1Cent=           0 NGrid=           0
         NMat0=    1 NMatS0=   2278 NMatT0=    0 NMatD0=    1 NMtDS0=    0 NMtDT0=    0
 Symmetry not used in FoFCou.
 Two-electron integral symmetry not used.
 MDV=  8589934592 DFT=T DoStab=F Mixed=T DoRPA=T DoScal=F NonHer=T
 Making orbital integer symmetry assigments:
 Orbital symmetries:
       Occupied  (A) (A) (A) (A) (A) (A) (A) (A) (A)
       Virtual   (A) (A) (A) (A) (A) (A) (A) (A) (A) (A) (A) (A)
                 (A) (A) (A) (A) (A) (A) (A) (A) (A) (A) (A) (A)
                 (A) (A) (A) (A) (A) (A) (A) (A) (A) (A) (A) (A)
                 (A) (A) (A) (A) (A) (A) (A) (A) (A) (A) (A) (A)
                 (A) (A) (A) (A) (A) (A) (A) (A) (A) (A)
   406 initial guesses have been made.
 Convergence on wavefunction:    0.001000000000000
 Davidson Disk Diagonalization:  ConvIn= 1.00D-03 SkipCon=T Conv= 1.00D-03.
 Max sub-space:  2436 roots to seek:   812 dimension of matrix:          812
 *** WARNING: Number of orthogonal guesses is          406
 Iteration     1 Dimension   406 NMult     0 NNew    406
 CISAX will form   406 AO SS matrices at one time.
 NMat=   406 NSing=   406 JSym2X= 0.
 New state      7 was old state      8
 New state      8 was old state      7
 New state     11 was old state     13
 New state     12 was old state     11
 New state     13 was old state     12
 New state     17 was old state     18
 New state     18 was old state     19
 New state     19 was old state     21
 New state     20 was old state     17
 New state     21 was old state     22
 New state     22 was old state     23
 New state     23 was old state     20
 New state     25 was old state     31
 New state     26 was old state     32
 New state     27 was old state     29
 New state     28 was old state     30
 New state     29 was old state     28
 New state     30 was old state     26
 New state     31 was old state     25
 New state     32 was old state     27
 New state     33 was old state     36
 New state     34 was old state     37
 New state     35 was old state     39
 New state     36 was old state     35
 New state     37 was old state     42
 New state     38 was old state     43
 New state     39 was old state     40
 New state     40 was old state     41
 New state     41 was old state     38
 New state     42 was old state     45
 New state     43 was old state     44
 New state     44 was old state     46
 New state     45 was old state     47
 New state     46 was old state     33
 New state     47 was old state     34
 New state     48 was old state     54
 New state     49 was old state     55
 New state     50 was old state     52
 New state     51 was old state     53
 New state     52 was old state     48
 New state     53 was old state     51
 New state     54 was old state     50
 New state     55 was old state     49
 New state     58 was old state     59
 New state     59 was old state     58
 New state     62 was old state     63
 New state     63 was old state     64
 New state     64 was old state     66
 New state     66 was old state     62
 New state     67 was old state     68
 New state     68 was old state     67
 New state     69 was old state     74
 New state     74 was old state     69
 New state     76 was old state     82
 New state     77 was old state     83
 New state     78 was old state     77
 New state     79 was old state     76
 New state     80 was old state     79
 New state     81 was old state     78
 New state     82 was old state     80
 New state     83 was old state     81
 New state     84 was old state     85
 New state     85 was old state     84
 New state     89 was old state    100
 New state     90 was old state    102
 New state     91 was old state    101
 New state     92 was old state     89
 New state     93 was old state     90
 New state     95 was old state     98
 New state     96 was old state     97
 New state     97 was old state     91
 New state     98 was old state     93
 New state     99 was old state    104
 New state    100 was old state    103
 New state    101 was old state     96
 New state    102 was old state     95
 New state    103 was old state     92
 New state    104 was old state    107
 New state    105 was old state     99
 New state    106 was old state    105
 New state    107 was old state    106
 New state    108 was old state    111
 New state    109 was old state    112
 New state    110 was old state    109
 New state    111 was old state    110
 New state    112 was old state    115
 New state    115 was old state    108
 New state    118 was old state    119
 New state    119 was old state    118
 New state    120 was old state    129
 New state    121 was old state    130
 New state    123 was old state    124
 New state    124 was old state    123
 New state    127 was old state    120
 New state    128 was old state    121
 New state    129 was old state    133
 New state    130 was old state    127
 New state    131 was old state    128
 New state    133 was old state    135
 New state    135 was old state    131
 New state    139 was old state    142
 New state    140 was old state    141
 New state    141 was old state    143
 New state    142 was old state    144
 New state    143 was old state    139
 New state    144 was old state    140
 New state    148 was old state    149
 New state    149 was old state    152
 New state    150 was old state    155
 New state    151 was old state    156
 New state    152 was old state    151
 New state    155 was old state    148
 New state    156 was old state    150
 New state    157 was old state    159
 New state    158 was old state    160
 New state    159 was old state    157
 New state    160 was old state    158
 New state    161 was old state    169
 New state    162 was old state    168
 New state    163 was old state    165
 New state    165 was old state    166
 New state    166 was old state    161
 New state    167 was old state    171
 New state    168 was old state    174
 New state    169 was old state    175
 New state    171 was old state    172
 New state    172 was old state    167
 New state    173 was old state    162
 New state    174 was old state    163
 New state    175 was old state    173
 New state    176 was old state    181
 New state    177 was old state    179
 New state    178 was old state    182
 New state    179 was old state    176
 New state    180 was old state    177
 New state    181 was old state    178
 New state    182 was old state    180
 New state    183 was old state    185
 New state    184 was old state    186
 New state    185 was old state    188
 New state    186 was old state    187
 New state    187 was old state    183
 New state    188 was old state    184
 New state    189 was old state    198
 New state    190 was old state    199
 New state    191 was old state    195
 New state    192 was old state    196
 New state    193 was old state    192
 New state    194 was old state    191
 New state    195 was old state    194
 New state    196 was old state    193
 New state    198 was old state    189
 New state    199 was old state    190
 New state    200 was old state    201
 New state    201 was old state    202
 New state    202 was old state    200
 New state    203 was old state    206
 New state    204 was old state    208
 New state    205 was old state    209
 New state    206 was old state    210
 New state    207 was old state    211
 New state    208 was old state    203
 New state    209 was old state    213
 New state    210 was old state    212
 New state    211 was old state    204
 New state    212 was old state    205
 New state    213 was old state    214
 New state    214 was old state    220
 New state    215 was old state    216
 New state    216 was old state    217
 New state    217 was old state    215
 New state    218 was old state    221
 New state    219 was old state    222
 New state    220 was old state    223
 New state    221 was old state    218
 New state    222 was old state    219
 New state    223 was old state    224
 New state    224 was old state    225
 New state    225 was old state    226
 New state    226 was old state    227
 New state    227 was old state    228
 No map to state    228
 New state    229 was old state    231
 New state    230 was old state    232
 New state    231 was old state    229
 New state    232 was old state    230
 New state    235 was old state    236
 New state    236 was old state    237
 New state    237 was old state    235
 New state    238 was old state    239
 New state    239 was old state    240
 New state    240 was old state    238
 New state    241 was old state    242
 New state    242 was old state    241
 New state    243 was old state    246
 New state    244 was old state    247
 New state    245 was old state    248
 New state    246 was old state    253
 New state    247 was old state    254
 New state    248 was old state    251
 New state    249 was old state    243
 New state    250 was old state    244
 New state    251 was old state    249
 New state    253 was old state    250
 New state    254 was old state    255
 New state    255 was old state    245
 New state    256 was old state    258
 New state    257 was old state    259
 New state    258 was old state    256
 New state    259 was old state    257
 New state    261 was old state    270
 New state    262 was old state    271
 New state    263 was old state    265
 New state    265 was old state    266
 New state    266 was old state    268
 New state    267 was old state    269
 New state    268 was old state    261
 New state    269 was old state    262
 New state    270 was old state    263
 New state    271 was old state    267
 New state    278 was old state    279
 New state    279 was old state    280
 New state    280 was old state    281
 New state    281 was old state    282
 New state    282 was old state    283
 New state    283 was old state    278
 New state    295 was old state    296
 New state    296 was old state    297
 New state    297 was old state    299
 New state    299 was old state    300
 New state    300 was old state    295
 New state    306 was old state    307
 New state    307 was old state    308
 New state    308 was old state    309
 New state    309 was old state    310
 New state    310 was old state    313
 New state    313 was old state    306
 New state    322 was old state    323
 New state    323 was old state    324
 New state    324 was old state    325
 New state    325 was old state    326
 New state    326 was old state    329
 New state    328 was old state    330
 New state    329 was old state    328
 New state    330 was old state    322
 New state    331 was old state    332
 New state    332 was old state    331
 New state    333 was old state    334
 New state    334 was old state    333
 New state    336 was old state    339
 New state    339 was old state    336
 New state    354 was old state    355
 New state    355 was old state    354
 New state    357 was old state    358
 New state    358 was old state    359
 New state    359 was old state    360
 New state    360 was old state    362
 New state    362 was old state    363
 New state    363 was old state    364
 New state    364 was old state    357
 New state    367 was old state    369
 New state    368 was old state    370
 New state    369 was old state    367
 New state    370 was old state    368
 New state    371 was old state    374
 New state    372 was old state    376
 New state    373 was old state    375
 New state    374 was old state    371
 New state    375 was old state    372
 New state    376 was old state    381
 New state    377 was old state    382
 New state    378 was old state    377
 New state    379 was old state    378
 New state    380 was old state    379
 New state    381 was old state    380
 New state    382 was old state    373
 Excitation Energies [eV] at current iteration:
 Root      1 :     9.691017971307724
 Root      2 :     9.691066318482619
 Root      3 :    10.426424473465290
 Root      4 :    10.426488614497020
 Root      5 :    11.919001906567080
 Root      6 :    11.919006783974210
 Root      7 :    12.006204566329400
 Root      8 :    12.071091207185600
 Root      9 :    12.752175491464610
 Root     10 :    12.752231427790080
 Root     11 :    12.754279574484950
 Root     12 :    13.244910662565830
 Root     13 :    13.244916658498410
 Root     14 :    13.296363262386310
 Root     15 :    13.838755109179450
 Root     16 :    13.838795246739600
 Root     17 :    13.895147968454960
 Root     18 :    13.940874742053140
 Root     19 :    13.940909086043330
 Root     20 :    14.083855664427560
 Root     21 :    14.328404959599230
 Root     22 :    14.328462469298030
 Root     23 :    14.505351289376340
 Root     24 :    15.149342425919820
 Root     25 :    15.470730185595540
 Root     26 :    15.470772331791690
 Root     27 :    15.961651231067740
 Root     28 :    15.961680912045560
 Root     29 :    16.020691179930290
 Root     30 :    16.082566729777950
 Root     31 :    16.082593258363600
 Root     32 :    16.355386438149600
 Root     33 :    16.605486916731850
 Root     34 :    16.605550884181960
 Root     35 :    16.766372060785270
 Root     36 :    16.959947717455180
 Root     37 :    17.017795982824700
 Root     38 :    17.017866894661460
 Root     39 :    17.245365165457150
 Root     40 :    17.245380059397630
 Root     41 :    17.364447864864100
 Root     42 :    17.374733290221010
 Root     43 :    17.374738401899540
 Root     44 :    17.449151532887650
 Root     45 :    17.454143702412470
 Root     46 :    17.548604738082450
 Root     47 :    17.548674942580360
 Root     48 :    17.950529289166280
 Root     49 :    17.950586361744160
 Root     50 :    18.095050144733720
 Root     51 :    18.095089331550600
 Root     52 :    18.311564889800670
 Root     53 :    18.335744531625370
 Root     54 :    18.335753151743650
 Root     55 :    18.496034809472190
 Root     56 :    18.880122492957800
 Root     57 :    18.880177798362070
 Root     58 :    18.937837935994300
 Root     59 :    19.021772296388260
 Root     60 :    19.021781846586920
 Root     61 :    19.119995268361410
 Root     62 :    19.421468517237400
 Root     63 :    19.421525303645130
 Root     64 :    20.057126959079260
 Root     65 :    20.074964169785830
 Root     66 :    20.115653129587380
 Root     67 :    20.168355005210280
 Root     68 :    20.168367400212820
 Root     69 :    20.464171511683030
 Root     70 :    20.598093231293120
 Root     71 :    20.598169861627300
 Root     72 :    20.768591280047460
 Root     73 :    20.768651674660980
 Root     74 :    20.851667108243170
 Root     75 :    21.184911707924840
 Root     76 :    21.416485740896110
 Root     77 :    21.416519899215120
 Root     78 :    21.479108858983520
 Root     79 :    21.479123243980210
 Root     80 :    21.492604159347860
 Root     81 :    21.582113587920610
 Root     82 :    21.587050999965360
 Root     83 :    21.587069754872030
 Root     84 :    22.070769595083470
 Root     85 :    22.070778574902640
 Root     86 :    22.304862488207430
 Root     87 :    22.304907311766530
 Root     88 :    22.456430839154440
 Root     89 :    22.527759796066030
 Root     90 :    22.551398216803760
 Root     91 :    22.551405051091790
 Root     92 :    22.672855751501580
 Root     93 :    22.672872864814080
 Root     94 :    22.886707314674800
 Root     95 :    22.984316684059320
 Root     96 :    22.984326247242580
 Root     97 :    23.139152795138170
 Root     98 :    23.147292087054520
 Root     99 :    23.180371968367520
 Root    100 :    23.180374386557250
 Root    101 :    23.297532910285440
 Root    102 :    23.297568341433490
 Root    103 :    23.677354645087460
 Root    104 :    23.960792904175690
 Root    105 :    24.053363087692000
 Root    106 :    24.086649409989320
 Root    107 :    24.086664425314140
 Root    108 :    24.259054635744010
 Root    109 :    24.259077676484780
 Root    110 :    24.344043954140400
 Root    111 :    24.344097597912130
 Root    112 :    24.506289715273020
 Root    113 :    24.638968388276260
 Root    114 :    24.639020167261120
 Root    115 :    24.931092538893310
 Root    116 :    25.681946413446530
 Root    117 :    25.682018374872640
 Root    118 :    25.766941254546120
 Root    119 :    26.011694620193210
 Root    120 :    26.364589373128800
 Root    121 :    26.364624980470070
 Root    122 :    26.494624410485140
 Root    123 :    26.655659567300050
 Root    124 :    26.655698957580870
 Root    125 :    26.848703961252150
 Root    126 :    26.848736110331790
 Root    127 :    26.945870772199780
 Root    128 :    27.504296905990610
 Root    129 :    27.580009787553780
 Root    130 :    27.597854969519980
 Root    131 :    27.597871853329550
 Root    132 :    27.980686185534020
 Root    133 :    27.995154532075330
 Root    134 :    27.995177711048400
 Root    135 :    28.348854381685520
 Root    136 :    28.682358695117360
 Root    137 :    28.872223374880730
 Root    138 :    28.872263842637060
 Root    139 :    29.072379989570570
 Root    140 :    29.269355168816540
 Root    141 :    29.269368190803370
 Root    142 :    29.435922430182430
 Root    143 :    30.137754180620100
 Root    144 :    30.137789060021600
 Root    145 :    30.358108130986090
 Root    146 :    30.410332960460860
 Root    147 :    30.410387116862650
 Root    148 :    30.807629001700910
 Root    149 :    31.382382754585160
 Root    150 :    31.721497285912200
 Root    151 :    31.721573536404160
 Root    152 :    31.779829240980800
 Root    153 :    31.779858930438060
 Root    154 :    31.796577697578790
 Root    155 :    32.142781580697680
 Root    156 :    32.373089298851620
 Root    157 :    32.552612895711040
 Root    158 :    32.552633305763400
 Root    159 :    32.737520978065650
 Root    160 :    32.737551104537080
 Root    161 :    33.285501294687920
 Root    162 :    33.285519477343310
 Root    163 :    33.332131248038810
 Root    164 :    33.456790335221510
 Root    165 :    33.456805230166970
 Root    166 :    33.565354627866920
 Root    167 :    33.729368132323560
 Root    168 :    33.794238868427680
 Root    169 :    33.794273549956670
 Root    170 :    34.016190347843060
 Root    171 :    34.016204042976140
 Root    172 :    34.034808199657520
 Root    173 :    34.515681871838300
 Root    174 :    34.515695814537150
 Root    175 :    34.687603972993180
 Root    176 :    34.952108286893140
 Root    177 :    34.952110294460620
 Root    178 :    34.973245164810050
 Root    179 :    35.310701004963510
 Root    180 :    35.632118799129410
 Root    181 :    35.632177160163080
 Root    182 :    35.843178212169800
 Root    183 :    36.293648085104250
 Root    184 :    36.293703806713130
 Root    185 :    36.489096515958330
 Root    186 :    36.679657510245060
 Root    187 :    36.832066543406900
 Root    188 :    36.832100529670460
 Root    189 :    37.094592973241310
 Root    190 :    37.094654606525150
 Root    191 :    37.297637416483700
 Root    192 :    37.297748049325060
 Root    193 :    37.514434928938820
 Root    194 :    37.843718092218130
 Root    195 :    37.971250156555200
 Root    196 :    37.971270182700830
 Root    197 :    38.129480150704510
 Root    198 :    38.275453695725740
 Root    199 :    38.275529724966460
 Root    200 :    38.543639647897980
 Root    201 :    38.543669869778430
 Root    202 :    38.626648112882190
 Root    203 :    38.672132068997610
 Root    204 :    38.697498756320870
 Root    205 :    38.697540310510910
 Root    206 :    38.844092699919680
 Root    207 :    38.844129771602920
 Root    208 :    39.525329531347500
 Root    209 :    39.951010516298250
 Root    210 :    39.951021068572840
 Root    211 :    40.206465971092560
 Root    212 :    40.206483782312670
 Root    213 :    40.854832617238610
 Root    214 :    40.954049273127500
 Root    215 :    41.604381413986790
 Root    216 :    41.604417825954440
 Root    217 :    41.723183799425930
 Root    218 :    41.851432795159110
 Root    219 :    41.851498842803170
 Root    220 :    41.920092356388870
 Root    221 :    42.661771186797640
 Root    222 :    42.661813035024300
 Root    223 :    42.851969975518750
 Root    224 :    43.544240562345410
 Root    225 :    43.882541673011650
 Root    226 :    43.882727823599190
 Root    227 :    44.209859802480640
 Root    228 :    44.290493389103820
 Root    229 :    44.825865063169750
 Root    230 :    44.825944934475390
 Root    231 :    45.362842432317140
 Root    232 :    45.362904538421400
 Root    233 :    48.281756705209610
 Root    234 :    48.942428092207590
 Root    235 :    49.251048264591910
 Root    236 :    49.397089582050180
 Root    237 :    49.397096092170090
 Root    238 :    49.966838240754900
 Root    239 :    49.966922327533230
 Root    240 :    50.321276603409300
 Root    241 :    51.266488020567540
 Root    242 :    51.266492240834790
 Root    243 :    52.469560849405810
 Root    244 :    52.525069118493580
 Root    245 :    52.525088320381140
 Root    246 :    53.294186873667500
 Root    247 :    53.294252602275850
 Root    248 :    53.357137074142390
 Root    249 :    53.383259148848230
 Root    250 :    53.383325621887340
 Root    251 :    53.579845717083830
 Root    252 :    53.824893003428860
 Root    253 :    53.825006262304980
 Root    254 :    54.648709764880020
 Root    255 :    55.132108174125200
 Root    256 :    55.456613259450830
 Root    257 :    55.456654462837400
 Root    258 :    56.040172184147950
 Root    259 :    56.040333615677640
 Root    260 :    56.221309616042530
 Root    261 :    56.631090272254500
 Root    262 :    56.631202149848180
 Root    263 :    56.658236961117740
 Root    264 :    56.658251691838320
 Root    265 :    56.676226317096090
 Root    266 :    57.231659752780890
 Root    267 :    57.231738273118290
 Root    268 :    57.306350561791180
 Root    269 :    57.306399477102820
 Root    270 :    57.419003833648670
 Root    271 :    57.817132666757320
 Root    272 :    59.355067101493500
 Root    273 :    59.355216300511530
 Root    274 :    59.711696309475780
 Root    275 :    59.711808525084190
 Root    276 :    59.808580460398370
 Root    277 :    60.196445234142600
 Root    278 :    60.217188750623570
 Root    279 :    60.217202535050610
 Root    280 :    60.575461905373780
 Root    281 :    61.166190294590860
 Root    282 :    61.166223166332920
 Root    283 :    61.772422240933670
 Root    284 :    62.747881400274570
 Root    285 :    62.817342012140760
 Root    286 :    62.817447059640210
 Root    287 :    63.867136039012950
 Root    288 :    63.955220334647630
 Root    289 :    64.002676746727830
 Root    290 :    64.002728378879540
 Root    291 :    64.346385894776390
 Root    292 :    64.346661582325620
 Root    293 :    64.675114180062340
 Root    294 :    64.675177462357680
 Root    295 :    65.437640325411320
 Root    296 :    65.528721555237210
 Root    297 :    65.528735512509510
 Root    298 :    65.559162965771460
 Root    299 :    66.598412006002150
 Root    300 :    68.185649488537410
 Root    301 :    68.201396597783400
 Root    302 :    68.201438166470410
 Root    303 :    69.310804915577660
 Root    304 :    69.310807162677660
 Root    305 :    69.318185994648960
 Root    306 :    69.533510476356310
 Root    307 :    69.533569390758690
 Root    308 :    69.829934460372910
 Root    309 :    69.830135209822500
 Root    310 :    70.001324945733880
 Root    311 :    70.216991720560420
 Root    312 :    70.217077270460620
 Root    313 :    71.577498064957600
 Root    314 :    71.876808140256760
 Root    315 :    71.876959415492750
 Root    316 :    72.364851007418980
 Root    317 :    72.364932187213870
 Root    318 :    73.250987134711520
 Root    319 :    73.954096642779870
 Root    320 :    73.954158261514880
 Root    321 :    74.474357784190560
 Root    322 :    75.014141559311030
 Root    323 :    75.014211286977850
 Root    324 :    75.295830649470660
 Root    325 :    75.295954030840120
 Root    326 :    75.416098269458860
 Root    327 :    75.839731232521060
 Root    328 :    75.930083357438380
 Root    329 :    75.930132266540370
 Root    330 :    76.203482958768770
 Root    331 :    78.347390378100160
 Root    332 :    79.304941693683840
 Root    333 :    79.374824805266410
 Root    334 :    79.613039384698060
 Root    335 :    79.613128607757370
 Root    336 :    79.776485106039710
 Root    337 :    80.010773040447970
 Root    338 :    80.011143832877150
 Root    339 :    80.408062085259560
 Root    340 :    82.717494619411920
 Root    341 :    82.717765368063770
 Root    342 :    83.011806146672310
 Root    343 :    83.011890379620160
 Root    344 :    83.589606364863460
 Root    345 :    85.299389020158770
 Root    346 :    85.299860225959690
 Root    347 :    86.949690139382540
 Root    348 :    86.949753885929570
 Root    349 :    87.438430046314710
 Root    350 :    88.116939420613920
 Root    351 :    88.117159744524170
 Root    352 :    89.455984352973470
 Root    353 :    89.455996250858450
 Root    354 :    89.534668817189170
 Root    355 :    89.544104910695610
 Root    356 :    91.421393976863970
 Root    357 :    92.771715286749720
 Root    358 :    93.367811875939920
 Root    359 :    93.381273922750450
 Root    360 :    93.539545658435500
 Root    361 :    93.539600249333690
 Root    362 :    93.585829551286610
 Root    363 :    93.586267310300800
 Root    364 :    93.821551828358620
 Root    365 :    98.451274980789220
 Root    366 :    98.451747625819990
 Root    367 :    98.559074995977340
 Root    368 :    98.562028525727460
 Root    369 :    99.010151417823710
 Root    370 :    99.010632866851210
 Root    371 :   101.132040753209200
 Root    372 :   101.137827024773700
 Root    373 :   101.137835628845500
 Root    374 :   101.393544580693000
 Root    375 :   101.393563003222000
 Root    376 :   102.430998590873500
 Root    377 :   102.431022040992400
 Root    378 :   103.700853308504600
 Root    379 :   103.706346831217600
 Root    380 :   104.062953269828100
 Root    381 :   104.062981389632500
 Root    382 :   104.488806061040000
 Root    383 :   106.050963903303200
 Root    384 :   106.132521160314600
 Root    385 :   106.132523170419700
 Root    386 :   106.177893107349800
 Root    387 :   107.769163625937000
 Root    388 :   108.649990513975700
 Root    389 :   108.650025184253200
 Root    390 :   110.402918964243400
 Root    391 :   110.402925299622800
 Root    392 :   112.278219029104300
 Root    393 :   112.278707520889700
 Root    394 :   112.516642670648600
 Root    395 :   112.516721417250600
 Root    396 :   114.006300052814100
 Root    397 :   114.006372833095200
 Root    398 :   116.550396018864800
 Root    399 :   116.550468907552900
 Root    400 :   118.524564675400800
 Root    401 :   121.688203445647000
 Root    402 :   121.688209150247400
 Root    403 :   122.990008382292300
 Root    404 :   124.351126420270900
 Root    405 :   124.351231849228200
 Root    406 :   134.247879194308200
 Convergence achieved for final wavefunctions.
 ***********************************************************************
 Excited states from <AA,BB:AA,BB> singles matrix:
 ***********************************************************************
 
 1PDM for each excited state written to RWF  633
 Ground to excited state transition densities written to RWF  633
 Ground to excited state transition electric dipole moments (Au):
       state          X           Y           Z        Dip. S.      Osc.
         1        -0.0000      0.0104     -0.2218      0.0493      0.0117
         2        -0.0000     -0.2218     -0.0104      0.0493      0.0117
         3         0.0000      0.0483     -0.3978      0.1606      0.0410
         4        -0.0000     -0.3978     -0.0483      0.1606      0.0410
         5        -0.0000     -0.3552     -0.1467      0.1477      0.0431
         6         0.0001     -0.1467      0.3552      0.1477      0.0431
         7         0.0000     -0.0002      0.0000      0.0000      0.0000
         8         0.6530     -0.0000     -0.0000      0.4265      0.1261
         9        -0.0000      0.0312     -0.4055      0.1654      0.0517
        10         0.0000     -0.4055     -0.0312      0.1654      0.0517
        11        -0.0000      0.0033     -0.0007      0.0000      0.0000
        12        -0.0001      0.4623      0.3827      0.3602      0.1169
        13        -0.0001     -0.3827      0.4624      0.3602      0.1169
        14        -0.1535     -0.0000     -0.0004      0.0236      0.0077
        15         0.0000     -0.0967      0.4341      0.1978      0.0671
        16         0.0000      0.4340      0.0967      0.1977      0.0670
        17         0.0000     -0.0006      0.0001      0.0000      0.0000
        18        -0.0000      0.0780     -0.4298      0.1909      0.0652
        19        -0.0000     -0.4300     -0.0780      0.1910      0.0652
        20         0.3594     -0.0000     -0.0001      0.1292      0.0446
        21        -0.0000     -0.0048      0.0179      0.0003      0.0001
        22        -0.0000      0.0179      0.0048      0.0003      0.0001
        23        -0.0255      0.0000      0.0000      0.0006      0.0002
        24        -1.1448     -0.0000     -0.0000      1.3106      0.4864
        25        -0.0000      0.0123     -0.0922      0.0086      0.0033
        26        -0.0000     -0.0922     -0.0123      0.0087      0.0033
        27        -0.0000      0.5055      0.0920      0.2640      0.1032
        28        -0.0000     -0.0920      0.5055      0.2640      0.1032
        29        -0.0000      0.0003     -0.0001      0.0000      0.0000
        30         0.0000      0.0027     -0.0084      0.0001      0.0000
        31         0.0000     -0.0084     -0.0027      0.0001      0.0000
        32         0.2643     -0.0000     -0.0000      0.0698      0.0280
        33        -0.0000     -0.0116      0.3414      0.1167      0.0475
        34         0.0000      0.3414      0.0116      0.1167      0.0475
        35        -0.0000      0.0000     -0.0000      0.0000      0.0000
        36         0.2573      0.0001      0.0002      0.0662      0.0275
        37         0.0001      0.0753     -0.4977      0.2534      0.1056
        38         0.0000     -0.4977     -0.0753      0.2534      0.1056
        39         0.0000      0.5749      0.0901      0.3386      0.1431
        40         0.0000     -0.0900      0.5749      0.3386      0.1431
        41        -0.3275      0.0001     -0.0001      0.1073      0.0456
        42         0.0001      0.4551     -0.1745      0.2375      0.1011
        43        -0.0003      0.1744      0.4551      0.2375      0.1011
        44        -0.8572     -0.0000     -0.0001      0.7348      0.3141
        45        -0.0000     -0.0001      0.0000      0.0000      0.0000
        46        -0.0001      0.0028     -0.0141      0.0002      0.0001
        47        -0.0000     -0.0142     -0.0028      0.0002      0.0001
        48         0.0000     -0.0107      0.2016      0.0408      0.0179
        49        -0.0000      0.2016      0.0107      0.0408      0.0179
        50         0.0000     -0.0789     -0.0017      0.0062      0.0028
        51        -0.0000      0.0017     -0.0789      0.0062      0.0028
        52        -0.0000      0.0005     -0.0001      0.0000      0.0000
        53         0.0000      0.2689      0.0571      0.0756      0.0340
        54        -0.0000     -0.0571      0.2689      0.0756      0.0340
        55        -0.0057      0.0000     -0.0000      0.0000      0.0000
        56         0.0000      0.0162      0.0012      0.0003      0.0001
        57        -0.0000      0.0012     -0.0162      0.0003      0.0001
        58        -0.0000     -0.0001     -0.0000      0.0000      0.0000
        59        -0.0001      0.1515     -0.3225      0.1269      0.0592
        60         0.0001      0.3225      0.1515      0.1269      0.0592
        61         0.4041     -0.0000     -0.0001      0.1633      0.0765
        62         0.0000     -0.0158      0.0885      0.0081      0.0038
        63        -0.0000      0.0885      0.0158      0.0081      0.0038
        64         0.1844     -0.0001      0.0000      0.0340      0.0167
        65        -0.0000     -0.0001      0.0001      0.0000      0.0000
        66         0.1522     -0.0001      0.0000      0.0232      0.0114
        67         0.0000      0.3913      0.0874      0.1608      0.0794
        68         0.0000      0.0874     -0.3913      0.1607      0.0794
        69        -0.5420      0.0000      0.0000      0.2938      0.1473
        70         0.0000     -0.0203      0.1641      0.0273      0.0138
        71         0.0000      0.1640      0.0203      0.0273      0.0138
        72         0.0000      0.0441     -0.2288      0.0543      0.0276
        73         0.0000     -0.2287     -0.0441      0.0543      0.0276
        74         0.1226      0.0000      0.0001      0.0150      0.0077
        75         0.3304      0.0000     -0.0000      0.1092      0.0567
        76        -0.0000     -0.0091      0.2387      0.0571      0.0299
        77         0.0000      0.2386      0.0090      0.0570      0.0299
        78        -0.0000     -0.1253      0.1336      0.0336      0.0177
        79        -0.0002     -0.1338     -0.1252      0.0336      0.0177
        80         0.0946     -0.0003     -0.0003      0.0090      0.0047
        81         0.0000     -0.0008      0.0005      0.0000      0.0000
        82         0.0000     -0.2333      0.3018      0.1455      0.0769
        83        -0.0000     -0.3018     -0.2333      0.1455      0.0769
        84        -0.0000     -0.0106      0.0600      0.0037      0.0020
        85        -0.0000      0.0600      0.0106      0.0037      0.0020
        86         0.0000      0.0412     -0.1781      0.0334      0.0183
        87         0.0000     -0.1781     -0.0412      0.0334      0.0183
        88         0.0466      0.0000      0.0000      0.0022      0.0012
        89         0.0000      0.0002      0.0000      0.0000      0.0000
        90         0.0000      0.1531      0.0152      0.0237      0.0131
        91        -0.0000      0.0152     -0.1531      0.0237      0.0131
        92        -0.0000      0.0305      0.0116      0.0011      0.0006
        93         0.0000      0.0116     -0.0305      0.0011      0.0006
        94         0.0000      0.0000     -0.0000      0.0000      0.0000
        95        -0.0000      0.0707      0.0310      0.0060      0.0034
        96         0.0000      0.0310     -0.0707      0.0060      0.0034
        97         0.0000     -0.0001     -0.0000      0.0000      0.0000
        98         0.2421      0.0000      0.0002      0.0586      0.0332
        99        -0.0001      0.2219      0.2015      0.0898      0.0510
       100         0.0001      0.2015     -0.2218      0.0898      0.0510
       101         0.0001      0.0424     -0.3657      0.1355      0.0773
       102         0.0000     -0.3656     -0.0424      0.1355      0.0773
       103         0.4456      0.0000      0.0000      0.1985      0.1152
       104        -0.0000     -0.0001      0.0001      0.0000      0.0000
       105        -0.8666     -0.0000     -0.0001      0.7511      0.4426
       106        -0.0001      0.2496      0.0067      0.0624      0.0368
       107        -0.0002     -0.0067      0.2497      0.0624      0.0368
       108        -0.0001      0.1552      0.0812      0.0307      0.0182
       109         0.0000      0.0813     -0.1551      0.0307      0.0182
       110        -0.0000     -0.1511     -0.0238      0.0234      0.0140
       111        -0.0000      0.0238     -0.1511      0.0234      0.0140
       112         0.0725     -0.0000      0.0000      0.0053      0.0032
       113        -0.0000     -0.0122      0.0452      0.0022      0.0013
       114        -0.0000      0.0451      0.0122      0.0022      0.0013
       115        -0.1680      0.0000      0.0000      0.0282      0.0172
       116        -0.0000      0.0088     -0.0378      0.0015      0.0009
       117        -0.0000     -0.0378     -0.0088      0.0015      0.0009
       118         0.1665     -0.0000     -0.0000      0.0277      0.0175
       119        -0.2299      0.0000      0.0000      0.0529      0.0337
       120         0.0000      0.0081      0.0548      0.0031      0.0020
       121        -0.0000      0.0548     -0.0081      0.0031      0.0020
       122        -0.0000      0.0001      0.0000      0.0000      0.0000
       123         0.0000      0.1936     -0.0107      0.0376      0.0246
       124        -0.0000     -0.0107     -0.1937      0.0376      0.0246
       125        -0.0000      0.2058     -0.2471      0.1034      0.0680
       126        -0.0000     -0.2471     -0.2057      0.1034      0.0680
       127         0.0606     -0.0000     -0.0000      0.0037      0.0024
       128         0.1995     -0.0000      0.0000      0.0398      0.0268
       129         0.0000     -0.0000      0.0000      0.0000      0.0000
       130         0.0000      0.1317     -0.1451      0.0384      0.0260
       131         0.0000      0.1451      0.1317      0.0384      0.0260
       132         0.4520      0.0007      0.0017      0.2043      0.1400
       133        -0.0015     -0.0283      0.5230      0.2743      0.1881
       134        -0.0007      0.5230      0.0283      0.2743      0.1882
       135         0.0763      0.0000      0.0000      0.0058      0.0040
       136        -0.0000      0.0000      0.0000      0.0000      0.0000
       137        -0.0000      0.0142     -0.1237      0.0155      0.0110
       138        -0.0000      0.1237      0.0142      0.0155      0.0110
       139        -0.0000     -0.0000     -0.0000      0.0000      0.0000
       140        -0.0001     -0.0090      0.5001      0.2502      0.1794
       141        -0.0000     -0.5002     -0.0090      0.2503      0.1795
       142        -0.5218      0.0000     -0.0001      0.2723      0.1964
       143        -0.0000      0.1043      0.0481      0.0132      0.0097
       144         0.0000      0.0481     -0.1044      0.0132      0.0097
       145         0.1123      0.0000      0.0001      0.0126      0.0094
       146        -0.0000     -0.0679      0.3433      0.1224      0.0912
       147        -0.0000      0.3433      0.0679      0.1224      0.0912
       148        -0.3725     -0.0000     -0.0000      0.1387      0.1047
       149         0.0000     -0.0000      0.0000      0.0000      0.0000
       150         0.0000     -0.0450      0.2533      0.0662      0.0514
       151        -0.0000     -0.2533     -0.0449      0.0662      0.0514
       152         0.0001      0.0050      0.1515      0.0230      0.0179
       153        -0.0000     -0.1517      0.0049      0.0230      0.0179
       154        -0.0143      0.0003      0.0007      0.0002      0.0002
       155         0.0507      0.0000      0.0000      0.0026      0.0020
       156        -0.0498     -0.0000     -0.0000      0.0025      0.0020
       157         0.0000      0.2509     -0.1497      0.0854      0.0681
       158        -0.0000     -0.1498     -0.2509      0.0854      0.0681
       159         0.0000      0.0893     -0.3334      0.1191      0.0955
       160         0.0000     -0.3334     -0.0893      0.1191      0.0955
       161         0.0000     -0.3766      0.0173      0.1421      0.1159
       162        -0.0000     -0.0173     -0.3766      0.1421      0.1159
       163        -0.0000      0.0002     -0.0001      0.0000      0.0000
       164        -0.0000      0.0688     -0.1210      0.0194      0.0159
       165         0.0000      0.1211      0.0689      0.0194      0.0159
       166         0.0225     -0.0000      0.0000      0.0005      0.0004
       167        -0.0000     -0.0000     -0.0001      0.0000      0.0000
       168         0.0000      0.0188      0.0874      0.0080      0.0066
       169        -0.0000      0.0874     -0.0188      0.0080      0.0066
       170        -0.0003     -0.0874      0.1044      0.0185      0.0155
       171         0.0001     -0.1044     -0.0874      0.0186      0.0155
       172        -0.1212      0.0001     -0.0003      0.0147      0.0123
       173        -0.0000     -0.0479     -0.0033      0.0023      0.0019
       174        -0.0000      0.0033     -0.0479      0.0023      0.0019
       175        -0.2248      0.0000     -0.0000      0.0505      0.0430
       176         0.0000      0.0267     -0.0525      0.0035      0.0030
       177         0.0000     -0.0524     -0.0267      0.0035      0.0030
       178         0.0000      0.0002     -0.0000      0.0000      0.0000
       179        -0.3065      0.0000     -0.0000      0.0939      0.0812
       180         0.0000      0.0016     -0.0132      0.0002      0.0002
       181         0.0000     -0.0132     -0.0016      0.0002      0.0002
       182        -0.3516      0.0000      0.0000      0.1236      0.1086
       183        -0.0000     -0.0436      0.1470      0.0235      0.0209
       184         0.0000      0.1470      0.0436      0.0235      0.0209
       185         0.2900      0.0000     -0.0000      0.0841      0.0752
       186        -0.0647      0.0000     -0.0000      0.0042      0.0038
       187        -0.0000      0.0050     -0.0001      0.0000      0.0000
       188        -0.0000      0.0001      0.0050      0.0000      0.0000
       189        -0.0000      0.0020     -0.0114      0.0001      0.0001
       190        -0.0000     -0.0113     -0.0020      0.0001      0.0001
       191         0.0000      0.0063      0.0782      0.0062      0.0056
       192         0.0000      0.0782     -0.0063      0.0062      0.0056
       193         0.0000     -0.0000     -0.0000      0.0000      0.0000
       194         0.0882     -0.0001      0.0002      0.0078      0.0072
       195         0.0001      0.0559     -0.3086      0.0984      0.0915
       196        -0.0000     -0.3086     -0.0559      0.0984      0.0915
       197         0.1378      0.0000      0.0000      0.0190      0.0177
       198         0.0000     -0.0253     -0.2147      0.0467      0.0438
       199        -0.0000      0.2146     -0.0253      0.0467      0.0438
       200         0.0000     -0.0376     -0.0990      0.0112      0.0106
       201        -0.0000     -0.0990      0.0376      0.0112      0.0106
       202         0.0504      0.0000      0.0001      0.0025      0.0024
       203        -0.0000     -0.0004      0.0001      0.0000      0.0000
       204        -0.0000      0.0756     -0.1649      0.0329      0.0312
       205        -0.0000      0.1649      0.0757      0.0329      0.0312
       206         0.0000      0.1196     -0.0091      0.0144      0.0137
       207         0.0000     -0.0091     -0.1195      0.0144      0.0137
       208        -0.0665     -0.0000     -0.0000      0.0044      0.0043
       209         0.0000     -0.1368      0.0374      0.0201      0.0197
       210        -0.0000     -0.0374     -0.1368      0.0201      0.0197
       211        -0.0000      0.0286     -0.0111      0.0009      0.0009
       212        -0.0000      0.0111      0.0286      0.0009      0.0009
       213        -0.0040      0.0000      0.0000      0.0000      0.0000
       214        -0.0783      0.0000      0.0000      0.0061      0.0061
       215        -0.0000     -0.0011      0.0094      0.0001      0.0001
       216         0.0000     -0.0094     -0.0011      0.0001      0.0001
       217         0.0000     -0.0000      0.0000      0.0000      0.0000
       218        -0.0000     -0.0199      0.0884      0.0082      0.0084
       219        -0.0000      0.0884      0.0199      0.0082      0.0084
       220        -0.0451     -0.0000     -0.0000      0.0020      0.0021
       221         0.0000      0.0261      0.0142      0.0009      0.0009
       222        -0.0000      0.0142     -0.0261      0.0009      0.0009
       223        -0.0527      0.0000      0.0000      0.0028      0.0029
       224        -0.0382     -0.0000      0.0000      0.0015      0.0016
       225        -0.0000      0.0285      0.1008      0.0110      0.0118
       226        -0.0000      0.1008     -0.0285      0.0110      0.0118
       227        -0.1075     -0.0000     -0.0000      0.0116      0.0125
       228         0.1013      0.0000      0.0000      0.0103      0.0111
       229         0.0000     -0.2779      0.0007      0.0772      0.0848
       230        -0.0000      0.0007      0.2779      0.0772      0.0848
       231         0.0000     -0.0767      0.0229      0.0064      0.0071
       232         0.0000      0.0229      0.0767      0.0064      0.0071
       233        -0.0833      0.0000     -0.0000      0.0069      0.0082
       234        -0.0082      0.0000     -0.0000      0.0001      0.0001
       235         0.0000     -0.0000      0.0000      0.0000      0.0000
       236        -0.0000      0.1737      0.0769      0.0361      0.0437
       237        -0.0000     -0.0769      0.1737      0.0361      0.0437
       238         0.0000      0.0120     -0.0590      0.0036      0.0044
       239        -0.0000      0.0589      0.0120      0.0036      0.0044
       240         0.4475      0.0000      0.0000      0.2003      0.2469
       241         0.0000     -0.0191     -0.0028      0.0004      0.0005
       242         0.0000      0.0028     -0.0191      0.0004      0.0005
       243        -0.0000     -0.0000      0.0001      0.0000      0.0000
       244        -0.0000     -0.0948      0.0029      0.0090      0.0116
       245         0.0000     -0.0029     -0.0948      0.0090      0.0116
       246        -0.0000     -0.0038      0.0182      0.0003      0.0005
       247         0.0000     -0.0182     -0.0038      0.0003      0.0005
       248         0.0000      0.0001      0.0000      0.0000      0.0000
       249        -0.0000     -0.1036     -0.0102      0.0108      0.0142
       250         0.0000     -0.0102      0.1036      0.0108      0.0142
       251         0.2499     -0.0001     -0.0001      0.0624      0.0819
       252        -0.0001      0.0601     -0.2824      0.0834      0.1100
       253         0.0001      0.2824      0.0601      0.0834      0.1100
       254         0.2124     -0.0000      0.0000      0.0451      0.0604
       255        -0.1020      0.0000     -0.0000      0.0104      0.0140
       256        -0.0000     -0.0331     -0.1479      0.0230      0.0312
       257        -0.0000     -0.1479      0.0331      0.0230      0.0312
       258        -0.0000      0.0390      0.1514      0.0244      0.0336
       259        -0.0000      0.1514     -0.0390      0.0244      0.0335
       260        -0.1101     -0.0000     -0.0000      0.0121      0.0167
       261        -0.0000      0.0073     -0.0081      0.0001      0.0002
       262        -0.0000     -0.0082     -0.0073      0.0001      0.0002
       263         0.0000     -0.0519      0.0971      0.0121      0.0168
       264         0.0000      0.0971      0.0519      0.0121      0.0168
       265         0.0000      0.0002      0.0002      0.0000      0.0000
       266         0.0000     -0.0902     -0.0007      0.0081      0.0114
       267        -0.0000     -0.0007      0.0902      0.0081      0.0114
       268        -0.0000      0.0823      0.0224      0.0073      0.0102
       269         0.0000      0.0224     -0.0823      0.0073      0.0102
       270         0.0000     -0.0000      0.0000      0.0000      0.0000
       271         0.2252     -0.0000      0.0000      0.0507      0.0718
       272        -0.0000      0.0202     -0.0777      0.0064      0.0094
       273        -0.0000      0.0777      0.0202      0.0064      0.0094
       274        -0.0001     -0.0000      0.0001      0.0000      0.0000
       275         0.0000      0.0001     -0.0000      0.0000      0.0000
       276        -0.1150     -0.0000      0.0000      0.0132      0.0194
       277        -0.0000     -0.0004     -0.0006      0.0000      0.0000
       278        -0.0000      0.0678     -0.0510      0.0072      0.0106
       279         0.0000      0.0510      0.0678      0.0072      0.0106
       280         0.0219     -0.0000     -0.0000      0.0005      0.0007
       281         0.0000      0.0179     -0.0376      0.0017      0.0026
       282        -0.0000     -0.0376     -0.0179      0.0017      0.0026
       283         0.1633     -0.0000      0.0000      0.0267      0.0403
       284        -0.0000      0.0001     -0.0000      0.0000      0.0000
       285        -0.0000     -0.0991      0.0889      0.0177      0.0273
       286        -0.0000      0.0889      0.0991      0.0177      0.0273
       287        -0.0650      0.0000     -0.0000      0.0042      0.0066
       288        -0.0000      0.0001      0.0001      0.0000      0.0000
       289        -0.0000     -0.0062      0.0316      0.0010      0.0016
       290        -0.0000     -0.0316     -0.0062      0.0010      0.0016
       291         0.0000      0.0822     -0.0450      0.0088      0.0139
       292         0.0000     -0.0450     -0.0822      0.0088      0.0138
       293        -0.0000     -0.0447      0.0460      0.0041      0.0065
       294         0.0000      0.0460      0.0448      0.0041      0.0065
       295        -0.0329     -0.0000      0.0000      0.0011      0.0017
       296         0.0000     -0.0484     -0.0012      0.0023      0.0038
       297         0.0000     -0.0012      0.0484      0.0023      0.0038
       298        -0.0000     -0.0001     -0.0001      0.0000      0.0000
       299         0.0827      0.0000     -0.0000      0.0068      0.0111
       300         0.1049     -0.0002     -0.0001      0.0110      0.0184
       301        -0.0001     -0.0015     -0.1411      0.0199      0.0333
       302        -0.0001     -0.1411      0.0015      0.0199      0.0333
       303        -0.0000     -0.0193     -0.0396      0.0019      0.0033
       304        -0.0000      0.0395     -0.0193      0.0019      0.0033
       305         0.0000      0.0003      0.0006      0.0000      0.0000
       306        -0.0000     -0.0254     -0.1040      0.0115      0.0195
       307        -0.0000     -0.1040      0.0254      0.0115      0.0195
       308        -0.0000      0.0025     -0.0019      0.0000      0.0000
       309        -0.0000     -0.0019     -0.0026      0.0000      0.0000
       310         0.0518      0.0000     -0.0000      0.0027      0.0046
       311         0.0000      0.0105      0.1617      0.0263      0.0452
       312        -0.0000      0.1617     -0.0105      0.0263      0.0452
       313        -0.0493     -0.0000      0.0000      0.0024      0.0043
       314         0.0000     -0.0261      0.1248      0.0162      0.0286
       315         0.0000     -0.1248     -0.0261      0.0162      0.0286
       316        -0.0000      0.0245     -0.1627      0.0271      0.0480
       317         0.0000     -0.1627     -0.0245      0.0271      0.0480
       318         0.0728      0.0000      0.0000      0.0053      0.0095
       319        -0.0000      0.0020     -0.0090      0.0001      0.0002
       320        -0.0000     -0.0090     -0.0020      0.0001      0.0002
       321        -0.0125     -0.0000     -0.0000      0.0002      0.0003
       322         0.0000      0.0705     -0.1878      0.0402      0.0740
       323        -0.0000     -0.1878     -0.0705      0.0402      0.0740
       324        -0.0000     -0.0159     -0.0571      0.0035      0.0065
       325         0.0000     -0.0570      0.0158      0.0035      0.0065
       326        -0.0000      0.0001     -0.0000      0.0000      0.0000
       327         0.1407     -0.0000     -0.0001      0.0198      0.0368
       328        -0.0003     -0.0218     -0.0392      0.0020      0.0037
       329         0.0002     -0.0392      0.0218      0.0020      0.0037
       330        -0.0000      0.0000     -0.0000      0.0000      0.0000
       331        -0.1358      0.0000      0.0000      0.0184      0.0354
       332        -0.0692      0.0000      0.0000      0.0048      0.0093
       333        -0.0000     -0.0000     -0.0000      0.0000      0.0000
       334         0.0002     -0.0003     -0.0056      0.0000      0.0001
       335        -0.0000     -0.0056      0.0003      0.0000      0.0001
       336         0.2004      0.0000      0.0000      0.0402      0.0785
       337        -0.0000     -0.0054      0.1330      0.0177      0.0347
       338         0.0000     -0.1330     -0.0054      0.0177      0.0347
       339        -0.0362      0.0000      0.0000      0.0013      0.0026
       340        -0.0000     -0.0617      0.0360      0.0051      0.0103
       341        -0.0000      0.0360      0.0616      0.0051      0.0103
       342         0.0000      0.0400     -0.0743      0.0071      0.0145
       343        -0.0000     -0.0743     -0.0400      0.0071      0.0145
       344         0.0935     -0.0000      0.0000      0.0087      0.0179
       345         0.0000      0.0014     -0.0583      0.0034      0.0071
       346         0.0000      0.0583      0.0014      0.0034      0.0071
       347        -0.0000     -0.0065      0.0326      0.0011      0.0024
       348        -0.0000      0.0327      0.0065      0.0011      0.0024
       349         0.0069     -0.0000     -0.0000      0.0000      0.0001
       350         0.0000     -0.0289     -0.0715      0.0059      0.0128
       351        -0.0000     -0.0715      0.0289      0.0059      0.0128
       352         0.0000     -0.0397     -0.0161      0.0018      0.0040
       353         0.0002      0.0161     -0.0397      0.0018      0.0040
       354        -0.0000     -0.0001     -0.0000      0.0000      0.0000
       355         0.0989     -0.0000      0.0001      0.0098      0.0215
       356         0.0291     -0.0000     -0.0000      0.0008      0.0019
       357         0.0243     -0.0000      0.0000      0.0006      0.0013
       358        -0.0000      0.0002      0.0000      0.0000      0.0000
       359        -0.0600     -0.0001      0.0002      0.0036      0.0082
       360        -0.0000      0.1383     -0.0044      0.0191      0.0439
       361        -0.0001     -0.0045     -0.1383      0.0192      0.0439
       362         0.0000     -0.0063      0.0009      0.0000      0.0001
       363        -0.0000     -0.0009     -0.0059      0.0000      0.0001
       364        -0.0395     -0.0000      0.0000      0.0016      0.0036
       365         0.0000     -0.0001      0.0069      0.0000      0.0001
       366        -0.0000     -0.0069     -0.0001      0.0000      0.0001
       367        -0.0000      0.0000      0.0000      0.0000      0.0000
       368         0.0019      0.0000     -0.0000      0.0000      0.0000
       369        -0.0000     -0.0748      0.0100      0.0057      0.0138
       370        -0.0000     -0.0100     -0.0748      0.0057      0.0138
       371         0.0000      0.0003     -0.0004      0.0000      0.0000
       372         0.0000     -0.0346     -0.0634      0.0052      0.0129
       373         0.0000     -0.0634      0.0346      0.0052      0.0129
       374         0.0000     -0.1008      0.2245      0.0605      0.1504
       375         0.0000      0.2245      0.1008      0.0605      0.1504
       376        -0.0000     -0.0062      0.0015      0.0000      0.0001
       377         0.0000      0.0014      0.0062      0.0000      0.0001
       378         0.0000      0.0000     -0.0000      0.0000      0.0000
       379        -0.0042      0.0000      0.0000      0.0000      0.0000
       380         0.0000     -0.0342      0.0737      0.0066      0.0168
       381        -0.0000     -0.0737     -0.0342      0.0066      0.0168
       382        -0.2065      0.0000      0.0000      0.0427      0.1092
       383         0.0661      0.0000     -0.0000      0.0044      0.0113
       384         0.0000     -0.0044     -0.0052      0.0000      0.0001
       385         0.0000      0.0052     -0.0044      0.0000      0.0001
       386        -0.0000     -0.0000      0.0000      0.0000      0.0000
       387        -0.2910     -0.0000     -0.0000      0.0847      0.2235
       388        -0.0000     -0.1127      0.3164      0.1128      0.3003
       389         0.0000     -0.3164     -0.1127      0.1128      0.3003
       390         0.0000      0.0115     -0.0018      0.0001      0.0004
       391        -0.0000     -0.0018     -0.0115      0.0001      0.0004
       392         0.0000     -0.0522      0.0067      0.0028      0.0076
       393        -0.0000     -0.0067     -0.0522      0.0028      0.0076
       394         0.0000     -0.0539      0.1261      0.0188      0.0518
       395        -0.0000     -0.1261     -0.0539      0.0188      0.0518
       396        -0.0000      0.0993     -0.3562      0.1367      0.3819
       397        -0.0000     -0.3562     -0.0993      0.1367      0.3819
       398         0.0000      0.0481     -0.2040      0.0439      0.1254
       399         0.0000     -0.2040     -0.0481      0.0439      0.1254
       400         0.3898     -0.0000      0.0000      0.1519      0.4412
       401        -0.0000      0.0016     -0.0007      0.0000      0.0000
       402         0.0000     -0.0007     -0.0016      0.0000      0.0000
       403        -0.0710     -0.0000      0.0000      0.0050      0.0152
       404         0.0000      0.0319     -0.0668      0.0055      0.0167
       405         0.0000      0.0668      0.0319      0.0055      0.0167
[...]
      1  -0.136639D+03 -0.136630D+03 -0.136630D+03 -0.136616D+03 -0.136531D+03
      2  -0.200434D+00  0.467633D-04 -0.312323D-05  0.362255D-01  0.141788D-04
      3   0.159359D-05 -0.594203D-02 -0.132946D+00  0.142640D-05 -0.618252D-01
      4  -0.484309D-04 -0.132951D+00  0.594512D-02 -0.284740D-04 -0.357419D-01
      5   0.510282D+00 -0.105925D-03  0.513010D-05 -0.930597D-01 -0.455189D-04
      6  -0.330652D-05  0.154411D-01  0.345487D+00 -0.392856D-05  0.194714D+00
      7   0.124800D-03  0.345495D+00 -0.154498D-01  0.772690D-04  0.112569D+00
      8   0.000000D+00  0.000000D+00 -0.341595D-04  0.000000D+00 -0.159086D-05
      9  -0.766395D-04  0.104402D-01 -0.461338D-03  0.890820D-05 -0.174300D+00
     10  -0.409034D-05 -0.469430D-03 -0.103819D-01  0.000000D+00  0.301465D+00
     11   0.748338D+00  0.328723D-03 -0.575215D-04 -0.185187D+01 -0.152702D-03
     12   0.371378D+00  0.247380D+00 -0.234694D-02 -0.696908D+00 -0.845409D-02
     13   0.371028D+00 -0.247152D+00  0.229991D-02 -0.696996D+00  0.852157D-02
     14  -0.136978D-04  0.511490D-03  0.116491D-01  0.476168D-05  0.289084D+00
     15   0.195496D-03  0.114677D-01 -0.522114D-03 -0.361259D-04  0.167154D+00
     16  -0.169032D-04  0.233895D-02  0.247362D+00 -0.548724D-05 -0.135511D-01
               341           342           343           344           345 
      1  -0.136531D+03 -0.136520D+03 -0.136520D+03 -0.136499D+03 -0.136436D+03
      2   0.102486D-04 -0.873797D-05  0.750990D-05 -0.935405D-01 -0.176918D-05
      3   0.357361D-01  0.403330D-01 -0.741542D-01 -0.152881D-04  0.164533D-02
      4  -0.617847D-01  0.741615D-01  0.403616D-01 -0.150648D-04  0.583117D-01
      5  -0.288763D-04  0.271251D-04 -0.206582D-04  0.289308D+00  0.512152D-05
      6  -0.112557D+00 -0.108276D+00  0.199083D+00  0.470035D-04 -0.448424D-02
      7   0.194606D+00 -0.199101D+00 -0.108366D+00  0.447332D-04 -0.158940D+00
      8   0.129089D-05 -0.436051D-05  0.577656D-05  0.000000D+00  0.000000D+00
      9  -0.301415D+00  0.547010D-01  0.298375D-01 -0.505872D-04  0.151860D+00
     10  -0.174319D+00 -0.296618D-01  0.546581D-01  0.546642D-04 -0.428181D-02
     11  -0.596012D-04  0.812843D-04 -0.689506D-05  0.778713D+00 -0.718045D-05
     12  -0.135681D-01 -0.669582D-01 -0.334104D-01 -0.223120D+00  0.164846D+00
     13   0.135950D-01  0.669128D-01  0.334159D-01 -0.223123D+00 -0.164826D+00
     14  -0.167200D+00  0.670254D-01 -0.123059D+00  0.452152D-04 -0.152053D-02
     15   0.289129D+00  0.123033D+00  0.668666D-01  0.280338D-04 -0.539705D-01
     16   0.850511D-02 -0.334267D-01  0.669506D-01  0.277990D-05 -0.115841D-02
               346           347           348           349           350 
      1  -0.136436D+03 -0.136375D+03 -0.136375D+03 -0.136357D+03 -0.136332D+03
      2   0.000000D+00  0.241625D-05  0.121535D-05 -0.690495D-02  0.000000D+00
      3   0.583105D-01 -0.667642D-02  0.326273D-01 -0.328493D-05 -0.285444D-01
      4  -0.164638D-02 -0.326196D-01 -0.667075D-02  0.740783D-05  0.716200D-01
      5   0.000000D+00 -0.461462D-05 -0.315774D-05  0.437953D-01  0.152499D-05
      6  -0.158938D+00  0.728306D-02 -0.355754D-01  0.951609D-05  0.106074D+00
      7   0.448797D-02  0.355534D-01  0.726737D-02 -0.203679D-04 -0.266148D+00
      8   0.000000D+00  0.119021D-05 -0.393822D-05  0.000000D+00  0.000000D+00
      9  -0.429086D-02  0.907157D-01  0.185563D-01  0.156069D-04  0.387748D+00
     10  -0.151860D+00 -0.185588D-01  0.907187D-01 -0.100456D-05  0.154537D+00
     11   0.000000D+00 -0.548342D-04 -0.391204D-04 -0.682960D+00  0.190589D-04
     12   0.115958D-02 -0.109380D+00 -0.183887D-01  0.164581D+00 -0.289296D-01
     13  -0.116061D-02  0.109378D+00  0.183829D-01  0.164600D+00  0.289026D-01
     14  -0.539673D-01 -0.348976D-01  0.170593D+00 -0.101422D-04  0.238283D+00
     15   0.152611D-02 -0.170581D+00 -0.348943D-01 -0.168506D-04 -0.597864D+00
     16   0.164836D+00 -0.183841D-01  0.109377D+00 -0.192375D-05  0.127214D-01
               351           352           353           354           355 
      1  -0.136332D+03 -0.136283D+03 -0.136283D+03 -0.136280D+03 -0.136280D+03
      2   0.351046D-05 -0.456645D-05 -0.246389D-03  0.287519D-05 -0.989323D-01
      3  -0.716213D-01 -0.396763D-01  0.162420D-01 -0.146521D-03 -0.375864D-04
      4  -0.285457D-01  0.162435D-01  0.396763D-01  0.366148D-04 -0.984121D-04
      5  -0.108278D-04  0.113744D-04  0.642740D-03 -0.750475D-05  0.258220D+00
      6   0.266153D+00  0.125181D+00 -0.512449D-01  0.464491D-03  0.117965D-03
      7   0.106079D+00 -0.512490D-01 -0.125181D+00 -0.115937D-03  0.310848D-03
      8   0.143912D-05  0.318299D-04 -0.325124D-05 -0.926779D-02  0.000000D+00
      9  -0.154544D+00 -0.195790D+00 -0.478257D+00 -0.445092D-03  0.120110D-02
     10   0.387750D+00 -0.478258D+00  0.195790D+00 -0.179898D-02 -0.452296D-03
     11  -0.356346D-04 -0.488959D-04 -0.138613D-02  0.163108D-04 -0.562798D+00
     12   0.127365D-01 -0.211306D-01 -0.573469D-01 -0.421986D-04 -0.203764D-01
     13  -0.127124D-01  0.211260D-01  0.572426D-01  0.432906D-04 -0.206499D-01
     14   0.597873D+00 -0.269415D+00  0.110292D+00 -0.101499D-02 -0.259772D-03
     15   0.238288D+00  0.110288D+00  0.269397D+00  0.250609D-03 -0.677767D-03
     16   0.289146D-01  0.572848D-01 -0.211277D-01  0.213503D-03  0.464903D-04
               356           357           358           359           360 
      1  -0.136211D+03 -0.136161D+03 -0.136139D+03 -0.136139D+03 -0.136133D+03
      2  -0.291297D-01 -0.242879D-01  0.262480D-05  0.600042D-01  0.333944D-04
      3  -0.224353D-05 -0.203710D-05  0.210038D-03 -0.605364D-04  0.138324D+00
      4   0.136126D-05 -0.882443D-05 -0.451844D-04 -0.172191D-03  0.384799D-02
      5   0.156922D+00  0.567677D-01 -0.936103D-05 -0.214310D+00 -0.122241D-03
      6   0.730073D-05  0.664025D-05 -0.578987D-03  0.167480D-03 -0.382340D+00
      7  -0.541608D-05  0.242161D-04  0.123845D-03  0.474613D-03 -0.106367D-01
      8   0.000000D+00  0.000000D+00 -0.788077D-02  0.000000D+00  0.132184D-04
      9   0.592743D-05  0.139928D-04  0.447400D-04  0.174666D-03 -0.368627D-02
     10   0.801122D-05 -0.145672D-05  0.202942D-03 -0.583057D-04  0.132463D+00
     11   0.513333D+00 -0.387312D+00  0.124770D-04  0.263462D+00  0.000000D+00
     12  -0.772756D+00  0.192980D+00  0.298912D-04  0.252349D+00 -0.238221D-02
     13  -0.772759D+00  0.192979D+00 -0.864264D-05  0.252197D+00  0.275790D-02
     14   0.100917D-04 -0.100782D-04  0.210465D-03 -0.453174D-04  0.179612D+00
     15  -0.140633D-04 -0.126036D-04 -0.418117D-04 -0.192969D-03  0.502033D-02
     16   0.000000D+00  0.604970D-05 -0.983893D-04  0.344222D-04 -0.408016D-01
               361           362           363           364           365 
      1  -0.136133D+03 -0.136131D+03 -0.136131D+03 -0.136123D+03 -0.135952D+03
      2   0.824703D-04 -0.124851D-04  0.107383D-04  0.395422D-01 -0.145634D-05
      3  -0.385032D-02 -0.629377D-02 -0.876913D-03 -0.136640D-04 -0.138571D-03
      4   0.138342D+00 -0.865418D-03  0.588212D-02 -0.313264D-04 -0.691416D-02
      5  -0.303134D-03  0.468976D-04 -0.409073D-04 -0.174231D+00  0.460565D-05
      6   0.106423D-01  0.190083D-01  0.265468D-02  0.373013D-04  0.117215D-02
      7  -0.382396D+00  0.262249D-02 -0.178702D-01  0.846134D-04  0.585131D-01
      8  -0.250842D-05  0.000000D+00  0.000000D+00  0.000000D+00  0.000000D+00
      9  -0.132453D+00 -0.700438D-03  0.508062D-02  0.418825D-04 -0.225513D+00
     10  -0.368501D-02  0.468021D-02  0.696039D-03 -0.139536D-04  0.451524D-02
     11   0.107104D-03 -0.169578D-04 -0.222883D-04 -0.811193D+00  0.942263D-05
     12  -0.406698D-01  0.204122D-01 -0.114159D+00  0.674978D+00 -0.304407D-01
     13   0.416163D-01 -0.205766D-01  0.114314D+00  0.674945D+00  0.304296D-01
     14  -0.495461D-02  0.238819D+00  0.342069D-01 -0.108810D-04  0.854380D-02
     15   0.178886D+00  0.342134D-01 -0.239359D+00 -0.438769D-04  0.426620D+00
     16   0.260509D-02  0.114357D+00  0.204823D-01  0.671535D-05  0.462129D-03
               366           367           368           369           370 
      1  -0.135952D+03 -0.135949D+03 -0.135948D+03 -0.135932D+03 -0.135932D+03
      2   0.106525D-05  0.000000D+00 -0.185069D-02  0.000000D+00  0.000000D+00
      3  -0.692203D-02  0.160062D-05  0.000000D+00 -0.748224D-01 -0.971946D-02
      4   0.138861D-03  0.000000D+00  0.000000D+00 -0.971887D-02  0.748178D-01
      5  -0.340568D-05  0.000000D+00 -0.350513D-02  0.000000D+00 -0.123039D-05
      6   0.585346D-01 -0.389552D-05  0.000000D+00  0.200674D+00  0.260683D-01
      7  -0.117476D-02  0.326792D-05  0.000000D+00  0.260655D-01 -0.200663D+00
      8   0.000000D+00  0.254450D-02  0.000000D+00  0.000000D+00  0.115438D-05
      9   0.452754D-02 -0.131388D-05  0.000000D+00  0.522960D-01 -0.402594D+00
     10   0.225484D+00  0.000000D+00  0.347455D-05 -0.402605D+00 -0.522998D-01
     11  -0.108595D-04  0.113460D-05 -0.920958D-01  0.000000D+00  0.270083D-05
     12  -0.464541D-03  0.000000D+00  0.219097D-01 -0.194832D-01  0.117431D+00
     13   0.462491D-03  0.000000D+00  0.219138D-01  0.194875D-01 -0.117433D+00
     14   0.426598D+00  0.649789D-05  0.492243D-05 -0.308684D+00 -0.401031D-01
     15  -0.856384D-02  0.000000D+00  0.308322D-05 -0.400902D-01  0.308659D+00
     16  -0.304482D-01  0.000000D+00  0.107396D-05 -0.117434D+00 -0.194849D-01
               371           372           373           374           375 
      1  -0.135854D+03 -0.135854D+03 -0.135854D+03 -0.135844D+03 -0.135844D+03
      2   0.000000D+00 -0.403670D-05  0.000000D+00  0.000000D+00 -0.345792D-05
      3   0.311621D-03 -0.343449D-01 -0.635071D-01 -0.101747D+00  0.224045D+00
      4   0.439066D-03  0.635098D-01 -0.343338D-01 -0.224045D+00 -0.101746D+00
      5   0.000000D+00  0.134192D-04  0.122951D-05  0.203892D-05  0.115528D-04
      6  -0.101738D-02  0.112220D+00  0.207505D+00  0.342157D+00 -0.753422D+00
      7  -0.143260D-02 -0.207514D+00  0.112183D+00  0.753423D+00  0.342152D+00
      8   0.765479D-02 -0.281743D-04  0.548337D-04  0.150115D-05  0.000000D+00
      9   0.159123D-02  0.230499D+00 -0.124609D+00 -0.832251D+00 -0.377951D+00
     10  -0.113160D-02  0.124651D+00  0.230492D+00  0.377957D+00 -0.832254D+00
     11   0.000000D+00  0.536539D-04  0.334847D-05 -0.178739D-05  0.396362D-04
     12   0.370960D-03  0.481386D-01 -0.282601D-01  0.389177D-02  0.159894D-02
     13  -0.370953D-03 -0.481352D-01  0.282614D-01 -0.389007D-02 -0.160441D-02
     14  -0.136384D-02  0.148866D+00  0.275281D+00  0.300276D+00 -0.661199D+00
     15  -0.194620D-02 -0.275286D+00  0.148829D+00  0.661199D+00  0.300270D+00
     16   0.236166D-03 -0.282677D-01 -0.481366D-01  0.160606D-02 -0.388979D-02
               376           377           378           379           380 
      1  -0.135806D+03 -0.135806D+03 -0.135760D+03 -0.135759D+03 -0.135746D+03
      2   0.000000D+00  0.000000D+00  0.000000D+00  0.424278D-02 -0.105658D-05
      3  -0.622876D-02  0.141099D-02  0.140204D-04  0.431461D-05 -0.345227D-01
      4  -0.142587D-02 -0.623459D-02  0.338340D-05 -0.110556D-04 -0.735465D-01
      5  -0.104192D-05  0.000000D+00  0.000000D+00 -0.788616D-02  0.327612D-05
      6   0.131689D-01 -0.297452D-02 -0.437922D-04 -0.134480D-04  0.104167D+00
      7   0.302448D-02  0.131870D-01 -0.109794D-04  0.350448D-04  0.221916D+00
      8   0.000000D+00  0.000000D+00 -0.258610D-02  0.000000D+00  0.000000D+00
      9   0.154715D-01  0.680975D-01  0.146077D-04 -0.506558D-04 -0.291424D+00
     10  -0.681047D-01  0.155305D-01 -0.489772D-04 -0.168981D-04  0.136791D+00
     11  -0.225952D-05  0.000000D+00  0.000000D+00  0.120748D+00  0.787810D-05
     12  -0.327792D-01 -0.123690D+00  0.313392D-05 -0.148825D-03 -0.198984D-01
     13   0.327792D-01  0.123691D+00 -0.309409D-05 -0.150818D-03  0.198965D-01
     14  -0.104258D+00  0.237567D-01 -0.293190D-04 -0.120583D-04  0.703782D-01
     15  -0.237051D-01 -0.104257D+00 -0.860082D-05  0.331168D-04  0.149937D+00
     16  -0.123686D+00  0.327779D-01  0.525724D-05  0.000000D+00 -0.849898D-02
               381           382           383           384           385 
      1  -0.135746D+03 -0.135731D+03 -0.135673D+03 -0.135670D+03 -0.135670D+03
      2   0.502765D-05  0.206549D+00 -0.660670D-01 -0.246783D-04 -0.388992D-05
      3  -0.735526D-01  0.554332D-05  0.000000D+00 -0.442646D-02  0.522199D-02
      4   0.345245D-01 -0.315513D-05  0.000000D+00  0.522122D-02  0.441975D-02
      5  -0.163981D-04 -0.701795D+00  0.231479D+00  0.852098D-04  0.137545D-04
      6   0.221936D+00 -0.182635D-04  0.000000D+00  0.203746D-01 -0.240412D-01
      7  -0.104174D+00  0.987797D-05  0.000000D+00 -0.240385D-01 -0.203526D-01
      8   0.000000D+00  0.000000D+00  0.000000D+00 -0.785507D-05  0.000000D+00
      9   0.136805D+00 -0.114121D-04  0.112809D-04  0.315829D-01  0.267405D-01
     10   0.291448D+00 -0.129191D-04  0.446421D-05  0.267703D-01 -0.315881D-01
     11  -0.514440D-04 -0.265964D+01  0.559963D+00  0.258076D-03  0.450155D-04
     12   0.849914D-02  0.397831D-01 -0.738634D-01 -0.308219D-01 -0.280360D-01
     13  -0.849589D-02  0.397846D-01 -0.738799D-01  0.308201D-01  0.280321D-01
     14   0.149966D+00 -0.132309D-04  0.141975D-04 -0.629589D-01  0.743353D-01
     15  -0.703940D-01  0.185140D-04 -0.302232D-04  0.743442D-01  0.629841D-01
     16  -0.199016D-01  0.203894D-05  0.206008D-05  0.280353D-01 -0.308267D-01
               386           387           388           389           390 
      1  -0.135669D+03 -0.135610D+03 -0.135578D+03 -0.135578D+03 -0.135513D+03
      2   0.000000D+00  0.290978D+00  0.000000D+00 -0.408330D-05  0.000000D+00
      3   0.000000D+00 -0.487323D-05 -0.114038D+00 -0.315934D+00  0.115378D-01
      4  -0.709250D-05  0.379088D-05 -0.315937D+00  0.114035D+00  0.172832D-02
      5   0.000000D+00 -0.103411D+01 -0.226593D-05  0.147246D-04  0.000000D+00
      6   0.000000D+00  0.166664D-04  0.394539D+00  0.109304D+01 -0.358031D-01
      7   0.291268D-04 -0.131425D-04  0.109306D+01 -0.394530D+00 -0.536322D-02
      8  -0.130293D-01  0.000000D+00  0.493525D-05  0.000000D+00  0.000000D+00
      9  -0.336989D-04  0.215613D-04 -0.162609D+01  0.586924D+00 -0.765468D-02
     10   0.102766D-05  0.272545D-04  0.586937D+00  0.162607D+01  0.511108D-01
     11   0.000000D+00 -0.287165D+01 -0.299342D-05  0.443253D-04 -0.375871D-05
     12   0.258952D-04 -0.809909D-01  0.946507D-02 -0.303364D-02  0.452957D-01
     13  -0.258862D-04 -0.809890D-01 -0.946982D-02  0.304522D-02 -0.452959D-01
     14   0.402261D-04  0.181576D-04  0.640569D+00  0.177466D+01  0.429724D-01
     15  -0.396618D-04 -0.152895D-04  0.177467D+01 -0.640553D+00  0.643346D-02
     16  -0.143568D-04  0.000000D+00  0.304578D-02  0.945484D-02  0.243480D+00
               391           392           393           394           395 
      1  -0.135513D+03 -0.135444D+03 -0.135444D+03 -0.135436D+03 -0.135436D+03
      2   0.000000D+00  0.000000D+00  0.000000D+00  0.000000D+00  0.201357D-05
      3  -0.172825D-02 -0.522037D-01 -0.646114D-02 -0.544075D-01 -0.125886D+00
      4   0.115388D-01 -0.646264D-02  0.522171D-01 -0.125874D+00  0.544110D-01
      5   0.000000D+00  0.000000D+00 -0.172056D-05  0.000000D+00 -0.765192D-05
      6   0.536292D-02  0.176488D+00  0.218441D-01  0.202905D+00  0.469473D+00
      7  -0.358063D-01  0.218489D-01 -0.176540D+00  0.469429D+00 -0.202918D+00
      8   0.000000D+00  0.000000D+00  0.000000D+00  0.218246D-05  0.000000D+00
      9  -0.511103D-01  0.400134D-02 -0.323176D-01 -0.641256D+00  0.277197D+00
     10  -0.765693D-02 -0.323930D-01 -0.400760D-02  0.277158D+00  0.641286D+00
     11   0.000000D+00  0.000000D+00  0.000000D+00  0.000000D+00 -0.129449D-04
     12   0.243482D+00 -0.291525D-01  0.182531D+00 -0.173859D-01  0.679800D-02
     13  -0.243482D+00  0.291537D-01 -0.182531D+00  0.173844D-01 -0.679659D-02
     14  -0.643981D-02 -0.759656D-01 -0.939545D-02  0.243927D+00  0.564409D+00
     15   0.429700D-01 -0.939989D-02  0.758963D-01  0.564379D+00 -0.243970D+00
     16  -0.452965D-01 -0.182514D+00 -0.291550D-01 -0.680793D-02 -0.174103D-01
               396           397           398           399           400 
      1  -0.135381D+03 -0.135381D+03 -0.135287D+03 -0.135287D+03 -0.135215D+03
      2   0.187605D-05  0.364044D-05 -0.428398D-05 -0.287447D-05 -0.389794D+00
      3   0.100868D+00 -0.355731D+00  0.489750D-01 -0.203750D+00 -0.128791D-05
      4   0.355730D+00  0.100866D+00  0.203756D+00  0.489761D-01  0.000000D+00
      5  -0.705045D-05 -0.136398D-04  0.164667D-04  0.110843D-04  0.157417D+01
      6  -0.368591D+00  0.129991D+01 -0.186750D+00  0.776933D+00  0.484986D-05
      7  -0.129991D+01 -0.368582D+00 -0.776957D+00 -0.186754D+00  0.000000D+00
      8  -0.453216D-05  0.135099D-05 -0.340313D-05  0.000000D+00  0.000000D+00
      9   0.162323D+01  0.460257D+00  0.123478D+01  0.296800D+00 -0.771399D-05
     10  -0.460275D+00  0.162324D+01 -0.296793D+00  0.123475D+01  0.000000D+00
     11  -0.141206D-04 -0.408692D-04  0.316538D-04  0.298359D-04  0.418514D+01
     12   0.307902D-01  0.758006D-02 -0.504569D-01 -0.102544D-01 -0.671071D-01
     13  -0.307893D-01 -0.756652D-02  0.504612D-01  0.102624D-01 -0.671066D-01
     14  -0.538107D+00  0.189775D+01 -0.361344D+00  0.150330D+01  0.106900D-04
     15  -0.189773D+01 -0.538093D+00 -0.150333D+01 -0.361351D+00  0.395948D-05
     16   0.756532D-02 -0.307931D-01 -0.102644D-01  0.504508D-01  0.000000D+00
               401           402           403           404           405 
      1  -0.135099D+03 -0.135099D+03 -0.135051D+03 -0.135001D+03 -0.135001D+03
      2   0.000000D+00  0.000000D+00  0.709689D-01  0.000000D+00  0.000000D+00
      3   0.161594D-02 -0.724440D-03  0.000000D+00  0.322265D-01  0.667001D-01
      4   0.725520D-03  0.161600D-02  0.000000D+00  0.667002D-01 -0.322270D-01
      5   0.000000D+00  0.000000D+00 -0.381763D+00  0.000000D+00  0.000000D+00
      6  -0.371704D-02  0.166553D-02  0.134826D-05 -0.125084D+00 -0.258890D+00
      7  -0.166965D-02 -0.371707D-02  0.000000D+00 -0.258890D+00  0.125086D+00
      8   0.000000D+00  0.000000D+00  0.000000D+00 -0.106083D-05  0.000000D+00
      9  -0.150769D-01 -0.336132D-01 -0.218128D-05  0.350125D+00 -0.169165D+00
     10   0.336095D-01 -0.150821D-01 -0.165329D-05 -0.169167D+00 -0.350124D+00
     11   0.000000D+00  0.000000D+00 -0.248516D+01  0.212130D-05  0.000000D+00
     12  -0.317222D+00 -0.645170D+00  0.145382D+00 -0.257289D-01  0.113362D-01
     13   0.317220D+00  0.645169D+00  0.145381D+00  0.257292D-01 -0.113335D-01
     14   0.174190D-01 -0.781281D-02 -0.794984D-05  0.644661D-01  0.133426D+00
     15   0.781761D-02  0.174204D-01  0.842211D-05  0.133428D+00 -0.644668D-01
     16  -0.645172D+00  0.317221D+00 -0.152538D-05 -0.113283D-01 -0.257323D-01
               406 
      1  -0.134637D+03
      2   0.309359D-01
      3   0.000000D+00
      4   0.000000D+00
      5  -0.215981D+00
      6   0.000000D+00
      7   0.000000D+00
      8   0.000000D+00
      9   0.000000D+00
     10  -0.180372D-05
     11  -0.201120D+00
     12  -0.199082D+00
     13  -0.199083D+00
     14  -0.182474D-05
     15   0.000000D+00
     16   0.000000D+00
 Unable to Open any file for archive entry.
 1\1\GINC-HEL23\SP\RLC-wHPBE TD-FC\Gen\C1H3F1\SABYASACHI\21-Mar-2022\0\
 \#P TD(Nstates=10000) lc-whpbe/Gen SCF(maxcycles=100) Int(Grid=ultrafi
 ne)\\xGDB7_00001_tier4.com\\0,1\C,0,-0.630149,-0.000001,0.000003\F,0,0
 .748512,0.000002,-0.000001\H,0,-0.98525,0.899676,0.505416\H,0,-0.98522
 2,-0.887557,0.526417\H,0,-0.985245,-0.012128,-1.03184\\Version=EM64L-G
 16RevC.01\State=1-A\HF=-139.5704852\RMSD=2.110e-09\PG=C01 [X(C1H3F1)]\
 \@
 The archive entry for this job was punched.


 OLD AGE AND TREACHERY WILL ALWAYS PREVAIL OVER YOUTH AND SKILL.
 Job cpu time:       0 days  0 hours  2 minutes 49.2 seconds.
 Elapsed time:       0 days  0 hours  0 minutes 21.4 seconds.
 File lengths (MBytes):  RWF=    214 Int=      0 D2E=      0 Chk=     46 Scr=      1
 Normal termination of Gaussian 16 at Mon Mar 21 20:09:13 2022.
