 Entering Gaussian System, Link 0=g16
 Input=000015.com
 Output=000015.log
 Initial command:
 /home/sabyasachi/g16/l1.exe "/scratch/sabyasachi/PBS_7976248.helios/Gau-157903.inp" -scrdir="/scratch/sabyasachi/PBS_7976248.helios/"
 Entering Link 1 = /home/sabyasachi/g16/l1.exe PID=    157904.
  
 Copyright (c) 1988-2019, Gaussian, Inc.  All Rights Reserved.
  
 This is part of the Gaussian(R) 16 program.  It is based on
 the Gaussian(R) 09 system (copyright 2009, Gaussian, Inc.),
 the Gaussian(R) 03 system (copyright 2003, Gaussian, Inc.),
 the Gaussian(R) 98 system (copyright 1998, Gaussian, Inc.),
 the Gaussian(R) 94 system (copyright 1995, Gaussian, Inc.),
 the Gaussian 92(TM) system (copyright 1992, Gaussian, Inc.),
 the Gaussian 90(TM) system (copyright 1990, Gaussian, Inc.),
 the Gaussian 88(TM) system (copyright 1988, Gaussian, Inc.),
 the Gaussian 86(TM) system (copyright 1986, Carnegie Mellon
 University), and the Gaussian 82(TM) system (copyright 1983,
 Carnegie Mellon University). Gaussian is a federally registered
 trademark of Gaussian, Inc.
  
 This software contains proprietary and confidential information,
 including trade secrets, belonging to Gaussian, Inc.
  
 This software is provided under written license and may be
 used, copied, transmitted, or stored only in accord with that
 written license.
  
 The following legend is applicable only to US Government
 contracts under FAR:
  
                    RESTRICTED RIGHTS LEGEND
  
 Use, reproduction and disclosure by the US Government is
 subject to restrictions as set forth in subparagraphs (a)
 and (c) of the Commercial Computer Software - Restricted
 Rights clause in FAR 52.227-19.
  
 Gaussian, Inc.
 340 Quinnipiac St., Bldg. 40, Wallingford CT 06492
  
  
 ---------------------------------------------------------------
 Warning -- This program may not be used in any manner that
 competes with the business of Gaussian, Inc. or will provide
 assistance to any competitor of Gaussian, Inc.  The licensee
 of this program is prohibited from giving any competitor of
 Gaussian, Inc. access to this program.  By using this program,
 the user acknowledges that Gaussian, Inc. is engaged in the
 business of creating and licensing software in the field of
 computational chemistry and represents and warrants to the
 licensee that it is not a competitor of Gaussian, Inc. and that
 it will not use this program in any manner prohibited above.
 ---------------------------------------------------------------
  

 Cite this work as:
 Gaussian 16, Revision C.01,
 M. J. Frisch, G. W. Trucks, H. B. Schlegel, G. E. Scuseria, 
 M. A. Robb, J. R. Cheeseman, G. Scalmani, V. Barone, 
 G. A. Petersson, H. Nakatsuji, X. Li, M. Caricato, A. V. Marenich, 
 J. Bloino, B. G. Janesko, R. Gomperts, B. Mennucci, H. P. Hratchian, 
 J. V. Ortiz, A. F. Izmaylov, J. L. Sonnenberg, D. Williams-Young, 
 F. Ding, F. Lipparini, F. Egidi, J. Goings, B. Peng, A. Petrone, 
 T. Henderson, D. Ranasinghe, V. G. Zakrzewski, J. Gao, N. Rega, 
 G. Zheng, W. Liang, M. Hada, M. Ehara, K. Toyota, R. Fukuda, 
 J. Hasegawa, M. Ishida, T. Nakajima, Y. Honda, O. Kitao, H. Nakai, 
 T. Vreven, K. Throssell, J. A. Montgomery, Jr., J. E. Peralta, 
 F. Ogliaro, M. J. Bearpark, J. J. Heyd, E. N. Brothers, K. N. Kudin, 
 V. N. Staroverov, T. A. Keith, R. Kobayashi, J. Normand, 
 K. Raghavachari, A. P. Rendell, J. C. Burant, S. S. Iyengar, 
 J. Tomasi, M. Cossi, J. M. Millam, M. Klene, C. Adamo, R. Cammi, 
 J. W. Ochterski, R. L. Martin, K. Morokuma, O. Farkas, 
 J. B. Foresman, and D. J. Fox, Gaussian, Inc., Wallingford CT, 2019.
 
 ******************************************
 Gaussian 16:  EM64L-G16RevC.01  3-Jul-2019
                21-Mar-2022 
 ******************************************
 %mem=64gb
 %nproc=8
 Will use up to    8 processors via shared memory.
 ----------------------------------------------------------------------
 #P TD(Nstates=10000) lc-whpbe/Gen SCF(maxcycles=100) Int(Grid=ultrafin
 e)
 ----------------------------------------------------------------------
 1/38=1,172=1/1;
 2/12=2,17=6,18=5,40=1/2;
 3/5=7,11=9,25=1,30=1,74=-71,75=-5/1,2,3,8;
 4//1;
 5/5=2,7=100,38=5/2;
 8/6=1,10=1,108=10000/1;
 9/41=10000,42=1,70=2/14;
 6/7=2,8=2,9=2,10=2/1;
 99/5=1,9=1/99;
 Leave Link    1 at Mon Mar 21 20:16:58 2022, MaxMem=  8589934592 cpu:               0.4 elap:               0.1
 (Enter /home/sabyasachi/g16/l101.exe)
 ---------------------
 xGDB7_00001_tier4.com
 ---------------------
 Symbolic Z-matrix:
 Charge =  0 Multiplicity = 1
 6                    -1.24079  -0.23762  -0.02753 
 6                     0.04895   0.55921   0.05371 
 7                     1.20234  -0.31761  -0.1167 
 1                    -2.10982   0.41583   0.0647 
 1                    -1.29293  -0.97621   0.77681 
 1                    -1.30033  -0.76988  -0.97775 
 1                     0.06631   1.12282   0.99797 
 1                     0.06996   1.29657  -0.75259 
 1                     1.23641  -1.00308   0.62716 
 1                     2.06508   0.20771  -0.07648 
 
 ITRead=  0  0  0  0  0  0  0  0  0  0
 MicOpt= -1 -1 -1 -1 -1 -1 -1 -1 -1 -1
 NAtoms=     10 NQM=       10 NQMF=       0 NMMI=      0 NMMIF=      0
                NMic=       0 NMicF=      0.
                    Isotopes and Nuclear Properties:
 (Nuclear quadrupole moments (NQMom) in fm**2, nuclear magnetic moments (NMagM)
  in nuclear magnetons)

  Atom         1           2           3           4           5           6           7           8           9          10
 IAtWgt=          12          12          14           1           1           1           1           1           1           1
 AtmWgt=  12.0000000  12.0000000  14.0030740   1.0078250   1.0078250   1.0078250   1.0078250   1.0078250   1.0078250   1.0078250
 NucSpn=           0           0           2           1           1           1           1           1           1           1
 AtZEff=  -0.0000000  -0.0000000  -0.0000000  -0.0000000  -0.0000000  -0.0000000  -0.0000000  -0.0000000  -0.0000000  -0.0000000
 NQMom=    0.0000000   0.0000000   2.0440000   0.0000000   0.0000000   0.0000000   0.0000000   0.0000000   0.0000000   0.0000000
 NMagM=    0.0000000   0.0000000   0.4037610   2.7928460   2.7928460   2.7928460   2.7928460   2.7928460   2.7928460   2.7928460
 AtZNuc=   6.0000000   6.0000000   7.0000000   1.0000000   1.0000000   1.0000000   1.0000000   1.0000000   1.0000000   1.0000000
 Leave Link  101 at Mon Mar 21 20:16:58 2022, MaxMem=  8589934592 cpu:               0.7 elap:               0.1
 (Enter /home/sabyasachi/g16/l202.exe)
                          Input orientation:                          
 ---------------------------------------------------------------------
 Center     Atomic      Atomic             Coordinates (Angstroms)
 Number     Number       Type             X           Y           Z
 ---------------------------------------------------------------------
      1          6           0       -1.240791   -0.237624   -0.027525
      2          6           0        0.048946    0.559205    0.053709
      3          7           0        1.202342   -0.317606   -0.116703
      4          1           0       -2.109817    0.415828    0.064703
      5          1           0       -1.292929   -0.976209    0.776809
      6          1           0       -1.300329   -0.769884   -0.977746
      7          1           0        0.066306    1.122818    0.997967
      8          1           0        0.069957    1.296574   -0.752592
      9          1           0        1.236408   -1.003082    0.627159
     10          1           0        2.065080    0.207710   -0.076483
 ---------------------------------------------------------------------
                    Distance matrix (angstroms):
                    1          2          3          4          5
     1  C    0.000000
     2  C    1.518208   0.000000
     3  N    2.446068   1.458821   0.000000
     4  H    1.091197   2.163547   3.397239   0.000000
     5  H    1.093243   2.163561   2.731025   1.764134   0.000000
     6  H    1.090764   2.156599   2.685016   1.774228   1.766660
     7  H    2.147310   1.099811   2.146599   2.471099   2.510447
     8  H    2.144189   1.092829   2.071769   2.488996   3.059750
     9  H    2.674145   2.044420   1.012111   3.677891   2.533903
    10  H    3.336091   2.050682   1.010886   4.182465   3.661420
                    6          7          8          9         10
     6  H    0.000000
     7  H    3.058342   0.000000
     8  H    2.489704   1.759165   0.000000
     9  H    3.010836   2.454809   2.924507   0.000000
    10  H    3.618555   2.446827   2.371342   1.627214   0.000000
 Stoichiometry    C2H7N
 Framework group  C1[X(C2H7N)]
 Deg. of freedom    24
 Full point group                 C1      NOp   1
 Largest Abelian subgroup         C1      NOp   1
 Largest concise Abelian subgroup C1      NOp   1
                         Standard orientation:                         
 ---------------------------------------------------------------------
 Center     Atomic      Atomic             Coordinates (Angstroms)
 Number     Number       Type             X           Y           Z
 ---------------------------------------------------------------------
      1          6           0       -1.240791   -0.237624   -0.027525
      2          6           0        0.048946    0.559205    0.053709
      3          7           0        1.202342   -0.317606   -0.116703
      4          1           0       -2.109817    0.415828    0.064703
      5          1           0       -1.292929   -0.976209    0.776809
      6          1           0       -1.300329   -0.769884   -0.977746
      7          1           0        0.066306    1.122818    0.997967
      8          1           0        0.069957    1.296574   -0.752592
      9          1           0        1.236408   -1.003082    0.627159
     10          1           0        2.065080    0.207710   -0.076483
 ---------------------------------------------------------------------
 Rotational constants (GHZ):          32.9271088           8.9927821           7.8881896
 Leave Link  202 at Mon Mar 21 20:16:58 2022, MaxMem=  8589934592 cpu:               0.1 elap:               0.0
 (Enter /home/sabyasachi/g16/l301.exe)
 General basis read from cards:  (5D, 7F)
 Centers:       4      5      6      7      8      9     10
 S 3 1.00
     Exponent=  1.3010701000D+01 Coefficients=  1.9682158000D-02
     Exponent=  1.9622572000D+00 Coefficients=  1.3796524000D-01
     Exponent=  4.4453796000D-01 Coefficients=  4.7831935000D-01
 S 1 1.00
     Exponent=  1.2194962000D-01 Coefficients=  1.0000000000D+00
 P 1 1.00
     Exponent=  8.0000000000D-01 Coefficients=  1.0000000000D+00
 P 1 1.00
     Exponent=  1.1704099050D-01 Coefficients=  1.0000000000D+00
 ****
 Centers:       1      2
 S 5 1.00
     Exponent=  1.2384016938D+03 Coefficients=  5.4568832082D-03
     Exponent=  1.8629004992D+02 Coefficients=  4.0638409211D-02
     Exponent=  4.2251176346D+01 Coefficients=  1.8025593888D-01
     Exponent=  1.1676557932D+01 Coefficients=  4.6315121755D-01
     Exponent=  3.5930506482D+00 Coefficients=  4.4087173314D-01
 S 1 1.00
     Exponent=  4.0245147363D-01 Coefficients=  1.0000000000D+00
 S 1 1.00
     Exponent=  1.3090182668D-01 Coefficients=  1.0000000000D+00
 S 1 1.00
     Exponent=  6.7053540256D-02 Coefficients=  1.0000000000D+00
 P 3 1.00
     Exponent=  9.4680970621D+00 Coefficients=  3.8387871728D-02
     Exponent=  2.0103545142D+00 Coefficients=  2.1117025112D-01
     Exponent=  5.4771004707D-01 Coefficients=  5.1328172114D-01
 P 1 1.00
     Exponent=  1.5268613795D-01 Coefficients=  1.0000000000D+00
 D 1 1.00
     Exponent=  8.0000000000D-01 Coefficients=  1.0000000000D+00
 D 1 1.00
     Exponent=  1.1713185140D-01 Coefficients=  1.0000000000D+00
 ****
 Centers:       3
 S 5 1.00
     Exponent=  1.7128415853D+03 Coefficients= -5.3934125305D-03
     Exponent=  2.5764812677D+02 Coefficients= -4.0221581118D-02
     Exponent=  5.8458245853D+01 Coefficients= -1.7931144990D-01
     Exponent=  1.6198367905D+01 Coefficients= -4.6376317823D-01
     Exponent=  5.0052600809D+00 Coefficients= -4.4171422662D-01
 S 1 1.00
     Exponent=  5.8731856571D-01 Coefficients=  1.0000000000D+00
 S 1 1.00
     Exponent=  1.8764592253D-01 Coefficients=  1.0000000000D+00
 S 1 1.00
     Exponent=  9.6171241529D-02 Coefficients=  1.0000000000D+00
 P 3 1.00
     Exponent=  1.3571470233D+01 Coefficients= -4.0072398852D-02
     Exponent=  2.9257372874D+00 Coefficients= -2.1807045028D-01
     Exponent=  7.9927750754D-01 Coefficients= -5.1294466049D-01
 P 1 1.00
     Exponent=  2.1954348034D-01 Coefficients=  1.0000000000D+00
 D 1 1.00
     Exponent=  1.0000000000D+00 Coefficients=  1.0000000000D+00
 D 1 1.00
     Exponent=  1.6697708112D-01 Coefficients=  1.0000000000D+00
 ****
 Ernie: Thresh=  0.10000D-02 Tol=  0.10000D-05 Strict=F.
 There are   122 symmetry adapted cartesian basis functions of A   symmetry.
 There are   116 symmetry adapted basis functions of A   symmetry.
   116 basis functions,   166 primitive gaussians,   122 cartesian basis functions
    13 alpha electrons       13 beta electrons
       nuclear repulsion energy        83.1592446738 Hartrees.
 IExCor=33909 DFT=T Ex+Corr=LC-wHPBE ExCW=0 ScaHFX=  1.000000
 ScaDFX=  1.000000  1.000000  1.000000  1.000000 ScalE2=  1.000000  1.000000
 IRadAn=      5 IRanWt=     -1 IRanGd=            0 ICorTp=0 IEmpDi=  4
 HFx  wShort=  0.000000 wLong=  0.400000 cFull=  0.000000 cShort=  0.000000 cLong=  1.000000
 DFx  wShort=  0.000000 wLong=  0.400000 cFull=  0.000000 cShort=  1.000000 cLong=  0.000000
 NAtoms=   10 NActive=   10 NUniq=   10 SFac= 1.00D+00 NAtFMM=   60 NAOKFM=F Big=F
 Integral buffers will be    131072 words long.
 Raffenetti 1 integral format.
 Two-electron integral symmetry is turned on.
 Leave Link  301 at Mon Mar 21 20:16:58 2022, MaxMem=  8589934592 cpu:               0.5 elap:               0.1
 (Enter /home/sabyasachi/g16/l302.exe)
 NPDir=0 NMtPBC=     1 NCelOv=     1 NCel=       1 NClECP=     1 NCelD=      1
         NCelK=      1 NCelE2=     1 NClLst=     1 CellRange=     0.0.
 One-electron integrals computed using PRISM.
 One-electron integral symmetry used in STVInt
 NBasis=   116 RedAO= T EigKep=  2.68D-04  NBF=   116
 NBsUse=   116 1.00D-06 EigRej= -1.00D+00 NBFU=   116
 Precomputing XC quadrature grid using
 IXCGrd= 4 IRadAn=           5 IRanWt=          -1 IRanGd=           0 AccXCQ= 0.00D+00.
 Generated NRdTot=       0 NPtTot=           0 NUsed=           0 NTot=          32
 NSgBfM=   122   122   122   122   122 MxSgAt=    10 MxSgA2=    10.
 Leave Link  302 at Mon Mar 21 20:16:58 2022, MaxMem=  8589934592 cpu:               1.1 elap:               0.2
 (Enter /home/sabyasachi/g16/l303.exe)
 DipDrv:  MaxL=1.
 Leave Link  303 at Mon Mar 21 20:16:58 2022, MaxMem=  8589934592 cpu:               0.2 elap:               0.0
 (Enter /home/sabyasachi/g16/l308.exe)
 Leave Link  308 at Mon Mar 21 20:16:58 2022, MaxMem=  8589934592 cpu:               0.2 elap:               0.1
 (Enter /home/sabyasachi/g16/l401.exe)
 ExpMin= 6.71D-02 ExpMax= 1.71D+03 ExpMxC= 2.58D+02 IAcc=3 IRadAn=         5 AccDes= 0.00D+00
 Harris functional with IExCor=33909 and IRadAn=       5 diagonalized for initial guess.
 HarFok:  IExCor=33909 AccDes= 0.00D+00 IRadAn=         5 IDoV= 1 UseB2=F ITyADJ=14
 ICtDFT=  3500011 ScaDFX=  1.000000  1.000000  1.000000  1.000000
 FoFCou: FMM=F IPFlag=           0 FMFlag=      100000 FMFlg1=           0
         NFxFlg=           0 DoJE=T BraDBF=F KetDBF=T FulRan=T
         wScrn=  0.000000 ICntrl=       500 IOpCl=  0 I1Cent=   200000004 NGrid=           0
         NMat0=    1 NMatS0=      1 NMatT0=    0 NMatD0=    1 NMtDS0=    0 NMtDT0=    0
 Petite list used in FoFCou.
 Harris En= -129.941985747777    
 JPrj=0 DoOrth=F DoCkMO=F.
 Leave Link  401 at Mon Mar 21 20:16:59 2022, MaxMem=  8589934592 cpu:               4.4 elap:               0.6
 (Enter /home/sabyasachi/g16/l502.exe)
 Keep R1 ints in memory in canonical form, NReq=54438630.
 FoFCou: FMM=F IPFlag=           0 FMFlag=           0 FMFlg1=           0
         NFxFlg=           0 DoJE=F BraDBF=F KetDBF=F FulRan=T
         wScrn=  0.000000 ICntrl=       600 IOpCl=  0 I1Cent=           0 NGrid=           0
         NMat0=    1 NMatS0=   6786 NMatT0=    0 NMatD0=    1 NMtDS0=    0 NMtDT0=    0
 Symmetry not used in FoFCou.
 Two-electron integral symmetry not used.
 Closed shell SCF:
 Using DIIS extrapolation, IDIIS=  1040.
 NGot=  8589934592 LenX=  8543845660 LenY=  8543830335
 Requested convergence on RMS density matrix=1.00D-08 within 100 cycles.
 Requested convergence on MAX density matrix=1.00D-06.
 Requested convergence on             energy=1.00D-06.
 No special actions if energy rises.
 Integral accuracy reduced to 1.0D-05 until final iterations.

 Cycle   1  Pass 0  IDiag  1:
 E= -134.953141033093    
 DIIS: error= 1.63D-02 at cycle   1 NSaved=   1.
 NSaved= 1 IEnMin= 1 EnMin= -134.953141033093     IErMin= 1 ErrMin= 1.63D-02
 ErrMax= 1.63D-02  0.00D+00 EMaxC= 1.00D-01 BMatC= 5.52D-02 BMatP= 5.52D-02
 IDIUse=3 WtCom= 8.37D-01 WtEn= 1.63D-01
 Coeff-Com:  0.100D+01
 Coeff-En:   0.100D+01
 Coeff:      0.100D+01
 Gap=     0.397 Goal=   None    Shift=    0.000
 GapD=    0.397 DampG=1.000 DampE=0.500 DampFc=0.5000 IDamp=-1.
 Damping current iteration by 5.00D-01
 RMSDP=6.02D-03 MaxDP=2.94D-01              OVMax= 8.07D-02

 Cycle   2  Pass 0  IDiag  1:
 E= -134.983075333504     Delta-E=       -0.029934300411 Rises=F Damp=T
 DIIS: error= 3.94D-03 at cycle   2 NSaved=   2.
 NSaved= 2 IEnMin= 2 EnMin= -134.983075333504     IErMin= 2 ErrMin= 3.94D-03
 ErrMax= 3.94D-03  0.00D+00 EMaxC= 1.00D-01 BMatC= 2.69D-03 BMatP= 5.52D-02
 IDIUse=3 WtCom= 9.61D-01 WtEn= 3.94D-02
 Coeff-Com: -0.162D+00 0.116D+01
 Coeff-En:   0.000D+00 0.100D+01
 Coeff:     -0.156D+00 0.116D+01
 Gap=     0.456 Goal=   None    Shift=    0.000
 RMSDP=1.79D-03 MaxDP=6.93D-02 DE=-2.99D-02 OVMax= 3.72D-02

 Cycle   3  Pass 0  IDiag  1:
 E= -135.009092481457     Delta-E=       -0.026017147953 Rises=F Damp=F
 DIIS: error= 9.55D-04 at cycle   3 NSaved=   3.
 NSaved= 3 IEnMin= 3 EnMin= -135.009092481457     IErMin= 3 ErrMin= 9.55D-04
 ErrMax= 9.55D-04  0.00D+00 EMaxC= 1.00D-01 BMatC= 2.28D-04 BMatP= 2.69D-03
 IDIUse=3 WtCom= 9.90D-01 WtEn= 9.55D-03
 Coeff-Com: -0.406D-01 0.187D+00 0.854D+00
 Coeff-En:   0.000D+00 0.000D+00 0.100D+01
 Coeff:     -0.402D-01 0.185D+00 0.855D+00
 Gap=     0.449 Goal=   None    Shift=    0.000
 RMSDP=2.97D-04 MaxDP=5.09D-03 DE=-2.60D-02 OVMax= 4.33D-03

 Cycle   4  Pass 0  IDiag  1:
 E= -135.009289239737     Delta-E=       -0.000196758280 Rises=F Damp=F
 DIIS: error= 4.36D-04 at cycle   4 NSaved=   4.
 NSaved= 4 IEnMin= 4 EnMin= -135.009289239737     IErMin= 4 ErrMin= 4.36D-04
 ErrMax= 4.36D-04  0.00D+00 EMaxC= 1.00D-01 BMatC= 5.16D-05 BMatP= 2.28D-04
 IDIUse=3 WtCom= 9.96D-01 WtEn= 4.36D-03
 Coeff-Com:  0.156D-02-0.354D-01 0.291D+00 0.743D+00
 Coeff-En:   0.000D+00 0.000D+00 0.000D+00 0.100D+01
 Coeff:      0.155D-02-0.353D-01 0.290D+00 0.744D+00
 Gap=     0.452 Goal=   None    Shift=    0.000
 RMSDP=2.67D-04 MaxDP=1.74D-02 DE=-1.97D-04 OVMax= 2.70D-03

 Cycle   5  Pass 0  IDiag  1:
 E= -135.009343284711     Delta-E=       -0.000054044975 Rises=F Damp=F
 DIIS: error= 1.32D-04 at cycle   5 NSaved=   5.
 NSaved= 5 IEnMin= 5 EnMin= -135.009343284711     IErMin= 5 ErrMin= 1.32D-04
 ErrMax= 1.32D-04  0.00D+00 EMaxC= 1.00D-01 BMatC= 2.56D-06 BMatP= 5.16D-05
 IDIUse=3 WtCom= 9.99D-01 WtEn= 1.32D-03
 Coeff-Com:  0.361D-02-0.217D-01-0.385D-01 0.126D+00 0.931D+00
 Coeff-En:   0.000D+00 0.000D+00 0.000D+00 0.000D+00 0.100D+01
 Coeff:      0.360D-02-0.217D-01-0.385D-01 0.126D+00 0.931D+00
 Gap=     0.452 Goal=   None    Shift=    0.000
 RMSDP=6.92D-05 MaxDP=3.94D-03 DE=-5.40D-05 OVMax= 5.57D-04

 Cycle   6  Pass 0  IDiag  1:
 E= -135.009346816540     Delta-E=       -0.000003531829 Rises=F Damp=F
 DIIS: error= 1.78D-05 at cycle   6 NSaved=   6.
 NSaved= 6 IEnMin= 6 EnMin= -135.009346816540     IErMin= 6 ErrMin= 1.78D-05
 ErrMax= 1.78D-05  0.00D+00 EMaxC= 1.00D-01 BMatC= 6.79D-08 BMatP= 2.56D-06
 IDIUse=1 WtCom= 1.00D+00 WtEn= 0.00D+00
 Coeff-Com:  0.866D-04 0.150D-03-0.179D-01-0.208D-01 0.742D-01 0.964D+00
 Coeff:      0.866D-04 0.150D-03-0.179D-01-0.208D-01 0.742D-01 0.964D+00
 Gap=     0.452 Goal=   None    Shift=    0.000
 RMSDP=2.39D-05 MaxDP=1.62D-03 DE=-3.53D-06 OVMax= 1.99D-04

 Cycle   7  Pass 0  IDiag  1:
 E= -135.009346960043     Delta-E=       -0.000000143502 Rises=F Damp=F
 DIIS: error= 5.66D-06 at cycle   7 NSaved=   7.
 NSaved= 7 IEnMin= 7 EnMin= -135.009346960043     IErMin= 7 ErrMin= 5.66D-06
 ErrMax= 5.66D-06  0.00D+00 EMaxC= 1.00D-01 BMatC= 8.22D-09 BMatP= 6.79D-08
 IDIUse=1 WtCom= 1.00D+00 WtEn= 0.00D+00
 Coeff-Com: -0.159D-03 0.112D-02-0.203D-02-0.105D-01-0.356D-01 0.218D+00
 Coeff-Com:  0.829D+00
 Coeff:     -0.159D-03 0.112D-02-0.203D-02-0.105D-01-0.356D-01 0.218D+00
 Coeff:      0.829D+00
 Gap=     0.452 Goal=   None    Shift=    0.000
 RMSDP=6.22D-06 MaxDP=4.25D-04 DE=-1.44D-07 OVMax= 5.23D-05

 Initial convergence to 1.0D-05 achieved.  Increase integral accuracy.
 Cycle   8  Pass 1  IDiag  1:
 E= -135.009347430547     Delta-E=       -0.000000470504 Rises=F Damp=F
 DIIS: error= 1.84D-06 at cycle   1 NSaved=   1.
 NSaved= 1 IEnMin= 1 EnMin= -135.009347430547     IErMin= 1 ErrMin= 1.84D-06
 ErrMax= 1.84D-06  0.00D+00 EMaxC= 1.00D-01 BMatC= 8.91D-10 BMatP= 8.91D-10
 IDIUse=1 WtCom= 1.00D+00 WtEn= 0.00D+00
 Coeff-Com:  0.100D+01
 Coeff:      0.100D+01
 Gap=     0.452 Goal=   None    Shift=    0.000
 RMSDP=6.22D-06 MaxDP=4.25D-04 DE=-4.71D-07 OVMax= 1.94D-05

 Cycle   9  Pass 1  IDiag  1:
 E= -135.009347431903     Delta-E=       -0.000000001356 Rises=F Damp=F
 DIIS: error= 9.78D-07 at cycle   2 NSaved=   2.
 NSaved= 2 IEnMin= 2 EnMin= -135.009347431903     IErMin= 2 ErrMin= 9.78D-07
 ErrMax= 9.78D-07  0.00D+00 EMaxC= 1.00D-01 BMatC= 2.72D-10 BMatP= 8.91D-10
 IDIUse=1 WtCom= 1.00D+00 WtEn= 0.00D+00
 Coeff-Com:  0.308D+00 0.692D+00
 Coeff:      0.308D+00 0.692D+00
 Gap=     0.452 Goal=   None    Shift=    0.000
 RMSDP=6.50D-07 MaxDP=4.26D-05 DE=-1.36D-09 OVMax= 5.46D-06

 Cycle  10  Pass 1  IDiag  1:
 E= -135.009347432224     Delta-E=       -0.000000000321 Rises=F Damp=F
 DIIS: error= 3.43D-07 at cycle   3 NSaved=   3.
 NSaved= 3 IEnMin= 3 EnMin= -135.009347432224     IErMin= 3 ErrMin= 3.43D-07
 ErrMax= 3.43D-07  0.00D+00 EMaxC= 1.00D-01 BMatC= 1.95D-11 BMatP= 2.72D-10
 IDIUse=1 WtCom= 1.00D+00 WtEn= 0.00D+00
 Coeff-Com: -0.159D+00-0.233D-01 0.118D+01
 Coeff:     -0.159D+00-0.233D-01 0.118D+01
 Gap=     0.452 Goal=   None    Shift=    0.000
 RMSDP=7.13D-07 MaxDP=4.89D-05 DE=-3.21D-10 OVMax= 6.01D-06

 Cycle  11  Pass 1  IDiag  1:
 E= -135.009347432283     Delta-E=       -0.000000000059 Rises=F Damp=F
 DIIS: error= 6.39D-08 at cycle   4 NSaved=   4.
 NSaved= 4 IEnMin= 4 EnMin= -135.009347432283     IErMin= 4 ErrMin= 6.39D-08
 ErrMax= 6.39D-08  0.00D+00 EMaxC= 1.00D-01 BMatC= 5.78D-13 BMatP= 1.95D-11
 IDIUse=1 WtCom= 1.00D+00 WtEn= 0.00D+00
 Coeff-Com: -0.151D-01-0.287D-01 0.259D-01 0.102D+01
 Coeff:     -0.151D-01-0.287D-01 0.259D-01 0.102D+01
 Gap=     0.452 Goal=   None    Shift=    0.000
 RMSDP=1.10D-07 MaxDP=7.78D-06 DE=-5.94D-11 OVMax= 1.07D-06

 Cycle  12  Pass 1  IDiag  1:
 E= -135.009347432283     Delta-E=       -0.000000000000 Rises=F Damp=F
 DIIS: error= 1.60D-08 at cycle   5 NSaved=   5.
 NSaved= 5 IEnMin= 5 EnMin= -135.009347432283     IErMin= 5 ErrMin= 1.60D-08
 ErrMax= 1.60D-08  0.00D+00 EMaxC= 1.00D-01 BMatC= 5.59D-14 BMatP= 5.78D-13
 IDIUse=1 WtCom= 1.00D+00 WtEn= 0.00D+00
 Coeff-Com:  0.109D-01-0.305D-02-0.908D-01 0.157D+00 0.926D+00
 Coeff:      0.109D-01-0.305D-02-0.908D-01 0.157D+00 0.926D+00
 Gap=     0.452 Goal=   None    Shift=    0.000
 RMSDP=2.52D-08 MaxDP=1.78D-06 DE=-2.56D-13 OVMax= 2.85D-07

 Cycle  13  Pass 1  IDiag  1:
 E= -135.009347432285     Delta-E=       -0.000000000001 Rises=F Damp=F
 DIIS: error= 4.21D-09 at cycle   6 NSaved=   6.
 NSaved= 6 IEnMin= 6 EnMin= -135.009347432285     IErMin= 6 ErrMin= 4.21D-09
 ErrMax= 4.21D-09  0.00D+00 EMaxC= 1.00D-01 BMatC= 5.57D-15 BMatP= 5.59D-14
 IDIUse=1 WtCom= 1.00D+00 WtEn= 0.00D+00
 Coeff-Com:  0.351D-02 0.308D-03-0.245D-01-0.135D-01 0.231D+00 0.804D+00
 Coeff:      0.351D-02 0.308D-03-0.245D-01-0.135D-01 0.231D+00 0.804D+00
 Gap=     0.452 Goal=   None    Shift=    0.000
 RMSDP=3.49D-09 MaxDP=2.20D-07 DE=-1.39D-12 OVMax= 6.33D-08

 SCF Done:  E(RLC-wHPBE) =  -135.009347432     A.U. after   13 cycles
            NFock= 13  Conv=0.35D-08     -V/T= 2.0130
 KE= 1.332824714090D+02 PE=-4.788035290587D+02 EE= 1.273524655436D+02
 Leave Link  502 at Mon Mar 21 20:17:04 2022, MaxMem=  8589934592 cpu:              39.6 elap:               5.3
 (Enter /home/sabyasachi/g16/l801.exe)
 DoSCS=F DFT=T ScalE2(SS,OS)=  1.000000  1.000000
 ExpMin= 6.71D-02 ExpMax= 1.71D+03 ExpMxC= 2.58D+02 IAcc=3 IRadAn=         5 AccDes= 0.00D+00
 HarFok:  IExCor=  205 AccDes= 0.00D+00 IRadAn=         5 IDoV=-2 UseB2=F ITyADJ=14
 ICtDFT= 12500011 ScaDFX=  1.000000  1.000000  1.000000  1.000000
 Largest valence mixing into a core orbital is  6.41D-05
 Largest core mixing into a valence orbital is  1.32D-05
 Range of M.O.s used for correlation:     4   116
 NBasis=   116 NAE=    13 NBE=    13 NFC=     3 NFV=     0
 NROrb=    113 NOA=    10 NOB=    10 NVA=   103 NVB=   103

 **** Warning!!: The largest alpha MO coefficient is  0.20737723D+02

 Leave Link  801 at Mon Mar 21 20:17:04 2022, MaxMem=  8589934592 cpu:               0.6 elap:               0.1
 (Enter /home/sabyasachi/g16/l914.exe)
 RHF ground state
 Keep R1, R2, and R3 ints in memory in canonical form, NReq=1352232286.
 FoFCou: FMM=F IPFlag=           0 FMFlag=           0 FMFlg1=           0
         NFxFlg=           0 DoJE=F BraDBF=F KetDBF=F FulRan=T
         wScrn=  0.000000 ICntrl=       600 IOpCl=  0 I1Cent=           0 NGrid=           0
         NMat0=    1 NMatS0=   6786 NMatT0=    0 NMatD0=    1 NMtDS0=    0 NMtDT0=    0
 Symmetry not used in FoFCou.
 Two-electron integral symmetry not used.
 MDV=  8589934592 DFT=T DoStab=F Mixed=T DoRPA=T DoScal=F NonHer=T
 Making orbital integer symmetry assigments:
 Orbital symmetries:
       Occupied  (A) (A) (A) (A) (A) (A) (A) (A) (A) (A) (A) (A)
                 (A)
       Virtual   (A) (A) (A) (A) (A) (A) (A) (A) (A) (A) (A) (A)
                 (A) (A) (A) (A) (A) (A) (A) (A) (A) (A) (A) (A)
                 (A) (A) (A) (A) (A) (A) (A) (A) (A) (A) (A) (A)
                 (A) (A) (A) (A) (A) (A) (A) (A) (A) (A) (A) (A)
                 (A) (A) (A) (A) (A) (A) (A) (A) (A) (A) (A) (A)
                 (A) (A) (A) (A) (A) (A) (A) (A) (A) (A) (A) (A)
                 (A) (A) (A) (A) (A) (A) (A) (A) (A) (A) (A) (A)
                 (A) (A) (A) (A) (A) (A) (A) (A) (A) (A) (A) (A)
                 (A) (A) (A) (A) (A) (A) (A)
  1030 initial guesses have been made.
 Convergence on wavefunction:    0.001000000000000
 Davidson Disk Diagonalization:  ConvIn= 1.00D-03 SkipCon=T Conv= 1.00D-03.
 Max sub-space:  6180 roots to seek:  2060 dimension of matrix:         2060
 *** WARNING: Number of orthogonal guesses is         1030
 Iteration     1 Dimension  1030 NMult     0 NNew   1030
 CISAX will form  1030 AO SS matrices at one time.
 NMat=  1030 NSing=  1030 JSym2X= 0.
 New state      2 was old state      3
 New state      3 was old state      2
 New state      6 was old state      7
 New state      7 was old state      6
 New state     10 was old state     11
 New state     11 was old state     10
 New state     13 was old state     17
 New state     14 was old state     13
 New state     15 was old state     14
 New state     16 was old state     15
 New state     17 was old state     18
 New state     18 was old state     16
 New state     19 was old state     22
 New state     20 was old state     21
 New state     21 was old state     19
 New state     22 was old state     20
 New state     23 was old state     24
 New state     24 was old state     28
 New state     25 was old state     26
 New state     26 was old state     27
 New state     27 was old state     25
 New state     28 was old state     29
 New state     29 was old state     31
 New state     30 was old state     23
 New state     31 was old state     33
 New state     32 was old state     38
 New state     33 was old state     34
 New state     34 was old state     36
 New state     36 was old state     37
 New state     37 was old state     40
 New state     38 was old state     41
 New state     39 was old state     45
 New state     40 was old state     42
 New state     41 was old state     53
 New state     42 was old state     44
 New state     44 was old state     39
 New state     45 was old state     49
 New state     46 was old state     51
 New state     47 was old state     32
 New state     48 was old state     52
 New state     49 was old state     54
 New state     50 was old state     57
 New state     51 was old state     46
 New state     52 was old state     50
 New state     53 was old state     60
 New state     54 was old state     61
 New state     55 was old state     48
 New state     56 was old state     62
 New state     57 was old state     47
 New state     58 was old state     55
 New state     59 was old state     63
 New state     60 was old state     73
 New state     61 was old state     56
 New state     62 was old state     59
 New state     63 was old state     65
 New state     64 was old state     68
 New state     65 was old state     72
 New state     67 was old state     78
 New state     68 was old state     64
 New state     69 was old state     74
 New state     70 was old state     67
 New state     71 was old state     70
 New state     72 was old state     69
 New state     73 was old state     80
 New state     74 was old state     58
 New state     76 was old state     71
 New state     77 was old state     82
 New state     78 was old state     83
 New state     79 was old state     81
 New state     80 was old state     76
 New state     81 was old state     77
 New state     82 was old state     95
 New state     83 was old state    102
 New state     84 was old state     85
 New state     85 was old state    104
 New state     86 was old state     91
 New state     87 was old state     84
 New state     88 was old state     86
 New state     89 was old state     92
 New state     90 was old state     96
 New state     91 was old state     89
 New state     92 was old state    107
 New state     93 was old state    101
 New state     94 was old state     93
 New state     95 was old state     97
 New state     96 was old state     90
 New state     97 was old state     88
 New state     98 was old state    109
 New state     99 was old state     94
 New state    100 was old state    103
 New state    101 was old state     99
 New state    102 was old state     98
 New state    103 was old state    100
 New state    104 was old state    115
 New state    105 was old state    112
 New state    106 was old state    119
 New state    107 was old state    106
 New state    108 was old state    113
 New state    109 was old state    105
 New state    110 was old state    114
 New state    111 was old state    120
 New state    112 was old state    116
 New state    113 was old state    128
 New state    114 was old state    108
 New state    115 was old state    110
 New state    116 was old state    121
 New state    117 was old state    123
 New state    118 was old state    122
 New state    119 was old state    111
 New state    120 was old state    138
 New state    121 was old state    125
 New state    122 was old state    130
 New state    123 was old state    142
 New state    124 was old state    140
 New state    125 was old state    124
 New state    126 was old state    117
 New state    127 was old state    131
 New state    128 was old state    118
 New state    129 was old state    133
 New state    130 was old state    132
 New state    131 was old state    134
 New state    132 was old state    127
 New state    133 was old state    129
 New state    134 was old state    135
 New state    135 was old state    150
 New state    136 was old state    139
 New state    137 was old state    136
 New state    138 was old state    148
 New state    139 was old state    144
 New state    140 was old state    126
 New state    141 was old state    146
 New state    142 was old state    163
 New state    143 was old state    153
 New state    144 was old state    157
 New state    145 was old state    151
 New state    146 was old state    143
 New state    147 was old state    152
 New state    148 was old state    154
 New state    149 was old state    141
 New state    150 was old state    162
 New state    151 was old state    159
 New state    152 was old state    167
 New state    153 was old state    145
 New state    154 was old state    160
 New state    155 was old state    165
 New state    156 was old state    149
 New state    157 was old state    158
 New state    158 was old state    155
 New state    159 was old state    176
 New state    160 was old state    169
 New state    161 was old state    170
 New state    162 was old state    166
 New state    163 was old state    156
 New state    165 was old state    161
 New state    166 was old state    188
 New state    167 was old state    189
 New state    168 was old state    181
 New state    169 was old state    171
 New state    170 was old state    183
 New state    171 was old state    179
 New state    172 was old state    175
 New state    173 was old state    168
 New state    174 was old state    184
 New state    175 was old state    177
 New state    176 was old state    174
 New state    177 was old state    182
 New state    178 was old state    173
 New state    179 was old state    172
 New state    180 was old state    195
 New state    181 was old state    192
 New state    182 was old state    178
 New state    183 was old state    180
 New state    184 was old state    199
 New state    186 was old state    190
 New state    187 was old state    194
 New state    188 was old state    197
 New state    189 was old state    203
 New state    190 was old state    212
 New state    191 was old state    187
 New state    192 was old state    193
 New state    193 was old state    206
 New state    194 was old state    186
 New state    195 was old state    207
 New state    196 was old state    191
 New state    197 was old state    205
 New state    198 was old state    211
 New state    199 was old state    201
 New state    200 was old state    196
 New state    201 was old state    198
 New state    203 was old state    214
 New state    204 was old state    210
 New state    205 was old state    208
 New state    206 was old state    209
 New state    207 was old state    216
 New state    208 was old state    204
 New state    209 was old state    225
 New state    210 was old state    215
 New state    211 was old state    217
 New state    212 was old state    222
 New state    213 was old state    244
 New state    214 was old state    213
 New state    215 was old state    218
 New state    216 was old state    224
 New state    217 was old state    220
 New state    218 was old state    249
 New state    219 was old state    229
 New state    220 was old state    226
 New state    221 was old state    234
 New state    222 was old state    200
 New state    224 was old state    231
 New state    225 was old state    228
 New state    226 was old state    219
 New state    227 was old state    232
 New state    228 was old state    230
 New state    229 was old state    245
 New state    230 was old state    241
 New state    231 was old state    238
 New state    232 was old state    221
 New state    233 was old state    240
 New state    234 was old state    227
 New state    235 was old state    243
 New state    237 was old state    235
 New state    238 was old state    233
 New state    239 was old state    246
 New state    240 was old state    261
 New state    241 was old state    242
 New state    242 was old state    252
 New state    243 was old state    247
 New state    244 was old state    262
 New state    245 was old state    274
 New state    246 was old state    255
 New state    247 was old state    248
 New state    248 was old state    269
 New state    249 was old state    251
 New state    250 was old state    256
 New state    251 was old state    253
 New state    252 was old state    250
 New state    253 was old state    276
 New state    254 was old state    258
 New state    255 was old state    257
 New state    256 was old state    254
 New state    257 was old state    265
 New state    258 was old state    264
 New state    259 was old state    280
 New state    261 was old state    272
 New state    262 was old state    294
 New state    263 was old state    266
 New state    264 was old state    267
 New state    265 was old state    271
 New state    266 was old state    263
 New state    267 was old state    259
 New state    268 was old state    287
 New state    269 was old state    268
 New state    271 was old state    282
 New state    272 was old state    278
 New state    273 was old state    285
 New state    274 was old state    275
 New state    275 was old state    279
 New state    276 was old state    286
 New state    277 was old state    292
 New state    278 was old state    273
 New state    279 was old state    277
 New state    280 was old state    284
 New state    281 was old state    306
 New state    282 was old state    288
 New state    283 was old state    289
 New state    284 was old state    290
 New state    285 was old state    299
 New state    286 was old state    291
 New state    287 was old state    293
 New state    288 was old state    301
 New state    289 was old state    320
 New state    290 was old state    281
 New state    291 was old state    304
 New state    292 was old state    298
 New state    293 was old state    296
 New state    294 was old state    295
 New state    295 was old state    283
 New state    296 was old state    297
 New state    297 was old state    309
 New state    298 was old state    300
 New state    299 was old state    313
 New state    300 was old state    303
 New state    301 was old state    302
 New state    302 was old state    312
 New state    303 was old state    305
 New state    304 was old state    310
 New state    305 was old state    311
 New state    306 was old state    319
 New state    307 was old state    330
 New state    308 was old state    321
 New state    309 was old state    323
 New state    310 was old state    314
 New state    311 was old state    316
 New state    312 was old state    308
 New state    313 was old state    324
 New state    314 was old state    322
 New state    315 was old state    338
 New state    316 was old state    334
 New state    317 was old state    315
 New state    318 was old state    325
 New state    319 was old state    307
 New state    320 was old state    337
 New state    321 was old state    332
 New state    322 was old state    317
 New state    323 was old state    327
 New state    324 was old state    318
 New state    325 was old state    328
 New state    326 was old state    333
 New state    327 was old state    326
 New state    328 was old state    329
 New state    329 was old state    335
 New state    330 was old state    341
 New state    331 was old state    336
 New state    332 was old state    342
 New state    333 was old state    346
 New state    334 was old state    344
 New state    335 was old state    340
 New state    336 was old state    331
 New state    337 was old state    343
 New state    338 was old state    350
 New state    340 was old state    347
 New state    341 was old state    348
 New state    342 was old state    353
 New state    343 was old state    360
 New state    344 was old state    358
 New state    345 was old state    357
 New state    346 was old state    349
 New state    347 was old state    366
 New state    348 was old state    345
 New state    349 was old state    354
 New state    350 was old state    352
 New state    352 was old state    362
 New state    353 was old state    367
 New state    354 was old state    364
 New state    356 was old state    363
 New state    357 was old state    368
 New state    358 was old state    370
 New state    360 was old state    365
 New state    361 was old state    356
 New state    362 was old state    369
 New state    363 was old state    361
 New state    364 was old state    381
 No map to state    365
 New state    366 was old state    393
 New state    367 was old state    373
 New state    368 was old state    372
 New state    369 was old state    374
 New state    370 was old state    379
 New state    371 was old state    377
 New state    372 was old state    414
 New state    373 was old state    376
 New state    374 was old state    371
 New state    375 was old state    378
 New state    376 was old state    375
 New state    377 was old state    382
 New state    378 was old state    380
 New state    379 was old state    384
 New state    380 was old state    386
 New state    381 was old state    383
 New state    382 was old state    388
 New state    383 was old state    390
 New state    384 was old state    385
 New state    385 was old state    389
 New state    386 was old state    391
 New state    387 was old state    401
 New state    388 was old state    387
 New state    389 was old state    399
 New state    390 was old state    404
 New state    391 was old state    400
 New state    392 was old state    394
 New state    393 was old state    397
 New state    394 was old state    396
 New state    395 was old state    398
 New state    396 was old state    402
 New state    397 was old state    395
 New state    398 was old state    392
 New state    399 was old state    409
 New state    400 was old state    405
 New state    401 was old state    407
 New state    402 was old state    406
 New state    403 was old state    410
 New state    404 was old state    403
 New state    405 was old state    412
 New state    406 was old state    411
 New state    407 was old state    413
 New state    408 was old state    415
 New state    409 was old state    419
 New state    410 was old state    418
 New state    411 was old state    435
 New state    412 was old state    408
 New state    413 was old state    417
 New state    414 was old state    416
 New state    415 was old state    421
 New state    416 was old state    427
 New state    417 was old state    422
 New state    418 was old state    424
 New state    419 was old state    425
 New state    420 was old state    430
 New state    421 was old state    443
 New state    422 was old state    423
 New state    423 was old state    432
 New state    424 was old state    426
 New state    425 was old state    428
 New state    426 was old state    429
 New state    427 was old state    436
 New state    428 was old state    420
 New state    429 was old state    442
 New state    430 was old state    444
 New state    431 was old state    437
 New state    432 was old state    466
 New state    433 was old state    440
 New state    434 was old state    433
 New state    435 was old state    431
 New state    436 was old state    434
 New state    437 was old state    441
 New state    438 was old state    461
 New state    439 was old state    459
 New state    440 was old state    439
 New state    441 was old state    438
 New state    442 was old state    445
 New state    443 was old state    448
 New state    444 was old state    449
 New state    445 was old state    460
 New state    446 was old state    463
 New state    447 was old state    452
 New state    448 was old state    455
 New state    449 was old state    446
 New state    450 was old state    447
 New state    451 was old state    450
 New state    452 was old state    451
 New state    454 was old state    470
 New state    455 was old state    467
 New state    456 was old state    457
 New state    457 was old state    458
 New state    458 was old state    462
 New state    459 was old state    472
 New state    460 was old state    465
 New state    461 was old state    456
 New state    462 was old state    464
 New state    463 was old state    454
 New state    464 was old state    483
 No map to state    465
 New state    466 was old state    476
 New state    467 was old state    471
 New state    468 was old state    477
 New state    469 was old state    480
 New state    470 was old state    485
 New state    471 was old state    474
 New state    472 was old state    481
 New state    473 was old state    469
 New state    474 was old state    488
 New state    475 was old state    482
 New state    476 was old state    468
 New state    477 was old state    473
 New state    478 was old state    496
 New state    479 was old state    498
 New state    480 was old state    497
 New state    481 was old state    479
 New state    482 was old state    486
 New state    483 was old state    487
 New state    484 was old state    499
 New state    485 was old state    503
 New state    486 was old state    475
 New state    487 was old state    508
 New state    488 was old state    495
 New state    489 was old state    513
 New state    490 was old state    504
 New state    491 was old state    478
 New state    492 was old state    506
 New state    493 was old state    490
 New state    494 was old state    489
 New state    495 was old state    492
 New state    496 was old state    491
 New state    497 was old state    500
 New state    498 was old state    494
 New state    499 was old state    517
 New state    500 was old state    484
 New state    502 was old state    518
 New state    503 was old state    493
 New state    504 was old state    511
 New state    505 was old state    515
 New state    506 was old state    510
 New state    507 was old state    520
 New state    508 was old state    502
 New state    509 was old state    505
 New state    510 was old state    507
 New state    511 was old state    512
 New state    512 was old state    509
 New state    513 was old state    523
 New state    514 was old state    516
 New state    515 was old state    524
 New state    516 was old state    528
 New state    517 was old state    536
 New state    518 was old state    530
 New state    520 was old state    521
 New state    521 was old state    533
 New state    522 was old state    526
 New state    523 was old state    522
 New state    524 was old state    534
 New state    525 was old state    538
 New state    526 was old state    514
 New state    527 was old state    539
 New state    528 was old state    535
 New state    529 was old state    525
 New state    530 was old state    531
 New state    531 was old state    540
 New state    532 was old state    529
 New state    533 was old state    532
 New state    534 was old state    544
 New state    535 was old state    537
 New state    536 was old state    546
 New state    537 was old state    541
 New state    538 was old state    527
 New state    539 was old state    543
 New state    540 was old state    552
 New state    541 was old state    548
 New state    542 was old state    551
 New state    543 was old state    547
 New state    544 was old state    545
 New state    545 was old state    560
 New state    546 was old state    556
 New state    547 was old state    542
 New state    548 was old state    555
 New state    549 was old state    553
 New state    550 was old state    549
 New state    551 was old state    565
 New state    552 was old state    550
 New state    553 was old state    554
 New state    554 was old state    558
 New state    555 was old state    562
 New state    556 was old state    559
 New state    558 was old state    561
 New state    559 was old state    563
 No map to state    560
 New state    561 was old state    568
 New state    562 was old state    567
 New state    563 was old state    572
 New state    564 was old state    566
 New state    565 was old state    564
 New state    566 was old state    569
 New state    567 was old state    574
 New state    568 was old state    571
 New state    569 was old state    573
 New state    571 was old state    577
 New state    572 was old state    582
 New state    573 was old state    575
 New state    574 was old state    576
 New state    575 was old state    579
 New state    576 was old state    581
 New state    577 was old state    578
 New state    578 was old state    590
 New state    579 was old state    580
 New state    580 was old state    591
 New state    581 was old state    584
 New state    582 was old state    585
 New state    583 was old state    589
 New state    584 was old state    586
 New state    585 was old state    587
 New state    586 was old state    583
 New state    587 was old state    602
 New state    588 was old state    592
 New state    589 was old state    593
 New state    590 was old state    588
 New state    591 was old state    597
 New state    592 was old state    596
 New state    593 was old state    594
 New state    594 was old state    595
 New state    595 was old state    598
 New state    596 was old state    599
 New state    597 was old state    607
 New state    598 was old state    600
 New state    599 was old state    604
 New state    600 was old state    601
 New state    601 was old state    603
 New state    602 was old state    614
 New state    603 was old state    608
 New state    604 was old state    606
 New state    605 was old state    610
 No map to state    606
 New state    607 was old state    616
 New state    608 was old state    611
 New state    609 was old state    605
 New state    610 was old state    618
 New state    611 was old state    612
 New state    612 was old state    619
 New state    614 was old state    609
 New state    616 was old state    628
 New state    617 was old state    622
 New state    618 was old state    617
 New state    619 was old state    620
 New state    620 was old state    621
 New state    621 was old state    623
 New state    622 was old state    638
 New state    623 was old state    625
 New state    624 was old state    627
 New state    625 was old state    626
 New state    626 was old state    630
 New state    627 was old state    631
 New state    628 was old state    648
 New state    629 was old state    635
 New state    630 was old state    629
 New state    631 was old state    624
 New state    634 was old state    636
 New state    635 was old state    639
 New state    636 was old state    634
 New state    638 was old state    640
 New state    639 was old state    642
 New state    640 was old state    641
 New state    641 was old state    647
 New state    642 was old state    645
 New state    644 was old state    649
 New state    645 was old state    653
 New state    646 was old state    650
 New state    647 was old state    652
 New state    648 was old state    656
 New state    649 was old state    646
 New state    650 was old state    655
 New state    651 was old state    664
 New state    652 was old state    657
 New state    653 was old state    651
 New state    654 was old state    644
 New state    655 was old state    654
 New state    656 was old state    666
 New state    657 was old state    674
 New state    658 was old state    659
 New state    659 was old state    658
 New state    660 was old state    663
 New state    661 was old state    665
 New state    662 was old state    661
 New state    663 was old state    660
 New state    664 was old state    662
 New state    665 was old state    668
 New state    666 was old state    667
 New state    667 was old state    669
 New state    668 was old state    689
 New state    669 was old state    677
 New state    670 was old state    676
 New state    671 was old state    678
 New state    673 was old state    670
 New state    674 was old state    673
 New state    675 was old state    671
 New state    676 was old state    675
 New state    677 was old state    684
 New state    678 was old state    688
 New state    679 was old state    686
 New state    681 was old state    682
 New state    682 was old state    679
 New state    683 was old state    681
 New state    684 was old state    683
 New state    686 was old state    690
 New state    687 was old state    691
 New state    688 was old state    687
 New state    689 was old state    693
 New state    690 was old state    698
 New state    691 was old state    701
 New state    692 was old state    694
 New state    693 was old state    703
 New state    694 was old state    692
 New state    695 was old state    697
 New state    697 was old state    700
 New state    698 was old state    702
 New state    700 was old state    695
 New state    701 was old state    704
 New state    702 was old state    705
 New state    703 was old state    711
 New state    704 was old state    709
 New state    705 was old state    722
 New state    708 was old state    710
 New state    709 was old state    712
 New state    710 was old state    714
 New state    711 was old state    713
 New state    712 was old state    715
 New state    713 was old state    716
 New state    714 was old state    718
 New state    715 was old state    717
 New state    716 was old state    726
 New state    717 was old state    723
 New state    718 was old state    721
 New state    719 was old state    708
 New state    720 was old state    724
 New state    721 was old state    720
 New state    722 was old state    733
 New state    723 was old state    727
 New state    724 was old state    730
 New state    725 was old state    719
 New state    726 was old state    725
 New state    727 was old state    734
 New state    729 was old state    732
 New state    730 was old state    740
 New state    732 was old state    744
 New state    733 was old state    729
 New state    734 was old state    737
 New state    735 was old state    738
 New state    736 was old state    747
 New state    737 was old state    735
 New state    738 was old state    741
 New state    739 was old state    743
 New state    740 was old state    748
 New state    741 was old state    742
 New state    742 was old state    736
 New state    743 was old state    745
 New state    744 was old state    746
 New state    745 was old state    739
 New state    746 was old state    751
 New state    747 was old state    749
 New state    748 was old state    752
 New state    749 was old state    750
 New state    750 was old state    759
 New state    751 was old state    754
 New state    752 was old state    753
 New state    753 was old state    767
 New state    754 was old state    756
 New state    755 was old state    758
 New state    756 was old state    762
 New state    757 was old state    760
 New state    758 was old state    763
 New state    759 was old state    757
 New state    760 was old state    755
 New state    761 was old state    765
 New state    762 was old state    774
 New state    763 was old state    761
 New state    765 was old state    769
 New state    767 was old state    778
 New state    769 was old state    772
 New state    770 was old state    771
 New state    771 was old state    770
 New state    772 was old state    773
 New state    773 was old state    784
 New state    774 was old state    781
 New state    776 was old state    782
 New state    777 was old state    783
 New state    778 was old state    790
 New state    779 was old state    793
 New state    780 was old state    785
 New state    781 was old state    791
 New state    782 was old state    776
 New state    783 was old state    777
 New state    784 was old state    779
 New state    785 was old state    789
 New state    786 was old state    788
 New state    788 was old state    780
 New state    789 was old state    786
 New state    790 was old state    792
 New state    791 was old state    795
 New state    792 was old state    794
 New state    793 was old state    807
 New state    794 was old state    799
 New state    795 was old state    798
 New state    796 was old state    800
 New state    798 was old state    796
 New state    799 was old state    804
 New state    800 was old state    803
 New state    803 was old state    820
 New state    804 was old state    810
 New state    805 was old state    806
 New state    806 was old state    805
 New state    807 was old state    809
 New state    808 was old state    817
 New state    809 was old state    812
 New state    810 was old state    811
 New state    811 was old state    815
 New state    812 was old state    821
 New state    813 was old state    818
 New state    815 was old state    813
 New state    816 was old state    819
 New state    817 was old state    823
 New state    818 was old state    825
 New state    819 was old state    816
 New state    820 was old state    808
 New state    821 was old state    835
 New state    822 was old state    831
 New state    823 was old state    822
 New state    824 was old state    827
 New state    825 was old state    838
 New state    826 was old state    824
 New state    827 was old state    832
 New state    829 was old state    833
 New state    831 was old state    834
 New state    832 was old state    829
 New state    833 was old state    837
 New state    834 was old state    836
 New state    835 was old state    843
 New state    836 was old state    826
 New state    837 was old state    839
 New state    838 was old state    840
 New state    839 was old state    849
 New state    840 was old state    841
 New state    841 was old state    845
 New state    842 was old state    844
 New state    843 was old state    846
 New state    844 was old state    842
 New state    845 was old state    848
 New state    846 was old state    850
 New state    847 was old state    855
 New state    848 was old state    847
 New state    849 was old state    854
 New state    850 was old state    856
 New state    851 was old state    852
 New state    852 was old state    851
 New state    853 was old state    858
 New state    854 was old state    853
 New state    855 was old state    857
 New state    856 was old state    863
 New state    857 was old state    860
 New state    858 was old state    862
 New state    859 was old state    861
 New state    860 was old state    859
 New state    861 was old state    864
 New state    862 was old state    865
 New state    863 was old state    868
 New state    864 was old state    866
 New state    865 was old state    870
 New state    866 was old state    872
 New state    867 was old state    875
 New state    868 was old state    869
 New state    869 was old state    884
 New state    870 was old state    873
 New state    871 was old state    867
 New state    872 was old state    877
 New state    873 was old state    878
 New state    874 was old state    879
 New state    875 was old state    874
 New state    876 was old state    883
 New state    877 was old state    888
 New state    878 was old state    882
 New state    879 was old state    876
 New state    880 was old state    881
 New state    881 was old state    871
 New state    882 was old state    894
 New state    883 was old state    880
 New state    884 was old state    890
 New state    885 was old state    892
 New state    887 was old state    891
 New state    888 was old state    887
 New state    889 was old state    885
 New state    890 was old state    893
 New state    891 was old state    911
 New state    892 was old state    889
 New state    893 was old state    901
 New state    894 was old state    897
 New state    895 was old state    896
 New state    896 was old state    899
 New state    897 was old state    898
 New state    898 was old state    895
 New state    899 was old state    908
 New state    901 was old state    903
 New state    902 was old state    904
 New state    903 was old state    906
 New state    904 was old state    915
 New state    905 was old state    902
 New state    906 was old state    913
 New state    907 was old state    917
 New state    908 was old state    907
 New state    909 was old state    905
 New state    910 was old state    912
 New state    911 was old state    910
 New state    912 was old state    909
 New state    913 was old state    919
 New state    914 was old state    916
 New state    915 was old state    914
 New state    916 was old state    918
 New state    917 was old state    920
 New state    918 was old state    921
 New state    919 was old state    927
 New state    920 was old state    929
 New state    921 was old state    928
 New state    922 was old state    923
 New state    923 was old state    922
 New state    924 was old state    925
 New state    925 was old state    930
 New state    927 was old state    933
 New state    928 was old state    935
 New state    929 was old state    934
 New state    930 was old state    931
 New state    931 was old state    924
 New state    932 was old state    936
 New state    933 was old state    932
 New state    934 was old state    939
 New state    935 was old state    938
 New state    936 was old state    937
 New state    937 was old state    942
 New state    938 was old state    941
 New state    939 was old state    952
 New state    941 was old state    943
 New state    942 was old state    947
 New state    943 was old state    944
 New state    944 was old state    953
 New state    946 was old state    948
 New state    947 was old state    951
 New state    948 was old state    946
 New state    949 was old state    954
 New state    951 was old state    949
 New state    952 was old state    959
 New state    953 was old state    957
 New state    954 was old state    956
 New state    956 was old state    960
 New state    957 was old state    961
 New state    959 was old state    971
 New state    960 was old state    983
 New state    961 was old state    964
 New state    962 was old state    965
 New state    963 was old state    966
 New state    964 was old state    962
 New state    965 was old state    970
 New state    966 was old state    963
 New state    967 was old state    968
 New state    968 was old state    978
 New state    969 was old state    967
 New state    970 was old state    969
 New state    971 was old state    972
 New state    972 was old state    973
 New state    973 was old state    974
 New state    974 was old state    976
 New state    975 was old state    981
 New state    976 was old state    980
 New state    978 was old state    975
 New state    979 was old state    986
 New state    980 was old state    982
 New state    981 was old state    988
 New state    982 was old state    979
 New state    983 was old state    985
 New state    985 was old state    987
 New state    986 was old state    997
 New state    987 was old state    992
 New state    988 was old state    991
 New state    989 was old state    990
 New state    990 was old state    996
 New state    991 was old state    989
 New state    992 was old state    994
 New state    994 was old state    995
 New state    995 was old state   1001
 New state    996 was old state   1006
 New state    997 was old state    998
 New state    998 was old state    999
 New state    999 was old state   1004
 New state   1000 was old state   1002
 New state   1001 was old state   1000
 New state   1002 was old state   1010
 New state   1004 was old state   1008
 New state   1005 was old state   1017
 New state   1006 was old state   1007
 New state   1007 was old state   1005
 New state   1008 was old state   1009
 New state   1009 was old state   1012
 New state   1010 was old state   1013
 No map to state   1011
 New state   1012 was old state   1011
 New state   1013 was old state   1022
 New state   1014 was old state   1015
 New state   1015 was old state   1014
 New state   1016 was old state   1018
 New state   1017 was old state   1016
 New state   1018 was old state   1019
 New state   1019 was old state   1023
 New state   1022 was old state   1025
 New state   1023 was old state   1024
 No map to state   1024
 No map to state   1025
 Excitation Energies [eV] at current iteration:
 Root      1 :     6.900196738427196
 Root      2 :     8.244259448561101
 Root      3 :     8.356898736189452
 Root      4 :     9.107836560076006
 Root      5 :     9.595133122070180
 Root      6 :     9.880015036710381
 Root      7 :    10.065235337980860
 Root      8 :    10.387410733149070
 Root      9 :    10.585729578544560
 Root     10 :    10.675777174672080
 Root     11 :    10.713947943677980
 Root     12 :    10.941402606173880
 Root     13 :    11.219665241094520
 Root     14 :    11.344150030922490
 Root     15 :    11.391793692273170
 Root     16 :    11.497637868694440
 Root     17 :    11.647548557490870
 Root     18 :    11.705663468426650
 Root     19 :    11.796880640039720
 Root     20 :    11.911238284866360
 Root     21 :    12.052535636230660
 Root     22 :    12.140123681040240
 Root     23 :    12.205074428031060
 Root     24 :    12.428176922937070
 Root     25 :    12.514431635102890
 Root     26 :    12.546942011951580
 Root     27 :    12.628777390139190
 Root     28 :    12.707098988346010
 Root     29 :    12.761321931667990
 Root     30 :    12.799922812232300
 Root     31 :    12.829228616579500
 Root     32 :    12.932258915080030
 Root     33 :    13.019810001371750
 Root     34 :    13.102579925474440
 Root     35 :    13.222086814849300
 Root     36 :    13.256381750430450
 Root     37 :    13.351502348798470
 Root     38 :    13.531924851260640
 Root     39 :    13.580882263715590
 Root     40 :    13.608465448881280
 Root     41 :    13.642649436278600
 Root     42 :    13.707159264069300
 Root     43 :    13.798212661765560
 Root     44 :    13.875536250867680
 Root     45 :    13.951794451046010
 Root     46 :    14.108299860670870
 Root     47 :    14.153795680443580
 Root     48 :    14.213465184969090
 Root     49 :    14.315421795776050
 Root     50 :    14.408568386324800
 Root     51 :    14.438618677532380
 Root     52 :    14.460486898012020
 Root     53 :    14.579214821601900
 Root     54 :    14.622410628129600
 Root     55 :    14.722403396463700
 Root     56 :    14.768106098924790
 Root     57 :    14.845043673129250
 Root     58 :    14.916391479947800
 Root     59 :    14.965557341037030
 Root     60 :    15.081704055248620
 Root     61 :    15.101616863176200
 Root     62 :    15.177364791738460
 Root     63 :    15.254665871617870
 Root     64 :    15.320062602416290
 Root     65 :    15.374638898183250
 Root     66 :    15.412806912683730
 Root     67 :    15.457725973876180
 Root     68 :    15.488442352116860
 Root     69 :    15.559601835619190
 Root     70 :    15.589117595044560
 Root     71 :    15.624621383612960
 Root     72 :    15.702793665804440
 Root     73 :    15.746135904024890
 Root     74 :    15.827247233665000
 Root     75 :    15.879587725576660
 Root     76 :    15.940569085754560
 Root     77 :    15.985933190826010
 Root     78 :    16.046743484813830
 Root     79 :    16.077655785675700
 Root     80 :    16.188927307448870
 Root     81 :    16.246295039386470
 Root     82 :    16.332232638667820
 Root     83 :    16.369771053136120
 Root     84 :    16.407140487402610
 Root     85 :    16.513203209756620
 Root     86 :    16.519193897178940
 Root     87 :    16.579264225112220
 Root     88 :    16.583921060345220
 Root     89 :    16.631058377527360
 Root     90 :    16.696975363653110
 Root     91 :    16.787218673291550
 Root     92 :    16.855204265394780
 Root     93 :    16.951617614689530
 Root     94 :    16.980984186108510
 Root     95 :    17.000459439490670
 Root     96 :    17.061543495774070
 Root     97 :    17.165404551261310
 Root     98 :    17.195128502864390
 Root     99 :    17.225943507699160
 Root    100 :    17.274529989759320
 Root    101 :    17.372014247380090
 Root    102 :    17.390651957643470
 Root    103 :    17.458696125668010
 Root    104 :    17.513560886532740
 Root    105 :    17.522827059997790
 Root    106 :    17.578331110071910
 Root    107 :    17.634812772545170
 Root    108 :    17.670877568764570
 Root    109 :    17.706806949948270
 Root    110 :    17.762369814938210
 Root    111 :    17.790406903474790
 Root    112 :    17.866050935655320
 Root    113 :    17.907239031011220
 Root    114 :    17.942348282255650
 Root    115 :    18.020128186092800
 Root    116 :    18.028373442153090
 Root    117 :    18.075677945962030
 Root    118 :    18.199451766987100
 Root    119 :    18.216907071798390
 Root    120 :    18.295095339160620
 Root    121 :    18.336330689151690
 Root    122 :    18.380115907360330
 Root    123 :    18.417519749935910
 Root    124 :    18.451301026730300
 Root    125 :    18.482807948292980
 Root    126 :    18.524166646443700
 Root    127 :    18.604425405348120
 Root    128 :    18.638104200274650
 Root    129 :    18.685738003543630
 Root    130 :    18.703777558843980
 Root    131 :    18.763277129889710
 Root    132 :    18.827381542502350
 Root    133 :    18.862576738279400
 Root    134 :    18.885350856341180
 Root    135 :    18.916565103004920
 Root    136 :    18.936290096027870
 Root    137 :    19.006319565610100
 Root    138 :    19.038581113889840
 Root    139 :    19.053899270889850
 Root    140 :    19.089911756879040
 Root    141 :    19.193132237511820
 Root    142 :    19.237769615341500
 Root    143 :    19.290334768934560
 Root    144 :    19.338927972461360
 Root    145 :    19.394192443187560
 Root    146 :    19.407557817846170
 Root    147 :    19.426629621403330
 Root    148 :    19.489825031113980
 Root    149 :    19.511537252979730
 Root    150 :    19.518060099641630
 Root    151 :    19.547252054457330
 Root    152 :    19.595034657713370
 Root    153 :    19.644914087943520
 Root    154 :    19.687589795534020
 Root    155 :    19.739777445596320
 Root    156 :    19.786275922845580
 Root    157 :    19.817961084017000
 Root    158 :    19.870581173799990
 Root    159 :    19.894016453339850
 Root    160 :    19.931322426193580
 Root    161 :    20.002154121539120
 Root    162 :    20.040427079300310
 Root    163 :    20.064591742172380
 Root    164 :    20.094775112097280
 Root    165 :    20.131512605425480
 Root    166 :    20.170351322352610
 Root    167 :    20.182239959307910
 Root    168 :    20.213758429830960
 Root    169 :    20.282791612985680
 Root    170 :    20.338955954582300
 Root    171 :    20.376668507612630
 Root    172 :    20.457647262405860
 Root    173 :    20.497726625297240
 Root    174 :    20.514351574447360
 Root    175 :    20.520646273328110
 Root    176 :    20.594770250052720
 Root    177 :    20.612211633153290
 Root    178 :    20.668558739843070
 Root    179 :    20.734555309230590
 Root    180 :    20.768055528971400
 Root    181 :    20.800092735478870
 Root    182 :    20.884775634580820
 Root    183 :    20.913357940678650
 Root    184 :    20.950511070499490
 Root    185 :    21.024331811119160
 Root    186 :    21.064179767810830
 Root    187 :    21.115339039484940
 Root    188 :    21.157816511878390
 Root    189 :    21.208538038504330
 Root    190 :    21.240515090189200
 Root    191 :    21.309161414567370
 Root    192 :    21.322912012182400
 Root    193 :    21.380332280168340
 Root    194 :    21.413937220901460
 Root    195 :    21.456460806509250
 Root    196 :    21.494834700134360
 Root    197 :    21.529976039447710
 Root    198 :    21.574886871755900
 Root    199 :    21.592726677403920
 Root    200 :    21.630238277497290
 Root    201 :    21.657201908920270
 Root    202 :    21.680603074337150
 Root    203 :    21.703737778223260
 Root    204 :    21.737570132681930
 Root    205 :    21.784551600018720
 Root    206 :    21.806818654389560
 Root    207 :    21.876000528837830
 Root    208 :    21.892235996059700
 Root    209 :    21.949368471406890
 Root    210 :    21.966506611536190
 Root    211 :    22.007997756268040
 Root    212 :    22.086666693373220
 Root    213 :    22.147711312361070
 Root    214 :    22.187613152842430
 Root    215 :    22.200999596495180
 Root    216 :    22.245116768303580
 Root    217 :    22.266327485207970
 Root    218 :    22.294921561419890
 Root    219 :    22.352675410843960
 Root    220 :    22.418857499222740
 Root    221 :    22.446206044332750
 Root    222 :    22.485757963266180
 Root    223 :    22.522922986109490
 Root    224 :    22.547734432073170
 Root    225 :    22.566633975332070
 Root    226 :    22.625655593224150
 Root    227 :    22.700674898287500
 Root    228 :    22.725978708151370
 Root    229 :    22.784713482491030
 Root    230 :    22.844722881522190
 Root    231 :    22.898443084506420
 Root    232 :    22.910206555672400
 Root    233 :    22.931823974876360
 Root    234 :    22.956963079960790
 Root    235 :    23.007839438031740
 Root    236 :    23.018753519089670
 Root    237 :    23.078808566540020
 Root    238 :    23.092441438352760
 Root    239 :    23.099997545624000
 Root    240 :    23.145512719135590
 Root    241 :    23.182256204417370
 Root    242 :    23.276817087059960
 Root    243 :    23.302464375500680
 Root    244 :    23.331976980894730
 Root    245 :    23.344503677499440
 Root    246 :    23.367579366950380
 Root    247 :    23.406377191710940
 Root    248 :    23.497003737170870
 Root    249 :    23.539025805016230
 Root    250 :    23.560335426003640
 Root    251 :    23.597574747639340
 Root    252 :    23.616281474641400
 Root    253 :    23.643322108083370
 Root    254 :    23.712107306964200
 Root    255 :    23.730621769018180
 Root    256 :    23.746531470982810
 Root    257 :    23.791646648746570
 Root    258 :    23.843273692186480
 Root    259 :    23.874873324643450
 Root    260 :    23.938976801201260
 Root    261 :    23.985574522168770
 Root    262 :    24.047739932708970
 Root    263 :    24.056139892827210
 Root    264 :    24.096651527849460
 Root    265 :    24.146355179988820
 Root    266 :    24.210344932974430
 Root    267 :    24.255741211316020
 Root    268 :    24.281324426904590
 Root    269 :    24.309896955588090
 Root    270 :    24.315467230324910
 Root    271 :    24.360512914674080
 Root    272 :    24.414247468798480
 Root    273 :    24.438862242444010
 Root    274 :    24.448750363598200
 Root    275 :    24.492405416996890
 Root    276 :    24.538286002002490
 Root    277 :    24.592230709498440
 Root    278 :    24.624158034225040
 Root    279 :    24.671391325544000
 Root    280 :    24.748505749508470
 Root    281 :    24.766486585695280
 Root    282 :    24.782477278938720
 Root    283 :    24.848031032379770
 Root    284 :    24.860246085564710
 Root    285 :    24.891891685513900
 Root    286 :    24.959522442219870
 Root    287 :    25.005714376150110
 Root    288 :    25.068291646708920
 Root    289 :    25.105102589386470
 Root    290 :    25.144051718257760
 Root    291 :    25.189526784860130
 Root    292 :    25.207701125216690
 Root    293 :    25.229752718525290
 Root    294 :    25.272982760031230
 Root    295 :    25.289010676835720
 Root    296 :    25.331523178671520
 Root    297 :    25.341622843241440
 Root    298 :    25.349522982515800
 Root    299 :    25.404350531694530
 Root    300 :    25.470261399680870
 Root    301 :    25.494432573543400
 Root    302 :    25.501022312965880
 Root    303 :    25.546613617953320
 Root    304 :    25.683091181646060
 Root    305 :    25.705481454719280
 Root    306 :    25.823474646452190
 Root    307 :    25.872018383785440
 Root    308 :    25.918972198735440
 Root    309 :    25.983963421566120
 Root    310 :    26.049891783931980
 Root    311 :    26.088734755550980
 Root    312 :    26.120532260704850
 Root    313 :    26.134218095958810
 Root    314 :    26.173275087722120
 Root    315 :    26.199941362705310
 Root    316 :    26.265743221526380
 Root    317 :    26.319150254255400
 Root    318 :    26.348089107934590
 Root    319 :    26.406356948382610
 Root    320 :    26.463783427756740
 Root    321 :    26.495429746197470
 Root    322 :    26.530406705104650
 Root    323 :    26.548346179601670
 Root    324 :    26.558144381886050
 Root    325 :    26.656466163700200
 Root    326 :    26.684589624714890
 Root    327 :    26.742467744691830
 Root    328 :    26.803590604715940
 Root    329 :    26.835802297924690
 Root    330 :    26.906214199402920
 Root    331 :    26.996480436698770
 Root    332 :    27.019359547367700
 Root    333 :    27.042445844474510
 Root    334 :    27.094634187907550
 Root    335 :    27.111463105017680
 Root    336 :    27.158873022778260
 Root    337 :    27.210865970163710
 Root    338 :    27.237640753649640
 Root    339 :    27.269416825848000
 Root    340 :    27.283782421507130
 Root    341 :    27.376846135056200
 Root    342 :    27.429416558564190
 Root    343 :    27.480358130097500
 Root    344 :    27.521926003855270
 Root    345 :    27.565363444287080
 Root    346 :    27.597187401403590
 Root    347 :    27.685010632097860
 Root    348 :    27.776328084636230
 Root    349 :    27.786520896840780
 Root    350 :    27.857377488096670
 Root    351 :    27.886392541519940
 Root    352 :    27.905666126679190
 Root    353 :    27.984566461577330
 Root    354 :    28.106724342694380
 Root    355 :    28.126175151075110
 Root    356 :    28.167266113480880
 Root    357 :    28.240729551257350
 Root    358 :    28.299854898177350
 Root    359 :    28.330360652195190
 Root    360 :    28.382291727530060
 Root    361 :    28.410434049340090
 Root    362 :    28.448500505529340
 Root    363 :    28.482489167109950
 Root    364 :    28.535878982634240
 Root    365 :    28.559720562577690
 Root    366 :    28.609723904690440
 Root    367 :    28.649340612662810
 Root    368 :    28.759665131545870
 Root    369 :    28.788472485769390
 Root    370 :    28.831272978299470
 Root    371 :    28.951296191503970
 Root    372 :    28.982997624730480
 Root    373 :    29.064814059840820
 Root    374 :    29.107011970992530
 Root    375 :    29.210483678428690
 Root    376 :    29.370809205997780
 Root    377 :    29.386391645810580
 Root    378 :    29.427619534675910
 Root    379 :    29.493361130078880
 Root    380 :    29.556624813821720
 Root    381 :    29.586812634331060
 Root    382 :    29.598247319078100
 Root    383 :    29.671104983990560
 Root    384 :    29.704205345935260
 Root    385 :    29.796231889144460
 Root    386 :    29.891714147301690
 Root    387 :    29.911495581956790
 Root    388 :    29.946396921636220
 Root    389 :    30.028597188090790
 Root    390 :    30.039031858702470
 Root    391 :    30.110990690109750
 Root    392 :    30.162588228567510
 Root    393 :    30.254085351916780
 Root    394 :    30.284391563661960
 Root    395 :    30.378707111524720
 Root    396 :    30.447486519163420
 Root    397 :    30.451076467843400
 Root    398 :    30.473685001287320
 Root    399 :    30.545476722579370
 Root    400 :    30.575479450118610
 Root    401 :    30.636126172513570
 Root    402 :    30.693422569063500
 Root    403 :    30.802078011977970
 Root    404 :    30.824463181500100
 Root    405 :    30.873882012004010
 Root    406 :    30.903279496150850
 Root    407 :    30.971700959370920
 Root    408 :    31.023211887786030
 Root    409 :    31.104792301076290
 Root    410 :    31.116471949155300
 Root    411 :    31.198766839420180
 Root    412 :    31.272481277187980
 Root    413 :    31.313817152001790
 Root    414 :    31.508995530929570
 Root    415 :    31.637033361051000
[...]
      1  -0.131608D+03 -0.131595D+03 -0.131583D+03 -0.131581D+03 -0.131575D+03
      2   0.202259D-01 -0.526884D-01 -0.911909D-01  0.772969D-01  0.613296D-01
      3   0.918184D-01 -0.888451D-03  0.943083D-02 -0.115041D-01 -0.177191D-01
      4   0.591962D-01  0.334646D-01 -0.303847D-01  0.173981D-01  0.132711D-01
      5  -0.657904D-01  0.156056D+00  0.274891D+00 -0.242844D+00 -0.181261D+00
      6  -0.272875D+00  0.320723D-02 -0.403845D-01  0.310132D-01  0.579543D-01
      7  -0.183931D+00 -0.949411D-01  0.868847D-01 -0.519444D-01 -0.466791D-01
      8   0.832461D-01 -0.184154D+00 -0.108636D-01  0.763897D-01  0.910901D-01
      9   0.235584D+00 -0.581523D-01 -0.109534D-01 -0.169918D+00  0.206762D+00
     10   0.187436D+00 -0.577642D+00 -0.305972D-01 -0.182509D+00 -0.185552D+00
     11   0.410754D-01 -0.472740D+00  0.390499D+00  0.450188D-01  0.109767D+00
     12   0.220086D+00  0.200279D-01  0.254153D+00  0.882702D-01  0.217697D+00
     13   0.804650D-01 -0.634639D-01  0.415883D-01  0.578435D-01  0.922224D-01
     14  -0.347329D-01 -0.399050D+00 -0.152788D+00 -0.209629D-01 -0.138677D+00
     15  -0.242467D+00  0.724549D-01 -0.111499D+00  0.168111D+00 -0.226571D+00
     16   0.126853D+00 -0.121131D+00  0.828185D-01  0.642300D-01  0.115374D+00
               966           967           968           969           970 
      1  -0.131574D+03 -0.131571D+03 -0.131564D+03 -0.131559D+03 -0.131547D+03
      2  -0.182314D-02  0.871478D-03 -0.228360D-01  0.425823D-01  0.174022D-02
      3  -0.274639D-01  0.240522D-01 -0.873064D-01 -0.634837D-01  0.835962D-02
      4   0.142380D-01  0.125258D-01  0.190821D-01  0.595737D-02  0.208110D-01
      5  -0.102818D-01  0.103692D-02  0.649192D-01 -0.116921D+00 -0.136866D-01
      6   0.812139D-01 -0.716108D-01  0.257192D+00  0.191563D+00 -0.116184D-01
      7  -0.326654D-01 -0.377771D-01 -0.474818D-01 -0.155623D-01 -0.652881D-01
      8   0.662155D-01  0.705141D-01 -0.589867D-01 -0.146248D-01 -0.216425D-01
      9  -0.271182D+00  0.618516D-01 -0.324003D+00  0.376729D-02  0.279041D+00
     10   0.322838D+00  0.281456D+00 -0.214674D-01  0.590556D-01  0.113116D+00
     11  -0.280631D-01 -0.169357D+00 -0.587412D+00  0.710975D+00 -0.739669D+00
     12  -0.291291D-02 -0.117602D+00  0.223631D+00  0.121456D+00  0.818343D-01
     13  -0.973608D-01  0.198874D-01 -0.132409D+00 -0.751108D-01  0.512937D-01
     14   0.217974D+00  0.789742D-02 -0.156521D+00  0.273344D+00 -0.961350D-01
     15   0.332980D+00 -0.718356D-01  0.406963D+00  0.754740D-02 -0.266966D+00
     16  -0.204364D-01  0.291128D-01 -0.732116D-01 -0.337822D-01  0.930922D-01
               971           972           973           974           975 
      1  -0.131541D+03 -0.131530D+03 -0.131520D+03 -0.131519D+03 -0.131509D+03
      2   0.201169D-01 -0.256885D-01 -0.449445D-01 -0.168063D-01  0.184232D-01
      3   0.222390D-01  0.861004D-01  0.833505D-02  0.359898D-01  0.261687D-01
      4  -0.225788D-01  0.112361D-01 -0.515605D-01 -0.106240D-01 -0.556707D-01
      5  -0.641518D-01  0.867953D-01  0.135693D+00  0.488167D-01 -0.549234D-01
      6  -0.612713D-01 -0.245201D+00 -0.235166D-01 -0.109307D+00 -0.860010D-01
      7   0.671316D-01 -0.306862D-01  0.155328D+00  0.294256D-01  0.172848D+00
      8   0.886127D-01 -0.800579D-01  0.569422D-01 -0.783504D-02 -0.299998D-01
      9   0.979312D-02 -0.424860D+00  0.206444D+00 -0.183775D-01  0.145122D+00
     10   0.136900D+00  0.317538D+00  0.645816D-01 -0.494950D-01  0.194947D-01
     11   0.342384D+00 -0.154363D-01 -0.515423D+00 -0.269013D+00  0.105713D+00
     12  -0.774328D-01  0.285022D-01  0.154258D+00  0.111836D+00  0.763072D-02
     13   0.432369D-01 -0.128532D+00 -0.111111D-01 -0.153458D-01 -0.758294D-01
     14   0.107948D-01  0.359415D+00  0.800779D-01 -0.923393D-01  0.889339D-01
     15   0.110850D+00  0.373629D+00 -0.267679D+00  0.133921D+00 -0.119371D+00
     16   0.435098D-01 -0.113155D+00  0.685740D-01  0.794172D-01 -0.575398D-01
               976           977           978           979           980 
      1  -0.131500D+03 -0.131491D+03 -0.131483D+03 -0.131480D+03 -0.131476D+03
      2  -0.927656D-02 -0.239737D-02  0.706017D-02 -0.199772D-02 -0.153654D-01
      3  -0.118204D-01 -0.201215D-01  0.279194D-01 -0.118988D-01  0.393293D-01
      4  -0.389224D-01 -0.136362D-01  0.211537D-01  0.409465D-01 -0.189762D-01
      5   0.325834D-01  0.790730D-02 -0.208543D-01 -0.455939D-02  0.567493D-01
      6   0.420531D-01  0.656399D-01 -0.810076D-01  0.437404D-01 -0.124076D+00
      7   0.111916D+00  0.339928D-01 -0.573872D-01 -0.117532D+00  0.524931D-01
      8   0.621963D-01  0.425834D-01 -0.532413D-01 -0.414788D-01  0.105974D+00
      9  -0.148883D+00  0.195888D+00  0.838726D-02 -0.792819D-01  0.197236D+00
     10   0.205184D+00 -0.208061D+00  0.236055D+00  0.211624D-01 -0.796689D-01
     11  -0.339361D+00  0.261631D+00 -0.989051D-01  0.185093D+00  0.371124D+00
     12  -0.117640D+00  0.359163D-01 -0.278698D+00  0.196493D+00  0.798726D-01
     13  -0.525135D-01  0.790498D-01 -0.964616D-02 -0.114191D+00  0.122296D-01
     14   0.114697D+00 -0.785735D-01  0.175463D+00  0.647985D-01 -0.218355D-01
     15   0.203509D+00 -0.161279D+00 -0.441675D-01  0.100494D+00 -0.175864D+00
     16  -0.792839D-02  0.471312D-01 -0.116975D+00  0.439747D-02  0.187508D+00
               981           982           983           984           985 
      1  -0.131474D+03 -0.131461D+03 -0.131452D+03 -0.131448D+03 -0.131447D+03
      2  -0.749565D-01  0.777454D-01 -0.547412D-01  0.810994D-02  0.191660D-01
      3   0.508423D-01 -0.548096D-01  0.355465D-01  0.102187D-01 -0.312552D-02
      4   0.844267D-02  0.310252D-01  0.175465D-01 -0.290821D-01  0.255558D-01
      5   0.231232D+00 -0.240657D+00  0.178678D+00 -0.167673D-01 -0.577124D-01
      6  -0.162934D+00  0.171661D+00 -0.124468D+00 -0.246908D-01  0.198037D-01
      7  -0.243389D-01 -0.903857D-01 -0.647353D-01  0.731599D-01 -0.757373D-01
      8  -0.514540D-02 -0.990477D-02 -0.176315D-01  0.629960D-01  0.469981D-01
      9  -0.991144D-04  0.510226D-01 -0.122417D+00 -0.355067D-01  0.529131D-01
     10  -0.170044D+00  0.368713D+00 -0.215675D+00 -0.339941D-01  0.734855D-01
     11   0.128389D+01 -0.567691D+00  0.377934D+00 -0.106073D+00 -0.402799D+00
     12   0.164785D+00 -0.825128D-01  0.131871D+00  0.123400D-01  0.434974D-01
     13   0.290839D-01 -0.838136D-01  0.349158D-01  0.104306D-01  0.790580D-01
     14  -0.499048D+00  0.608867D+00 -0.367801D+00  0.126013D+00  0.159534D+00
     15  -0.106381D-01 -0.319074D-01  0.111551D+00  0.372851D-01 -0.524727D-01
     16   0.702064D-01 -0.120227D+00  0.500568D-01  0.102349D+00  0.106531D+00
               986           987           988           989           990 
      1  -0.131440D+03 -0.131434D+03 -0.131417D+03 -0.131405D+03 -0.131402D+03
      2  -0.476350D-01  0.314185D-01 -0.161153D-01 -0.262545D-01  0.991702D-02
      3  -0.159505D-02 -0.584382D-02  0.153534D-01  0.456083D-02 -0.861593D-02
      4   0.324905D-01  0.206270D-01  0.159839D-01 -0.197309D-01 -0.621767D-02
      5   0.141444D+00 -0.932260D-01  0.292974D-01  0.819834D-01 -0.212494D-01
      6  -0.657789D-02  0.173369D-01 -0.376587D-01 -0.139416D-01  0.276369D-01
      7  -0.911579D-01 -0.533036D-01 -0.457469D-01  0.618332D-01  0.119554D-01
      8   0.501713D-01 -0.299645D-01  0.194771D-01 -0.958130D-01  0.121575D+00
      9  -0.808640D-01  0.127051D+00  0.132915D+00  0.858500D-01 -0.375606D-01
     10   0.693365D-02 -0.157358D+00  0.168522D+00 -0.767865D-01 -0.288287D+00
     11  -0.501412D+00 -0.180173D+00 -0.604937D+00 -0.105159D+00 -0.190301D+00
     12   0.564148D-01 -0.145936D-01 -0.898643D-01 -0.107541D+00 -0.272897D+00
     13   0.121522D+00  0.395794D-01 -0.222944D-01  0.617109D-01  0.547250D-01
     14  -0.132842D+00  0.579046D-01  0.376891D+00 -0.728335D-01 -0.514120D+00
     15   0.448649D-01 -0.755976D-01 -0.108838D+00 -0.859734D-01  0.104971D-02
     16   0.458586D-01  0.221033D-01  0.544762D-01 -0.128580D+00  0.955897D-01
               991           992           993           994           995 
      1  -0.131396D+03 -0.131371D+03 -0.131367D+03 -0.131364D+03 -0.131349D+03
      2   0.933634D-03  0.261209D-01 -0.109630D-01  0.191617D-02  0.966573D-02
      3  -0.926111D-02  0.206388D-02  0.718229D-02 -0.334727D-01  0.101742D-01
      4   0.306855D-01  0.834284D-02 -0.465328D-01 -0.100539D-01 -0.562829D-02
      5  -0.121774D-01 -0.709316D-01  0.324828D-01 -0.284092D-01 -0.395584D-01
      6   0.348155D-01 -0.385928D-03 -0.222358D-01  0.106545D+00 -0.328229D-01
      7  -0.982316D-01 -0.199603D-01  0.134937D+00  0.270824D-01  0.241182D-01
      8  -0.216542D-01  0.167707D-01 -0.564895D-02  0.151295D+00 -0.613571D-01
      9   0.471127D-01  0.697742D-01  0.347732D+00 -0.371882D-01 -0.145135D+00
     10   0.125508D+00  0.145512D+00  0.300830D-01  0.671325D-01 -0.222364D+00
     11  -0.378813D+00 -0.204462D+00 -0.171746D+00 -0.321570D+00 -0.321648D+00
     12   0.111723D+00  0.304161D-01 -0.433265D-01  0.171283D+00  0.599395D-01
     13  -0.721229D-01  0.131164D+00  0.339592D-01  0.114744D-01  0.967897D-02
     14  -0.164305D-01  0.629440D-02 -0.207132D+00  0.176536D+00 -0.459744D-01
     15  -0.833973D-01 -0.533303D-01 -0.359878D+00  0.606853D-01  0.173241D+00
     16  -0.130145D+00  0.576071D-01 -0.123529D-01  0.135139D+00 -0.376084D-03
               996           997           998           999          1000 
      1  -0.131337D+03 -0.131317D+03 -0.131316D+03 -0.131308D+03 -0.131298D+03
      2   0.215722D-01  0.159748D-01 -0.333566D-01 -0.145100D-01 -0.144693D-01
      3  -0.137382D-01  0.136271D-01 -0.466913D-01  0.397615D-02 -0.388926D-02
      4  -0.362400D-01 -0.244802D-01  0.381659D-01 -0.673796D-02  0.291366D-01
      5  -0.705134D-01 -0.513876D-01  0.108005D+00  0.593512D-01  0.605080D-01
      6   0.361046D-01 -0.432173D-01  0.140200D+00 -0.912968D-02 -0.140327D-01
      7   0.102735D+00  0.711269D-01 -0.126095D+00  0.193641D-01 -0.855360D-01
      8   0.565183D-03  0.135270D+00  0.416722D-01 -0.115728D-01 -0.335241D-01
      9   0.170233D+00 -0.815518D-01  0.159000D+00  0.202642D-01 -0.389199D-01
     10   0.334131D-01 -0.244176D+00 -0.117899D-02  0.270052D+00 -0.411999D+00
     11   0.226338D+00 -0.593692D-01  0.432988D+00  0.695199D-01  0.335869D+00
     12   0.275289D+00 -0.191304D+00 -0.838282D-01  0.441269D-01 -0.619502D-01
     13  -0.705031D-01  0.490239D-01  0.163397D+00 -0.158422D-01  0.103022D+00
     14   0.144137D+00 -0.128804D+00  0.348785D-02  0.947555D-01 -0.302921D+00
     15  -0.917135D-01  0.621663D-01 -0.198975D+00 -0.809788D-01  0.317483D-01
     16   0.599970D-01  0.112254D+00 -0.216161D-02  0.760461D-01  0.430480D-02
              1001          1002          1003          1004          1005 
      1  -0.131287D+03 -0.131274D+03 -0.131271D+03 -0.131267D+03 -0.131265D+03
      2   0.736033D-01  0.320083D-01 -0.212723D-01 -0.119546D-01  0.696706D-01
      3  -0.104049D+00 -0.280189D-01  0.482403D-01  0.649297D-01  0.848937D-01
      4  -0.638179D-01 -0.268952D-01  0.253544D-01 -0.190864D-01 -0.468526D-01
      5  -0.271364D+00 -0.127451D+00  0.866951D-01  0.411888D-01 -0.230114D+00
      6   0.349193D+00  0.103458D+00 -0.159994D+00 -0.221639D+00 -0.270218D+00
      7   0.206882D+00  0.764174D-01 -0.808511D-01  0.578906D-01  0.155209D+00
      8  -0.370466D-02 -0.269999D-01  0.201128D+00 -0.896471D-01 -0.996567D-01
      9  -0.304955D+00 -0.360029D+00 -0.167434D+00  0.233619D+00 -0.412276D+00
     10   0.435484D+00  0.336947D+00 -0.621092D-01 -0.357502D+00 -0.693903D+00
     11  -0.109667D+01 -0.440657D+00  0.141737D+00 -0.915352D-01 -0.654948D+00
     12  -0.354165D+00 -0.197388D+00  0.234930D+00  0.139519D+00  0.425735D-01
     13  -0.234002D-01 -0.351906D-01 -0.130679D-01 -0.193965D-01 -0.443890D-01
     14   0.597208D+00  0.202009D+00 -0.133629D+00 -0.319592D+00 -0.419191D+00
     15   0.367419D+00  0.478891D+00  0.959742D-01 -0.299139D+00  0.423259D+00
     16  -0.176006D+00 -0.798008D-01  0.947505D-01  0.793147D-01 -0.132397D-01
              1006          1007          1008          1009          1010 
      1  -0.131243D+03 -0.131226D+03 -0.131210D+03 -0.131197D+03 -0.131181D+03
      2  -0.191258D-01 -0.707269D-01  0.457042D-02 -0.849639D-02  0.131158D-01
      3  -0.974220D-02 -0.361693D-01  0.205869D-01 -0.195109D-02 -0.254947D-01
      4  -0.146720D-01  0.530410D-01 -0.476253D-02  0.368483D-01  0.362023D-01
      5   0.470502D-01  0.235406D+00  0.751568D-02  0.161898D-01 -0.644255D-01
      6   0.163300D-01  0.114556D+00 -0.595531D-01  0.152515D-03  0.900625D-01
      7   0.473940D-01 -0.170806D+00  0.224250D-01 -0.112566D+00 -0.114454D+00
      8  -0.891715D-01  0.135471D+00 -0.109603D+00  0.281384D-01  0.555337D-01
      9   0.133994D-01  0.306756D+00 -0.169127D+00 -0.111102D+00  0.244327D+00
     10  -0.342864D-01  0.475438D+00  0.245900D-01 -0.244321D-01 -0.131475D+00
     11  -0.258592D+00  0.100487D+01  0.337873D+00 -0.192333D+00  0.684917D-01
     12   0.338073D-01 -0.341625D+00 -0.249928D-01  0.113610D+00 -0.159473D+00
     13  -0.193941D-01  0.181799D+00 -0.649983D-02 -0.578494D-01  0.451604D-01
     14  -0.154523D+00  0.200240D+00  0.699216D-01 -0.164860D+00  0.904521D-02
     15  -0.342062D-01 -0.447950D+00  0.222338D+00  0.162799D+00 -0.224502D+00
     16   0.874576D-02  0.163455D-01 -0.335978D-01  0.375805D-02 -0.695264D-01
              1011          1012          1013          1014          1015 
      1  -0.131172D+03 -0.131171D+03 -0.131137D+03 -0.131097D+03 -0.131091D+03
      2  -0.143898D-01  0.331242D-03  0.224761D-01  0.189877D-01  0.570020D-01
      3   0.244289D-01  0.384034D-01 -0.424249D-01 -0.689283D-02 -0.278712D-01
      4   0.260973D-01  0.150304D-01 -0.285476D-01  0.561154D-01  0.690611D-01
      5   0.522094D-01  0.287355D-02 -0.612317D-01 -0.569951D-01 -0.208089D+00
      6  -0.868287D-01 -0.124781D+00  0.123180D+00  0.169251D-01  0.923783D-01
      7  -0.899467D-01 -0.477033D-01  0.835310D-01 -0.174061D+00 -0.247582D+00
      8   0.732921D-01 -0.813097D-01  0.237431D-01 -0.155698D-01  0.131529D+00
      9   0.229161D+00  0.288421D-01  0.837035D-01 -0.232109D+00  0.583160D+00
     10  -0.321423D+00 -0.467635D+00 -0.274125D+00 -0.148477D+00  0.825883D-01
     11   0.256965D+00 -0.401714D-01  0.352239D+00  0.210149D-01 -0.813826D+00
     12   0.130787D+00  0.315244D+00 -0.248897D-01  0.208240D-01 -0.934183D-01
     13  -0.613027D-03 -0.891150D-01  0.991101D-01  0.261685D-02  0.149280D+00
     14  -0.215795D+00 -0.407616D+00 -0.303352D+00 -0.130019D+00  0.332946D+00
     15  -0.303017D+00  0.641645D-02 -0.598134D-01  0.234127D+00 -0.442234D+00
     16   0.826146D-01  0.232823D-02  0.342218D-01 -0.437790D-01 -0.192344D-02
              1016          1017          1018          1019          1020 
      1  -0.131081D+03 -0.131076D+03 -0.131054D+03 -0.131043D+03 -0.131034D+03
      2   0.721067D-01  0.837577D-02 -0.112684D-01 -0.160997D-01  0.193111D-02
      3   0.775883D-01  0.742593D-02 -0.173487D-01 -0.533385D-01 -0.830643D-03
      4  -0.193473D-01  0.977241D-02 -0.355622D-01  0.418430D-01 -0.837797D-02
      5  -0.252980D+00 -0.181027D-01  0.448535D-01  0.504017D-01 -0.270295D-01
      6  -0.258198D+00 -0.764862D-02  0.475429D-01  0.179980D+00  0.132837D-01
      7   0.643799D-01 -0.383027D-01  0.116711D+00 -0.144014D+00  0.249255D-01
      8  -0.392335D-01  0.100251D+00  0.827410D-01  0.110805D+00 -0.138835D-01
      9   0.174731D-01  0.190013D+00 -0.877515D-01  0.365731D+00 -0.693820D-01
     10  -0.593716D+00  0.215165D+00  0.467200D-01  0.455271D+00 -0.462627D-01
     11  -0.100916D+01 -0.144995D-01  0.677420D-01  0.260839D+00 -0.633050D+00
     12   0.270328D+00 -0.316351D+00  0.500990D-01 -0.304665D+00 -0.242388D+00
     13  -0.141042D+00  0.124915D+00 -0.261083D-02  0.136398D+00 -0.171495D-01
     14  -0.251357D+00  0.185542D+00  0.564694D-01  0.383889D+00  0.460454D+00
     15   0.164478D+00 -0.207633D+00  0.771256D-01 -0.377014D+00  0.225001D+00
     16   0.856890D-01 -0.481327D-01  0.115090D-01 -0.106534D-01 -0.949925D-01
              1021          1022          1023          1024          1025 
      1  -0.131005D+03 -0.130953D+03 -0.130948D+03 -0.130942D+03 -0.130927D+03
      2   0.605775D-01 -0.309677D-02 -0.416935D-01  0.909754D-02  0.669474D-02
      3  -0.100182D-01 -0.184138D-01 -0.165699D-01 -0.175542D-01 -0.122011D-01
      4   0.622553D-01 -0.318793D-01 -0.975108D-02  0.320765D-01  0.247691D-01
      5  -0.217316D+00  0.195479D-01  0.140028D+00 -0.335435D-01 -0.195938D-01
      6   0.467669D-01  0.609889D-01  0.665471D-01  0.606162D-01  0.369631D-01
      7  -0.219385D+00  0.106875D+00  0.283898D-01 -0.106175D+00 -0.760766D-01
      8   0.144665D+00 -0.143819D-02 -0.217954D-01  0.740007D-01 -0.861099D-01
      9   0.537850D+00 -0.129310D+00 -0.121962D+00  0.216028D+00 -0.997212D-01
     10  -0.361887D-01  0.242562D-01  0.260379D+00  0.160043D+00 -0.633879D-02
     11  -0.105666D+01  0.293657D+00  0.714351D+00 -0.115748D+00 -0.337302D-01
     12  -0.543785D-01 -0.724551D-01 -0.105059D+00 -0.121711D+00 -0.564930D-02
     13   0.170996D+00  0.639058D-02 -0.409872D-01  0.867220D-01 -0.170246D-02
     14   0.275992D+00 -0.637548D-02  0.414352D-01  0.210082D+00  0.102870D-01
     15  -0.398219D+00  0.104062D+00  0.220119D-01 -0.193696D+00  0.126692D+00
     16   0.855686D-01  0.501216D-02 -0.601103D-01  0.461093D-01 -0.412563D-01
              1026          1027          1028          1029          1030 
      1  -0.130892D+03 -0.130810D+03 -0.130808D+03 -0.130674D+03 -0.130589D+03
      2   0.795707D-02  0.622411D-02 -0.373693D-01 -0.160168D-01  0.256739D-01
      3  -0.133963D-02 -0.560428D-02  0.184103D-01 -0.285007D-01  0.356428D-01
      4   0.154208D-01  0.228652D-02 -0.247277D-01  0.181190D-01 -0.204446D-01
      5  -0.186288D-01 -0.140923D-01  0.893336D-01  0.551880D-01 -0.835697D-01
      6  -0.545631D-02  0.331065D-02 -0.387700D-01  0.984359D-01 -0.125412D+00
      7  -0.580488D-01 -0.878064D-02  0.895346D-01 -0.621697D-01  0.705421D-01
      8   0.397651D-01  0.944225D-02 -0.300168D-01  0.528784D-01 -0.413546D-01
      9   0.114295D+00  0.235610D-01 -0.210429D+00  0.134219D+00 -0.129088D+00
     10   0.152436D-01  0.279031D-01  0.309502D-01  0.255244D+00 -0.290204D+00
     11  -0.340751D+00 -0.163992D-01  0.191543D+00  0.181672D+00 -0.304193D+00
     12  -0.179950D+00  0.341529D-01 -0.900063D-01 -0.913437D-01  0.135889D+00
     13   0.365136D-01 -0.386213D-02  0.128728D-01  0.113033D+00 -0.103758D+00
     14   0.236649D+00 -0.594932D-01 -0.198877D-01  0.149041D+00 -0.156269D+00
     15  -0.403413D-01 -0.159107D-01  0.173037D+00 -0.161765D+00  0.172955D+00
     16  -0.493135D-01 -0.268764D-01  0.475350D-02 -0.435035D-01  0.618723D-01
 Unable to Open any file for archive entry.
 1\1\GINC-HEL24\SP\RLC-wHPBE TD-FC\Gen\C2H7N1\SABYASACHI\21-Mar-2022\0\
 \#P TD(Nstates=10000) lc-whpbe/Gen SCF(maxcycles=100) Int(Grid=ultrafi
 ne)\\xGDB7_00001_tier4.com\\0,1\C,0,-1.240791,-0.237624,-0.027525\C,0,
 0.048946,0.559205,0.053709\N,0,1.202342,-0.317606,-0.116703\H,0,-2.109
 817,0.415828,0.064703\H,0,-1.292929,-0.976209,0.776809\H,0,-1.300329,-
 0.769884,-0.977746\H,0,0.066306,1.122818,0.997967\H,0,0.069957,1.29657
 4,-0.752592\H,0,1.236408,-1.003082,0.627159\H,0,2.06508,0.20771,-0.076
 483\\Version=EM64L-G16RevC.01\State=1-A\HF=-135.0093474\RMSD=3.492e-09
 \PG=C01 [X(C2H7N1)]\\@
 The archive entry for this job was punched.


 WHEN A MATHEMATICIAN ENGAGED IN INVESTIGATING
 PHYSICAL ACTIONS AND RESULTS HAS ARRIVED AT HIS
 CONCLUSIONS, MAY THEY NOT BE EXPRESSED IN COMMON
 LANGUAGE AS FULLY, CLEARLY, AND DEFINITELY AS IN
 MATHEMATICAL FORMULAE?
           - LETTER FROM M. FARADAY TO J.C. MAXWELL, 1857.
 Job cpu time:       0 days  0 hours 30 minutes 47.7 seconds.
 Elapsed time:       0 days  0 hours  3 minutes 51.4 seconds.
 File lengths (MBytes):  RWF=   1370 Int=      0 D2E=      0 Chk=    332 Scr=      1
 Normal termination of Gaussian 16 at Mon Mar 21 20:20:49 2022.
