 Entering Gaussian System, Link 0=g16
 Input=000005.com
 Output=000005.log
 Initial command:
 /home/sabyasachi/g16/l1.exe "/scratch/sabyasachi/PBS_7976205.helios/Gau-109134.inp" -scrdir="/scratch/sabyasachi/PBS_7976205.helios/"
 Entering Link 1 = /home/sabyasachi/g16/l1.exe PID=    109135.
  
 Copyright (c) 1988-2019, Gaussian, Inc.  All Rights Reserved.
  
 This is part of the Gaussian(R) 16 program.  It is based on
 the Gaussian(R) 09 system (copyright 2009, Gaussian, Inc.),
 the Gaussian(R) 03 system (copyright 2003, Gaussian, Inc.),
 the Gaussian(R) 98 system (copyright 1998, Gaussian, Inc.),
 the Gaussian(R) 94 system (copyright 1995, Gaussian, Inc.),
 the Gaussian 92(TM) system (copyright 1992, Gaussian, Inc.),
 the Gaussian 90(TM) system (copyright 1990, Gaussian, Inc.),
 the Gaussian 88(TM) system (copyright 1988, Gaussian, Inc.),
 the Gaussian 86(TM) system (copyright 1986, Carnegie Mellon
 University), and the Gaussian 82(TM) system (copyright 1983,
 Carnegie Mellon University). Gaussian is a federally registered
 trademark of Gaussian, Inc.
  
 This software contains proprietary and confidential information,
 including trade secrets, belonging to Gaussian, Inc.
  
 This software is provided under written license and may be
 used, copied, transmitted, or stored only in accord with that
 written license.
  
 The following legend is applicable only to US Government
 contracts under FAR:
  
                    RESTRICTED RIGHTS LEGEND
  
 Use, reproduction and disclosure by the US Government is
 subject to restrictions as set forth in subparagraphs (a)
 and (c) of the Commercial Computer Software - Restricted
 Rights clause in FAR 52.227-19.
  
 Gaussian, Inc.
 340 Quinnipiac St., Bldg. 40, Wallingford CT 06492
  
  
 ---------------------------------------------------------------
 Warning -- This program may not be used in any manner that
 competes with the business of Gaussian, Inc. or will provide
 assistance to any competitor of Gaussian, Inc.  The licensee
 of this program is prohibited from giving any competitor of
 Gaussian, Inc. access to this program.  By using this program,
 the user acknowledges that Gaussian, Inc. is engaged in the
 business of creating and licensing software in the field of
 computational chemistry and represents and warrants to the
 licensee that it is not a competitor of Gaussian, Inc. and that
 it will not use this program in any manner prohibited above.
 ---------------------------------------------------------------
  

 Cite this work as:
 Gaussian 16, Revision C.01,
 M. J. Frisch, G. W. Trucks, H. B. Schlegel, G. E. Scuseria, 
 M. A. Robb, J. R. Cheeseman, G. Scalmani, V. Barone, 
 G. A. Petersson, H. Nakatsuji, X. Li, M. Caricato, A. V. Marenich, 
 J. Bloino, B. G. Janesko, R. Gomperts, B. Mennucci, H. P. Hratchian, 
 J. V. Ortiz, A. F. Izmaylov, J. L. Sonnenberg, D. Williams-Young, 
 F. Ding, F. Lipparini, F. Egidi, J. Goings, B. Peng, A. Petrone, 
 T. Henderson, D. Ranasinghe, V. G. Zakrzewski, J. Gao, N. Rega, 
 G. Zheng, W. Liang, M. Hada, M. Ehara, K. Toyota, R. Fukuda, 
 J. Hasegawa, M. Ishida, T. Nakajima, Y. Honda, O. Kitao, H. Nakai, 
 T. Vreven, K. Throssell, J. A. Montgomery, Jr., J. E. Peralta, 
 F. Ogliaro, M. J. Bearpark, J. J. Heyd, E. N. Brothers, K. N. Kudin, 
 V. N. Staroverov, T. A. Keith, R. Kobayashi, J. Normand, 
 K. Raghavachari, A. P. Rendell, J. C. Burant, S. S. Iyengar, 
 J. Tomasi, M. Cossi, J. M. Millam, M. Klene, C. Adamo, R. Cammi, 
 J. W. Ochterski, R. L. Martin, K. Morokuma, O. Farkas, 
 J. B. Foresman, and D. J. Fox, Gaussian, Inc., Wallingford CT, 2019.
 
 ******************************************
 Gaussian 16:  EM64L-G16RevC.01  3-Jul-2019
                21-Mar-2022 
 ******************************************
 %mem=64gb
 %nproc=8
 Will use up to    8 processors via shared memory.
 ----------------------------------------------------------------------
 #P TD(Nstates=10000) lc-blyp/Gen SCF(maxcycles=100) Int(Grid=ultrafine
 )
 ----------------------------------------------------------------------
 1/38=1,172=1/1;
 2/12=2,17=6,18=5,40=1/2;
 3/5=7,11=9,25=1,30=1,74=1000402,75=-5/1,2,3,8;
 4//1;
 5/5=2,7=100,38=5/2;
 8/6=1,10=1,108=10000/1;
 9/41=10000,42=1,70=2/14;
 6/7=2,8=2,9=2,10=2/1;
 99/5=1,9=1/99;
 Leave Link    1 at Mon Mar 21 20:07:08 2022, MaxMem=  8589934592 cpu:               0.3 elap:               0.1
 (Enter /home/sabyasachi/g16/l101.exe)
 ---------------------
 xGDB7_00001_tier4.com
 ---------------------
 Symbolic Z-matrix:
 Charge =  0 Multiplicity = 1
 6                     0.        0.        0.7614 
 6                     0.        0.       -0.7614 
 1                     0.        1.01711   1.15725 
 1                     0.88084  -0.50856   1.15725 
 1                    -0.88084  -0.50856   1.15725 
 1                     0.88084   0.50856  -1.15725 
 1                    -0.88084   0.50856  -1.15725 
 1                     0.       -1.01711  -1.15725 
 
 ITRead=  0  0  0  0  0  0  0  0
 MicOpt= -1 -1 -1 -1 -1 -1 -1 -1
 NAtoms=      8 NQM=        8 NQMF=       0 NMMI=      0 NMMIF=      0
                NMic=       0 NMicF=      0.
                    Isotopes and Nuclear Properties:
 (Nuclear quadrupole moments (NQMom) in fm**2, nuclear magnetic moments (NMagM)
  in nuclear magnetons)

  Atom         1           2           3           4           5           6           7           8
 IAtWgt=          12          12           1           1           1           1           1           1
 AtmWgt=  12.0000000  12.0000000   1.0078250   1.0078250   1.0078250   1.0078250   1.0078250   1.0078250
 NucSpn=           0           0           1           1           1           1           1           1
 AtZEff=  -0.0000000  -0.0000000  -0.0000000  -0.0000000  -0.0000000  -0.0000000  -0.0000000  -0.0000000
 NQMom=    0.0000000   0.0000000   0.0000000   0.0000000   0.0000000   0.0000000   0.0000000   0.0000000
 NMagM=    0.0000000   0.0000000   2.7928460   2.7928460   2.7928460   2.7928460   2.7928460   2.7928460
 AtZNuc=   6.0000000   6.0000000   1.0000000   1.0000000   1.0000000   1.0000000   1.0000000   1.0000000
 Leave Link  101 at Mon Mar 21 20:07:08 2022, MaxMem=  8589934592 cpu:               0.6 elap:               0.1
 (Enter /home/sabyasachi/g16/l202.exe)
                          Input orientation:                          
 ---------------------------------------------------------------------
 Center     Atomic      Atomic             Coordinates (Angstroms)
 Number     Number       Type             X           Y           Z
 ---------------------------------------------------------------------
      1          6           0        0.000000    0.000000    0.761397
      2          6           0        0.000000    0.000000   -0.761397
      3          1           0        0.000000    1.017110    1.157248
      4          1           0        0.880843   -0.508555    1.157248
      5          1           0       -0.880843   -0.508555    1.157248
      6          1           0        0.880843    0.508555   -1.157248
      7          1           0       -0.880843    0.508555   -1.157248
      8          1           0        0.000000   -1.017110   -1.157248
 ---------------------------------------------------------------------
                    Distance matrix (angstroms):
                    1          2          3          4          5
     1  C    0.000000
     2  C    1.522794   0.000000
     3  H    1.091426   2.171569   0.000000
     4  H    1.091426   2.171569   1.761686   0.000000
     5  H    1.091426   2.171569   1.761686   1.761686   0.000000
     6  H    2.171569   1.091426   2.528123   2.528123   3.081386
     7  H    2.171569   1.091426   2.528123   3.081386   2.528123
     8  H    2.171569   1.091426   3.081386   2.528123   2.528123
                    6          7          8
     6  H    0.000000
     7  H    1.761686   0.000000
     8  H    1.761686   1.761686   0.000000
 Stoichiometry    C2H6
 Framework group  D3D[C3(C.C),3SGD(H2)]
 Deg. of freedom     3
 Full point group                 D3D     NOp  12
 Largest Abelian subgroup         C2H     NOp   4
 Largest concise Abelian subgroup C2H     NOp   4
                         Standard orientation:                         
 ---------------------------------------------------------------------
 Center     Atomic      Atomic             Coordinates (Angstroms)
 Number     Number       Type             X           Y           Z
 ---------------------------------------------------------------------
      1          6           0        0.000000    0.000000    0.761397
      2          6           0       -0.000000   -0.000000   -0.761397
      3          1           0        0.000000    1.017110    1.157248
      4          1           0        0.880843   -0.508555    1.157248
      5          1           0       -0.880843   -0.508555    1.157248
      6          1           0        0.880843    0.508555   -1.157248
      7          1           0       -0.880843    0.508555   -1.157248
      8          1           0       -0.000000   -1.017110   -1.157248
 ---------------------------------------------------------------------
 Rotational constants (GHZ):          80.7876467          20.1030278          20.1030278
 Leave Link  202 at Mon Mar 21 20:07:08 2022, MaxMem=  8589934592 cpu:               0.1 elap:               0.0
 (Enter /home/sabyasachi/g16/l301.exe)
 General basis read from cards:  (5D, 7F)
 Centers:       3      4      5      6      7      8
 S 3 1.00
     Exponent=  1.3010701000D+01 Coefficients=  1.9682158000D-02
     Exponent=  1.9622572000D+00 Coefficients=  1.3796524000D-01
     Exponent=  4.4453796000D-01 Coefficients=  4.7831935000D-01
 S 1 1.00
     Exponent=  1.2194962000D-01 Coefficients=  1.0000000000D+00
 P 1 1.00
     Exponent=  8.0000000000D-01 Coefficients=  1.0000000000D+00
 P 1 1.00
     Exponent=  1.1704099050D-01 Coefficients=  1.0000000000D+00
 ****
 Centers:       1      2
 S 5 1.00
     Exponent=  1.2384016938D+03 Coefficients=  5.4568832082D-03
     Exponent=  1.8629004992D+02 Coefficients=  4.0638409211D-02
     Exponent=  4.2251176346D+01 Coefficients=  1.8025593888D-01
     Exponent=  1.1676557932D+01 Coefficients=  4.6315121755D-01
     Exponent=  3.5930506482D+00 Coefficients=  4.4087173314D-01
 S 1 1.00
     Exponent=  4.0245147363D-01 Coefficients=  1.0000000000D+00
 S 1 1.00
     Exponent=  1.3090182668D-01 Coefficients=  1.0000000000D+00
 S 1 1.00
     Exponent=  6.7053540256D-02 Coefficients=  1.0000000000D+00
 P 3 1.00
     Exponent=  9.4680970621D+00 Coefficients=  3.8387871728D-02
     Exponent=  2.0103545142D+00 Coefficients=  2.1117025112D-01
     Exponent=  5.4771004707D-01 Coefficients=  5.1328172114D-01
 P 1 1.00
     Exponent=  1.5268613795D-01 Coefficients=  1.0000000000D+00
 D 1 1.00
     Exponent=  8.0000000000D-01 Coefficients=  1.0000000000D+00
 D 1 1.00
     Exponent=  1.1713185140D-01 Coefficients=  1.0000000000D+00
 ****
 Ernie: Thresh=  0.10000D-02 Tol=  0.10000D-05 Strict=F.
 There are    30 symmetry adapted cartesian basis functions of AG  symmetry.
 There are    16 symmetry adapted cartesian basis functions of BG  symmetry.
 There are    16 symmetry adapted cartesian basis functions of AU  symmetry.
 There are    30 symmetry adapted cartesian basis functions of BU  symmetry.
 There are    28 symmetry adapted basis functions of AG  symmetry.
 There are    16 symmetry adapted basis functions of BG  symmetry.
 There are    16 symmetry adapted basis functions of AU  symmetry.
 There are    28 symmetry adapted basis functions of BU  symmetry.
    88 basis functions,   124 primitive gaussians,    92 cartesian basis functions
     9 alpha electrons        9 beta electrons
       nuclear repulsion energy        42.3107446799 Hartrees.
 IExCor=10402 DFT=T Ex=LC-B+HF Corr=LYP ExCW=0 ScaHFX=  1.000000
 ScaDFX=  1.000000  1.000000  1.000000  1.000000 ScalE2=  1.000000  1.000000
 IRadAn=      5 IRanWt=     -1 IRanGd=            0 ICorTp=0 IEmpDi=  4
 HFx  wShort=  0.000000 wLong=  0.470000 cFull=  0.000000 cShort=  0.000000 cLong=  1.000000
 DFx  wShort=  0.000000 wLong=  0.470000 cFull=  0.000000 cShort=  0.000000 cLong=  1.000000
 NAtoms=    8 NActive=    8 NUniq=    2 SFac= 4.00D+00 NAtFMM=   60 NAOKFM=F Big=F
 Integral buffers will be    131072 words long.
 Raffenetti 1 integral format.
 Two-electron integral symmetry is turned on.
 Leave Link  301 at Mon Mar 21 20:07:08 2022, MaxMem=  8589934592 cpu:               0.5 elap:               0.1
 (Enter /home/sabyasachi/g16/l302.exe)
 NPDir=0 NMtPBC=     1 NCelOv=     1 NCel=       1 NClECP=     1 NCelD=      1
         NCelK=      1 NCelE2=     1 NClLst=     1 CellRange=     0.0.
 One-electron integrals computed using PRISM.
 One-electron integral symmetry used in STVInt
 NBasis=    88 RedAO= T EigKep=  3.75D-04  NBF=    28    16    16    28
 NBsUse=    88 1.00D-06 EigRej= -1.00D+00 NBFU=    28    16    16    28
 Precomputing XC quadrature grid using
 IXCGrd= 4 IRadAn=           5 IRanWt=          -1 IRanGd=           0 AccXCQ= 0.00D+00.
 Generated NRdTot=       0 NPtTot=           0 NUsed=           0 NTot=          32
 NSgBfM=    92    92    92    92    92 MxSgAt=     8 MxSgA2=     8.
 Leave Link  302 at Mon Mar 21 20:07:09 2022, MaxMem=  8589934592 cpu:               1.0 elap:               0.1
 (Enter /home/sabyasachi/g16/l303.exe)
 DipDrv:  MaxL=1.
 Leave Link  303 at Mon Mar 21 20:07:09 2022, MaxMem=  8589934592 cpu:               0.2 elap:               0.0
 (Enter /home/sabyasachi/g16/l308.exe)
 Leave Link  308 at Mon Mar 21 20:07:09 2022, MaxMem=  8589934592 cpu:               0.2 elap:               0.0
 (Enter /home/sabyasachi/g16/l401.exe)
 ExpMin= 6.71D-02 ExpMax= 1.24D+03 ExpMxC= 1.86D+02 IAcc=3 IRadAn=         5 AccDes= 0.00D+00
 Harris functional with IExCor=10402 and IRadAn=       5 diagonalized for initial guess.
 HarFok:  IExCor=10402 AccDes= 0.00D+00 IRadAn=         5 IDoV= 1 UseB2=F ITyADJ=14
 ICtDFT=  3500011 ScaDFX=  1.000000  1.000000  1.000000  1.000000
 FoFCou: FMM=F IPFlag=           0 FMFlag=      100000 FMFlg1=           0
         NFxFlg=           0 DoJE=T BraDBF=F KetDBF=T FulRan=T
         wScrn=  0.000000 ICntrl=       500 IOpCl=  0 I1Cent=   200000004 NGrid=           0
         NMat0=    1 NMatS0=      1 NMatT0=    0 NMatD0=    1 NMtDS0=    0 NMtDT0=    0
 Petite list used in FoFCou.
 Harris En= -75.6203715691056    
 JPrj=0 DoOrth=F DoCkMO=F.
 Initial guess orbital symmetries:
       Occupied  (A2U) (A1G) (A1G) (A2U) (EU) (EU) (A1G) (EG) (EG)
       Virtual   (A1G) (A2U) (EU) (EU) (EG) (EG) (A1G) (EG) (EG)
                 (A2U) (EU) (EU) (EU) (EU) (A2U) (A1G) (A1U) (A2U)
                 (EG) (EG) (EU) (EU) (A1G) (A2U) (EG) (EG) (A2G)
                 (A1G) (EG) (EG) (EU) (EU) (EG) (EG) (A2U) (EU)
                 (EU) (A1G) (A2U) (A1G) (EG) (EG) (EU) (EU) (A2U)
                 (EU) (EU) (A1G) (EG) (EG) (A2U) (EU) (EU) (EG)
                 (EG) (A1U) (A2G) (A1G) (EU) (EU) (EU) (EU) (EG)
                 (EG) (A2U) (EG) (EG) (A1G) (A2U) (EU) (EU) (EG)
                 (EG) (A1G) (A2U) (EG) (EG) (EU) (EU)
 The electronic state of the initial guess is 1-A1G.
 Leave Link  401 at Mon Mar 21 20:07:09 2022, MaxMem=  8589934592 cpu:               1.4 elap:               0.2
 (Enter /home/sabyasachi/g16/l502.exe)
 Keep R1 ints in memory in symmetry-blocked form, NReq=23049068.
 FoFCou: FMM=F IPFlag=           0 FMFlag=           0 FMFlg1=           0
         NFxFlg=           0 DoJE=F BraDBF=F KetDBF=F FulRan=T
         wScrn=  0.000000 ICntrl=       600 IOpCl=  0 I1Cent=           0 NGrid=           0
         NMat0=    1 NMatS0=   3916 NMatT0=    0 NMatD0=    1 NMtDS0=    0 NMtDT0=    0
 Petite list used in FoFCou.
 Closed shell SCF:
 Using DIIS extrapolation, IDIIS=  1040.
 NGot=  8589934592 LenX=  8587972308 LenY=  8587963403
 Requested convergence on RMS density matrix=1.00D-08 within 100 cycles.
 Requested convergence on MAX density matrix=1.00D-06.
 Requested convergence on             energy=1.00D-06.
 No special actions if energy rises.
 Integral accuracy reduced to 1.0D-05 until final iterations.

 Cycle   1  Pass 0  IDiag  1:
 E= -79.4457272289768    
 DIIS: error= 2.90D-02 at cycle   1 NSaved=   1.
 NSaved= 1 IEnMin= 1 EnMin= -79.4457272289768     IErMin= 1 ErrMin= 2.90D-02
 ErrMax= 2.90D-02  0.00D+00 EMaxC= 1.00D-01 BMatC= 5.37D-02 BMatP= 5.37D-02
 IDIUse=3 WtCom= 7.10D-01 WtEn= 2.90D-01
 Coeff-Com:  0.100D+01
 Coeff-En:   0.100D+01
 Coeff:      0.100D+01
 Gap=     0.492 Goal=   None    Shift=    0.000
 GapD=    0.492 DampG=2.000 DampE=0.500 DampFc=1.0000 IDamp=-1.
 RMSDP=6.26D-03 MaxDP=1.34D-01              OVMax= 8.53D-02

 Cycle   2  Pass 0  IDiag  1:
 E= -79.4783753948215     Delta-E=       -0.032648165845 Rises=F Damp=F
 DIIS: error= 2.20D-02 at cycle   2 NSaved=   2.
 NSaved= 2 IEnMin= 2 EnMin= -79.4783753948215     IErMin= 2 ErrMin= 2.20D-02
 ErrMax= 2.20D-02  0.00D+00 EMaxC= 1.00D-01 BMatC= 2.36D-02 BMatP= 5.37D-02
 IDIUse=3 WtCom= 7.80D-01 WtEn= 2.20D-01
 Coeff-Com:  0.395D+00 0.605D+00
 Coeff-En:   0.214D+00 0.786D+00
 Coeff:      0.355D+00 0.645D+00
 Gap=     0.554 Goal=   None    Shift=    0.000
 RMSDP=2.45D-03 MaxDP=4.58D-02 DE=-3.26D-02 OVMax= 4.18D-02

 Cycle   3  Pass 0  IDiag  1:
 E= -79.5021031922070     Delta-E=       -0.023727797385 Rises=F Damp=F
 DIIS: error= 1.74D-03 at cycle   3 NSaved=   3.
 NSaved= 3 IEnMin= 3 EnMin= -79.5021031922070     IErMin= 3 ErrMin= 1.74D-03
 ErrMax= 1.74D-03  0.00D+00 EMaxC= 1.00D-01 BMatC= 2.49D-04 BMatP= 2.36D-02
 IDIUse=3 WtCom= 9.83D-01 WtEn= 1.74D-02
 Coeff-Com: -0.176D-01 0.608D-01 0.957D+00
 Coeff-En:   0.000D+00 0.000D+00 0.100D+01
 Coeff:     -0.173D-01 0.597D-01 0.958D+00
 Gap=     0.551 Goal=   None    Shift=    0.000
 RMSDP=3.65D-04 MaxDP=4.32D-03 DE=-2.37D-02 OVMax= 5.09D-03

 Cycle   4  Pass 0  IDiag  1:
 E= -79.5023973023301     Delta-E=       -0.000294110123 Rises=F Damp=F
 DIIS: error= 3.73D-04 at cycle   4 NSaved=   4.
 NSaved= 4 IEnMin= 4 EnMin= -79.5023973023301     IErMin= 4 ErrMin= 3.73D-04
 ErrMax= 3.73D-04  0.00D+00 EMaxC= 1.00D-01 BMatC= 3.22D-06 BMatP= 2.49D-04
 IDIUse=3 WtCom= 9.96D-01 WtEn= 3.73D-03
 Coeff-Com: -0.148D-01-0.261D-01-0.249D-01 0.107D+01
 Coeff-En:   0.000D+00 0.000D+00 0.000D+00 0.100D+01
 Coeff:     -0.148D-01-0.260D-01-0.248D-01 0.107D+01
 Gap=     0.551 Goal=   None    Shift=    0.000
 RMSDP=1.21D-04 MaxDP=1.35D-03 DE=-2.94D-04 OVMax= 1.50D-03

 Cycle   5  Pass 0  IDiag  1:
 E= -79.5024054672721     Delta-E=       -0.000008164942 Rises=F Damp=F
 DIIS: error= 4.19D-05 at cycle   5 NSaved=   5.
 NSaved= 5 IEnMin= 5 EnMin= -79.5024054672721     IErMin= 5 ErrMin= 4.19D-05
 ErrMax= 4.19D-05  0.00D+00 EMaxC= 1.00D-01 BMatC= 7.36D-08 BMatP= 3.22D-06
 IDIUse=1 WtCom= 1.00D+00 WtEn= 0.00D+00
 Coeff-Com:  0.184D-02 0.655D-03-0.233D-01-0.106D+00 0.113D+01
 Coeff:      0.184D-02 0.655D-03-0.233D-01-0.106D+00 0.113D+01
 Gap=     0.551 Goal=   None    Shift=    0.000
 RMSDP=1.55D-05 MaxDP=1.73D-04 DE=-8.16D-06 OVMax= 2.47D-04

 Cycle   6  Pass 0  IDiag  1:
 E= -79.5024056992194     Delta-E=       -0.000000231947 Rises=F Damp=F
 DIIS: error= 7.20D-06 at cycle   6 NSaved=   6.
 NSaved= 6 IEnMin= 6 EnMin= -79.5024056992194     IErMin= 6 ErrMin= 7.20D-06
 ErrMax= 7.20D-06  0.00D+00 EMaxC= 1.00D-01 BMatC= 2.16D-09 BMatP= 7.36D-08
 IDIUse=1 WtCom= 1.00D+00 WtEn= 0.00D+00
 Coeff-Com: -0.220D-03 0.107D-03 0.640D-02 0.150D-01-0.336D+00 0.132D+01
 Coeff:     -0.220D-03 0.107D-03 0.640D-02 0.150D-01-0.336D+00 0.132D+01
 Gap=     0.551 Goal=   None    Shift=    0.000
 RMSDP=2.44D-06 MaxDP=2.14D-05 DE=-2.32D-07 OVMax= 4.20D-05

 Initial convergence to 1.0D-05 achieved.  Increase integral accuracy.
 Cycle   7  Pass 1  IDiag  1:
 E= -79.5024048737969     Delta-E=        0.000000825423 Rises=F Damp=F
 DIIS: error= 6.32D-07 at cycle   1 NSaved=   1.
 NSaved= 1 IEnMin= 1 EnMin= -79.5024048737969     IErMin= 1 ErrMin= 6.32D-07
 ErrMax= 6.32D-07  0.00D+00 EMaxC= 1.00D-01 BMatC= 1.92D-11 BMatP= 1.92D-11
 IDIUse=1 WtCom= 1.00D+00 WtEn= 0.00D+00
 Coeff-Com:  0.100D+01
 Coeff:      0.100D+01
 Gap=     0.551 Goal=   None    Shift=    0.000
 RMSDP=2.44D-06 MaxDP=2.14D-05 DE= 8.25D-07 OVMax= 1.85D-06

 Cycle   8  Pass 1  IDiag  1:
 E= -79.5024048738345     Delta-E=       -0.000000000038 Rises=F Damp=F
 DIIS: error= 1.79D-07 at cycle   2 NSaved=   2.
 NSaved= 2 IEnMin= 2 EnMin= -79.5024048738345     IErMin= 2 ErrMin= 1.79D-07
 ErrMax= 1.79D-07  0.00D+00 EMaxC= 1.00D-01 BMatC= 1.26D-12 BMatP= 1.92D-11
 IDIUse=1 WtCom= 1.00D+00 WtEn= 0.00D+00
 Coeff-Com: -0.141D+00 0.114D+01
 Coeff:     -0.141D+00 0.114D+01
 Gap=     0.551 Goal=   None    Shift=    0.000
 RMSDP=1.51D-07 MaxDP=1.83D-06 DE=-3.76D-11 OVMax= 8.15D-07

 Cycle   9  Pass 1  IDiag  1:
 E= -79.5024048738391     Delta-E=       -0.000000000005 Rises=F Damp=F
 DIIS: error= 7.79D-08 at cycle   3 NSaved=   3.
 NSaved= 3 IEnMin= 3 EnMin= -79.5024048738391     IErMin= 3 ErrMin= 7.79D-08
 ErrMax= 7.79D-08  0.00D+00 EMaxC= 1.00D-01 BMatC= 4.00D-13 BMatP= 1.26D-12
 IDIUse=1 WtCom= 1.00D+00 WtEn= 0.00D+00
 Coeff-Com: -0.107D+00 0.428D+00 0.678D+00
 Coeff:     -0.107D+00 0.428D+00 0.678D+00
 Gap=     0.551 Goal=   None    Shift=    0.000
 RMSDP=1.52D-08 MaxDP=1.97D-07 DE=-4.60D-12 OVMax= 1.66D-07

 Cycle  10  Pass 1  IDiag  1:
 E= -79.5024048738387     Delta-E=        0.000000000000 Rises=F Damp=F
 DIIS: error= 1.86D-08 at cycle   4 NSaved=   4.
 NSaved= 4 IEnMin= 3 EnMin= -79.5024048738391     IErMin= 4 ErrMin= 1.86D-08
 ErrMax= 1.86D-08  0.00D+00 EMaxC= 1.00D-01 BMatC= 5.45D-15 BMatP= 4.00D-13
 IDIUse=1 WtCom= 1.00D+00 WtEn= 0.00D+00
 Coeff-Com:  0.203D-01-0.122D+00-0.126D+00 0.123D+01
 Coeff:      0.203D-01-0.122D+00-0.126D+00 0.123D+01
 Gap=     0.551 Goal=   None    Shift=    0.000
 RMSDP=2.79D-09 MaxDP=2.32D-08 DE= 3.98D-13 OVMax= 8.33D-08

 SCF Done:  E(RLC-B+HF-LYP) =  -79.5024048738     A.U. after   10 cycles
            NFock= 10  Conv=0.28D-08     -V/T= 2.0127
 KE= 7.850188355021D+01 PE=-2.677742945510D+02 EE= 6.745926144706D+01
 Leave Link  502 at Mon Mar 21 20:07:09 2022, MaxMem=  8589934592 cpu:               5.1 elap:               0.7
 (Enter /home/sabyasachi/g16/l801.exe)
 DoSCS=F DFT=T ScalE2(SS,OS)=  1.000000  1.000000
 ExpMin= 6.71D-02 ExpMax= 1.24D+03 ExpMxC= 1.86D+02 IAcc=3 IRadAn=         5 AccDes= 0.00D+00
 HarFok:  IExCor=  205 AccDes= 0.00D+00 IRadAn=         5 IDoV=-2 UseB2=F ITyADJ=14
 ICtDFT= 12500011 ScaDFX=  1.000000  1.000000  1.000000  1.000000
 Largest valence mixing into a core orbital is  6.38D-05
 Largest core mixing into a valence orbital is  5.71D-06
 Range of M.O.s used for correlation:     3    88
 NBasis=    88 NAE=     9 NBE=     9 NFC=     2 NFV=     0
 NROrb=     86 NOA=     7 NOB=     7 NVA=    79 NVB=    79

 **** Warning!!: The largest alpha MO coefficient is  0.24562183D+02

 Leave Link  801 at Mon Mar 21 20:07:10 2022, MaxMem=  8589934592 cpu:               0.6 elap:               0.1
 (Enter /home/sabyasachi/g16/l914.exe)
 RHF ground state
 Keep R1, R2, and R3 ints in memory in symmetry-blocked form, NReq=412280856.
 FoFCou: FMM=F IPFlag=           0 FMFlag=           0 FMFlg1=           0
         NFxFlg=           0 DoJE=F BraDBF=F KetDBF=F FulRan=T
         wScrn=  0.000000 ICntrl=       600 IOpCl=  0 I1Cent=           0 NGrid=           0
         NMat0=    1 NMatS0=   3916 NMatT0=    0 NMatD0=    1 NMtDS0=    0 NMtDT0=    0
 Petite list used in FoFCou.
 MDV=  8589934592 DFT=T DoStab=F Mixed=T DoRPA=T DoScal=F NonHer=T
 Making orbital integer symmetry assigments:
 Orbital symmetries:
       Occupied  (A1G) (A2U) (A1G) (A2U) (EU) (EU) (A1G) (EG) (EG)
       Virtual   (A1G) (A2U) (EU) (EU) (EG) (EG) (A1G) (EG) (EG)
                 (EU) (EU) (A2U) (EU) (EU) (A2U) (A1U) (A1G) (A2U)
                 (A1G) (EG) (EG) (EU) (EU) (EG) (EG) (A2G) (A2U)
                 (A1G) (EG) (EG) (EU) (EU) (EG) (EG) (A2U) (EU)
                 (EU) (A1G) (A2U) (A1G) (EG) (EG) (EU) (EU) (A2U)
                 (EU) (EU) (A1G) (EG) (EG) (A2U) (EU) (EU) (EG)
                 (EG) (A1U) (A2G) (EU) (EU) (A1G) (EU) (EU) (EG)
                 (EG) (A2U) (EG) (EG) (A1G) (EU) (EU) (A2U) (EG)
                 (EG) (A1G) (A2U) (EG) (EG) (EU) (EU)
   553 initial guesses have been made.
 Convergence on wavefunction:    0.001000000000000
 Davidson Disk Diagonalization:  ConvIn= 1.00D-03 SkipCon=T Conv= 1.00D-03.
 Max sub-space:  3318 roots to seek:  1106 dimension of matrix:         1106
 *** WARNING: Number of orthogonal guesses is          553
 Iteration     1 Dimension   553 NMult     0 NNew    553
 CISAX will form   553 AO SS matrices at one time.
 NMat=   553 NSing=   553 JSym2X=-1.
 New state      1 was old state      2
 New state      2 was old state      1
 New state      3 was old state      5
 New state      4 was old state      3
 New state      5 was old state      4
 New state      7 was old state      8
 New state      8 was old state      7
 New state     10 was old state     12
 New state     11 was old state     10
 New state     12 was old state     13
 New state     13 was old state     11
 New state     15 was old state     17
 New state     16 was old state     18
 New state     17 was old state     23
 New state     18 was old state     24
 New state     19 was old state     20
 New state     20 was old state     19
 New state     21 was old state     15
 New state     22 was old state     16
 New state     23 was old state     27
 New state     24 was old state     26
 New state     25 was old state     28
 New state     26 was old state     34
 New state     27 was old state     29
 New state     28 was old state     36
 New state     29 was old state     37
 New state     30 was old state     35
 New state     31 was old state     21
 New state     32 was old state     22
 New state     33 was old state     47
 New state     34 was old state     46
 New state     35 was old state     31
 New state     36 was old state     30
 New state     37 was old state     25
 New state     38 was old state     48
 New state     39 was old state     50
 New state     40 was old state     52
 New state     41 was old state     43
 New state     42 was old state     39
 New state     43 was old state     38
 New state     44 was old state     40
 New state     45 was old state     44
 New state     46 was old state     45
 New state     47 was old state     41
 New state     48 was old state     49
 New state     49 was old state     55
 New state     50 was old state     51
 New state     51 was old state     33
 New state     52 was old state     42
 New state     55 was old state     59
 New state     56 was old state     60
 New state     57 was old state     67
 New state     58 was old state     68
 New state     59 was old state     64
 New state     60 was old state     57
 New state     61 was old state     58
 New state     62 was old state     74
 New state     63 was old state     56
 New state     64 was old state     61
 New state     65 was old state     62
 New state     66 was old state     65
 New state     67 was old state     63
 New state     68 was old state     66
 New state     69 was old state     73
 New state     70 was old state     72
 New state     72 was old state     70
 New state     73 was old state     69
 New state     74 was old state    121
 New state     75 was old state     79
 New state     76 was old state     81
 New state     77 was old state     76
 New state     79 was old state     80
 New state     80 was old state     77
 New state     81 was old state     82
 New state     82 was old state     83
 New state     83 was old state     75
 New state     84 was old state     87
 New state     85 was old state     91
 New state     86 was old state     85
 New state     87 was old state     84
 New state     88 was old state    104
 New state     89 was old state    105
 New state     90 was old state     93
 New state     91 was old state     92
 New state     92 was old state     86
 New state     93 was old state     88
 New state     94 was old state     89
 New state     95 was old state     90
 New state     96 was old state    117
 New state     97 was old state    116
 New state     98 was old state     96
 New state     99 was old state    102
 New state    100 was old state    103
 New state    101 was old state    109
 New state    102 was old state    108
 New state    103 was old state    111
 New state    104 was old state    110
 New state    105 was old state     97
 New state    106 was old state     94
 New state    107 was old state     95
 New state    108 was old state    100
 New state    109 was old state     98
 New state    110 was old state     99
 New state    111 was old state    101
 New state    112 was old state    107
 New state    113 was old state    106
 New state    114 was old state    119
 New state    115 was old state    118
 New state    116 was old state    125
 New state    117 was old state    115
 New state    118 was old state    114
 New state    119 was old state    144
 New state    120 was old state    112
 New state    121 was old state    113
 New state    122 was old state    120
 New state    123 was old state    126
 New state    124 was old state    127
 New state    125 was old state    141
 New state    126 was old state    134
 New state    127 was old state    123
 New state    128 was old state    122
 New state    129 was old state    131
 New state    131 was old state    124
 New state    132 was old state    149
 New state    133 was old state    147
 New state    134 was old state    132
 New state    135 was old state    145
 New state    136 was old state    146
 New state    137 was old state    173
 New state    138 was old state    174
 New state    139 was old state    128
 New state    140 was old state    129
 New state    141 was old state    148
 New state    142 was old state    151
 New state    143 was old state    156
 New state    144 was old state    137
 New state    145 was old state    139
 New state    146 was old state    157
 New state    147 was old state    159
 New state    148 was old state    154
 New state    149 was old state    161
 New state    150 was old state    162
 New state    151 was old state    160
 New state    152 was old state    153
 New state    153 was old state    152
 New state    154 was old state    140
 New state    155 was old state    142
 New state    156 was old state    155
 New state    157 was old state    171
 New state    158 was old state    172
 New state    159 was old state    166
 New state    160 was old state    165
 New state    161 was old state    169
 New state    162 was old state    170
 New state    163 was old state    158
 New state    164 was old state    133
 New state    165 was old state    150
 New state    166 was old state    135
 New state    167 was old state    143
 New state    168 was old state    180
 New state    169 was old state    163
 New state    170 was old state    164
 New state    171 was old state    181
 New state    172 was old state    167
 New state    173 was old state    168
 New state    174 was old state    175
 New state    175 was old state    176
 New state    176 was old state    182
 New state    177 was old state    183
 New state    178 was old state    187
 New state    179 was old state    186
 New state    180 was old state    178
 New state    181 was old state    239
 New state    182 was old state    240
 New state    183 was old state    177
 New state    184 was old state    185
 New state    185 was old state    184
 New state    186 was old state    189
 New state    187 was old state    190
 New state    188 was old state    191
 New state    189 was old state    188
 New state    190 was old state    192
 New state    191 was old state    202
 New state    192 was old state    196
 New state    193 was old state    203
 New state    194 was old state    197
 New state    196 was old state    193
 New state    197 was old state    201
 New state    198 was old state    208
 New state    199 was old state    200
 New state    200 was old state    205
 New state    201 was old state    194
 New state    202 was old state    204
 New state    203 was old state    199
 New state    204 was old state    198
 New state    205 was old state    210
 New state    206 was old state    209
 New state    207 was old state    217
 New state    208 was old state    214
 New state    209 was old state    207
 New state    210 was old state    206
 New state    211 was old state    212
 New state    212 was old state    213
 New state    213 was old state    215
 New state    214 was old state    216
 New state    215 was old state    223
 New state    216 was old state    218
 New state    217 was old state    219
 New state    218 was old state    220
 New state    219 was old state    211
 New state    220 was old state    227
 New state    223 was old state    226
 New state    225 was old state    242
 New state    226 was old state    225
 New state    227 was old state    230
 New state    228 was old state    229
 New state    229 was old state    251
 New state    230 was old state    228
 New state    235 was old state    247
 New state    236 was old state    246
 New state    237 was old state    236
 New state    238 was old state    235
 New state    239 was old state    245
 New state    240 was old state    244
 New state    241 was old state    238
 New state    242 was old state    237
 New state    243 was old state    253
 New state    244 was old state    243
 New state    245 was old state    252
 New state    246 was old state    256
 New state    247 was old state    248
 New state    248 was old state    249
 New state    249 was old state    269
 New state    250 was old state    254
 New state    251 was old state    241
 No map to state    252
 No map to state    253
 New state    254 was old state    250
 New state    255 was old state    282
 New state    256 was old state    260
 New state    257 was old state    259
 New state    258 was old state    267
 New state    259 was old state    270
 New state    260 was old state    285
 New state    261 was old state    266
 New state    262 was old state    268
 New state    263 was old state    271
 New state    264 was old state    255
 New state    265 was old state    257
 New state    266 was old state    258
 New state    267 was old state    274
 New state    268 was old state    273
 New state    269 was old state    262
 New state    270 was old state    261
 New state    271 was old state    263
 New state    272 was old state    264
 New state    273 was old state    280
 New state    274 was old state    275
 New state    275 was old state    276
 New state    276 was old state    279
 New state    277 was old state    281
 New state    278 was old state    284
 New state    279 was old state    283
 New state    280 was old state    272
 New state    281 was old state    277
 New state    282 was old state    278
 New state    283 was old state    265
 New state    284 was old state    291
 New state    285 was old state    292
 New state    286 was old state    293
 New state    287 was old state    288
 New state    288 was old state    290
 New state    290 was old state    287
 New state    291 was old state    286
 New state    292 was old state    296
 New state    293 was old state    298
 New state    294 was old state    299
 New state    296 was old state    297
 New state    297 was old state    294
 New state    298 was old state    300
 New state    299 was old state    303
 New state    300 was old state    301
 No map to state    301
 New state    302 was old state    304
 New state    303 was old state    302
 New state    304 was old state    309
 New state    305 was old state    308
 New state    306 was old state    317
 New state    307 was old state    306
 New state    308 was old state    307
 New state    309 was old state    314
 New state    310 was old state    312
 New state    311 was old state    305
 New state    312 was old state    311
 New state    314 was old state    310
 New state    317 was old state    320
 New state    318 was old state    325
 New state    319 was old state    324
 New state    320 was old state    322
 New state    321 was old state    323
 New state    322 was old state    333
 New state    323 was old state    321
 New state    324 was old state    319
 New state    325 was old state    318
 New state    327 was old state    329
 New state    328 was old state    330
 New state    329 was old state    337
 New state    330 was old state    328
 New state    331 was old state    327
 New state    333 was old state    335
 New state    334 was old state    336
 New state    335 was old state    334
 New state    336 was old state    343
 New state    337 was old state    331
 New state    338 was old state    339
 New state    339 was old state    338
 New state    343 was old state    344
 New state    344 was old state    345
 New state    345 was old state    348
 No map to state    348
 New state    349 was old state    350
 New state    350 was old state    349
 New state    351 was old state    352
 New state    352 was old state    351
 New state    354 was old state    356
 New state    355 was old state    364
 New state    356 was old state    363
 New state    357 was old state    354
 New state    358 was old state    361
 New state    359 was old state    355
 New state    360 was old state    368
 New state    361 was old state    367
 New state    362 was old state    358
 New state    363 was old state    357
 New state    364 was old state    362
 New state    365 was old state    360
 New state    366 was old state    359
 New state    367 was old state    365
 New state    368 was old state    366
 New state    369 was old state    370
 New state    370 was old state    369
 New state    371 was old state    376
 New state    372 was old state    375
 New state    374 was old state    372
 New state    375 was old state    374
 New state    376 was old state    371
 New state    377 was old state    382
 New state    378 was old state    383
 New state    379 was old state    377
 New state    380 was old state    379
 New state    381 was old state    380
 New state    382 was old state    378
 New state    383 was old state    381
 New state    388 was old state    392
 New state    389 was old state    393
 New state    390 was old state    388
 New state    391 was old state    389
 New state    392 was old state    390
 New state    393 was old state    391
 New state    394 was old state    397
 New state    395 was old state    396
 New state    396 was old state    395
 New state    397 was old state    394
 New state    399 was old state    400
 New state    400 was old state    399
 New state    401 was old state    410
 New state    402 was old state    409
 New state    403 was old state    404
 New state    404 was old state    402
 New state    405 was old state    401
 New state    406 was old state    403
 New state    407 was old state    406
 New state    409 was old state    407
 New state    410 was old state    405
 New state    412 was old state    414
 New state    414 was old state    412
 New state    415 was old state    417
 New state    416 was old state    418
 New state    417 was old state    416
 New state    418 was old state    415
 New state    419 was old state    421
 New state    420 was old state    422
 New state    421 was old state    420
 New state    422 was old state    419
 New state    425 was old state    427
 New state    427 was old state    425
 New state    429 was old state    431
 New state    430 was old state    432
 New state    431 was old state    429
 New state    432 was old state    430
 New state    434 was old state    437
 New state    437 was old state    434
 New state    441 was old state    442
 New state    442 was old state    443
 New state    443 was old state    444
 New state    444 was old state    441
 New state    445 was old state    446
 New state    446 was old state    445
 New state    447 was old state    448
 New state    448 was old state    447
 New state    451 was old state    452
 New state    452 was old state    451
 New state    453 was old state    455
 New state    454 was old state    459
 New state    455 was old state    454
 New state    456 was old state    453
 New state    457 was old state    458
 New state    458 was old state    460
 New state    459 was old state    461
 New state    460 was old state    462
 New state    461 was old state    456
 New state    462 was old state    457
 New state    463 was old state    464
 New state    464 was old state    463
 New state    465 was old state    466
 New state    466 was old state    465
 New state    467 was old state    468
 New state    468 was old state    469
 New state    469 was old state    467
 New state    472 was old state    474
 New state    473 was old state    475
 New state    474 was old state    473
 New state    475 was old state    472
 New state    478 was old state    480
 New state    480 was old state    478
 New state    481 was old state    485
 New state    482 was old state    481
 New state    483 was old state    484
 New state    484 was old state    486
 New state    485 was old state    483
 New state    486 was old state    488
 New state    488 was old state    495
 New state    489 was old state    496
 New state    490 was old state    482
 New state    491 was old state    494
 New state    492 was old state    493
 New state    493 was old state    490
 New state    494 was old state    492
 New state    495 was old state    491
 New state    496 was old state    489
 New state    497 was old state    499
 New state    498 was old state    497
 New state    499 was old state    498
 New state    501 was old state    503
 New state    503 was old state    501
 New state    505 was old state    506
 New state    506 was old state    505
 New state    508 was old state    509
 New state    509 was old state    508
 New state    510 was old state    511
 New state    511 was old state    510
 New state    512 was old state    516
 New state    514 was old state    512
 New state    515 was old state    517
 New state    516 was old state    514
 New state    517 was old state    515
 New state    518 was old state    522
 New state    519 was old state    521
 New state    521 was old state    528
 New state    522 was old state    527
 New state    523 was old state    519
 New state    525 was old state    523
 New state    526 was old state    518
 New state    527 was old state    526
 New state    528 was old state    525
 New state    529 was old state    531
 New state    530 was old state    529
 New state    531 was old state    530
 New state    533 was old state    538
 New state    534 was old state    537
 New state    535 was old state    539
 New state    536 was old state    534
 New state    537 was old state    533
 New state    538 was old state    535
 New state    539 was old state    536
 New state    540 was old state    542
 New state    541 was old state    543
 New state    542 was old state    540
 New state    543 was old state    541
 New state    545 was old state    546
 New state    546 was old state    545
 New state    548 was old state    549
 New state    549 was old state    548
 New state    550 was old state    551
 New state    551 was old state    550
 New state    552 was old state    553
 New state    553 was old state    552
 Excitation Energies [eV] at current iteration:
 Root      1 :     9.660713308491935
 Root      2 :     9.660713333918952
 Root      3 :    10.594433403720130
 Root      4 :    10.668555284415820
 Root      5 :    10.668555478537950
 Root      6 :    11.653697227190140
 Root      7 :    11.748741192125440
 Root      8 :    11.748742045326390
 Root      9 :    11.789662263879830
 Root     10 :    11.939198193001930
 Root     11 :    12.100832019812210
 Root     12 :    12.209006578153690
 Root     13 :    12.209007542570680
 Root     14 :    12.237603549783040
 Root     15 :    12.542233557122830
 Root     16 :    12.542233606638100
 Root     17 :    12.608386598106190
 Root     18 :    12.608386661410620
 Root     19 :    12.678482059113300
 Root     20 :    12.678482124257200
 Root     21 :    12.716563728774670
 Root     22 :    12.716564490645360
 Root     23 :    13.335433348820300
 Root     24 :    13.398878333984960
 Root     25 :    13.398878853151920
 Root     26 :    13.683720470893950
 Root     27 :    13.864186145424480
 Root     28 :    14.024504930474120
 Root     29 :    14.024506931234960
 Root     30 :    14.299511265672660
 Root     31 :    14.300022759560170
 Root     32 :    14.300023239677640
 Root     33 :    14.324132427341810
 Root     34 :    14.324134173144970
 Root     35 :    14.473158920310600
 Root     36 :    14.473158975868720
 Root     37 :    14.544528128995780
 Root     38 :    14.791463904859850
 Root     39 :    14.817865609818010
 Root     40 :    14.817866062158710
 Root     41 :    15.096360276596950
 Root     42 :    15.110033346924280
 Root     43 :    15.126283822956640
 Root     44 :    15.126284147284900
 Root     45 :    15.354740950507860
 Root     46 :    15.354741546460660
 Root     47 :    15.645225581848290
 Root     48 :    15.673527629173410
 Root     49 :    15.697056439282380
 Root     50 :    15.810477311408910
 Root     51 :    15.810478218193520
 Root     52 :    16.031144002089240
 Root     53 :    16.224948522054280
 Root     54 :    16.224948749037100
 Root     55 :    16.597063683152880
 Root     56 :    16.597063845234600
 Root     57 :    16.828420057905540
 Root     58 :    16.828420735461250
 Root     59 :    16.895424764235120
 Root     60 :    17.024186659780360
 Root     61 :    17.024191721404190
 Root     62 :    17.083020792772190
 Root     63 :    17.084312559197800
 Root     64 :    17.099079242421010
 Root     65 :    17.099079598094480
 Root     66 :    17.207692413833000
 Root     67 :    17.207693582499820
 Root     68 :    17.215700794023910
 Root     69 :    17.736313607816800
 Root     70 :    17.736313645146530
 Root     71 :    17.846976379012640
 Root     72 :    17.846979892365810
 Root     73 :    17.929955361697930
 Root     74 :    18.288059949059400
 Root     75 :    18.506365161449830
 Root     76 :    18.529922931673130
 Root     77 :    18.552098822414560
 Root     78 :    18.552099322294020
 Root     79 :    18.646429922144880
 Root     80 :    18.718511399775460
 Root     81 :    18.945514605471070
 Root     82 :    18.945514636274690
 Root     83 :    19.008745593054880
 Root     84 :    19.011141115409850
 Root     85 :    19.161285377796880
 Root     86 :    19.204143562065010
 Root     87 :    19.204143593080990
 Root     88 :    19.300749127800560
 Root     89 :    19.300751213367080
 Root     90 :    19.354012259161980
 Root     91 :    19.354012486088240
 Root     92 :    19.464627280799570
 Root     93 :    19.509822889429720
 Root     94 :    19.509823812575210
 Root     95 :    19.518853207007460
 Root     96 :    19.563292209038620
 Root     97 :    19.563292332797920
 Root     98 :    19.829473065838020
 Root     99 :    19.996104754142190
 Root    100 :    19.996105151215740
 Root    101 :    20.029438666567980
 Root    102 :    20.029438706703120
 Root    103 :    20.108643705638090
 Root    104 :    20.108648112919000
 Root    105 :    20.117309153832930
 Root    106 :    20.179008337009140
 Root    107 :    20.179008649936820
 Root    108 :    20.264557917203030
 Root    109 :    20.264558315273840
 Root    110 :    20.326536318651620
 Root    111 :    20.338471154427060
 Root    112 :    20.504609531614060
 Root    113 :    20.504609980133980
 Root    114 :    20.856823237617300
 Root    115 :    20.856823979157560
 Root    116 :    20.915081676485290
 Root    117 :    21.165335001794530
 Root    118 :    21.165336596410150
 Root    119 :    21.350519879782190
 Root    120 :    21.485909097463440
 Root    121 :    21.485909753155590
 Root    122 :    21.506451755261280
 Root    123 :    21.678243170632700
 Root    124 :    21.678244516651390
 Root    125 :    21.726218078472070
 Root    126 :    21.773046900371560
 Root    127 :    21.818650425953760
 Root    128 :    21.818650484479560
 Root    129 :    21.821402912822030
 Root    130 :    21.821403830301180
 Root    131 :    21.972149821936370
 Root    132 :    22.031674185599480
 Root    133 :    22.031675522831710
 Root    134 :    22.282523300868890
 Root    135 :    22.319786699002800
 Root    136 :    22.319786740747980
 Root    137 :    22.347797432351700
 Root    138 :    22.347798365486530
 Root    139 :    22.349079738066160
 Root    140 :    22.349080810053280
 Root    141 :    22.352954396827610
 Root    142 :    22.417306377974630
 Root    143 :    22.527948151805790
 Root    144 :    22.558113911638630
 Root    145 :    22.662281425100840
 Root    146 :    22.724087904839530
 Root    147 :    22.724088177502250
 Root    148 :    22.731504630221310
 Root    149 :    22.735474061713630
 Root    150 :    22.735474648594440
 Root    151 :    22.854266920514220
 Root    152 :    22.855186374390100
 Root    153 :    22.855186559464130
 Root    154 :    22.878483525538400
 Root    155 :    22.878483550322930
 Root    156 :    23.130071693073590
 Root    157 :    23.145866406704810
 Root    158 :    23.145868702812510
 Root    159 :    23.166765858048920
 Root    160 :    23.166766077438870
 Root    161 :    23.208511342944380
 Root    162 :    23.208511349515310
 Root    163 :    23.284230572229800
 Root    164 :    23.362625606426600
 Root    165 :    23.362625969875900
 Root    166 :    23.385932767495240
 Root    167 :    23.633204596545410
 Root    168 :    23.718916958691680
 Root    169 :    23.734625140784070
 Root    170 :    23.734625685302760
 Root    171 :    23.821626600053210
 Root    172 :    24.003274702404980
 Root    173 :    24.003276070756580
 Root    174 :    24.058930593429500
 Root    175 :    24.058931090135110
 Root    176 :    24.086474704726960
 Root    177 :    24.086474726220610
 Root    178 :    24.261369967909670
 Root    179 :    24.261370114984300
 Root    180 :    24.327910903693390
 Root    181 :    24.640956383149290
 Root    182 :    24.640956595335850
 Root    183 :    24.679672901200710
 Root    184 :    24.903890811202430
 Root    185 :    24.903891201906340
 Root    186 :    25.236702046959380
 Root    187 :    25.236703042526340
 Root    188 :    25.312515428762030
 Root    189 :    25.365683644331020
 Root    190 :    25.372102984300890
 Root    191 :    25.372104103281110
 Root    192 :    25.514199576616940
 Root    193 :    25.527615401346540
 Root    194 :    25.554589231417730
 Root    195 :    25.554589860215280
 Root    196 :    25.652626281597810
 Root    197 :    25.713684121586620
 Root    198 :    25.760786990375350
 Root    199 :    25.760790511561360
 Root    200 :    25.832810583945290
 Root    201 :    25.835650651692200
 Root    202 :    26.089914417209430
 Root    203 :    26.212593513238750
 Root    204 :    26.212593553851090
 Root    205 :    26.249665335278150
 Root    206 :    26.262790900267480
 Root    207 :    26.262790958924000
 Root    208 :    26.772579928920070
 Root    209 :    26.849481099341650
 Root    210 :    26.849481369172960
 Root    211 :    26.862127380691870
 Root    212 :    27.003313832691440
 Root    213 :    27.003315078623040
 Root    214 :    27.178786977670130
 Root    215 :    27.314169034706110
 Root    216 :    27.314169195885700
 Root    217 :    27.390984296092910
 Root    218 :    27.390984348713210
 Root    219 :    27.534557067163020
 Root    220 :    27.715084393925660
 Root    221 :    27.966105406037930
 Root    222 :    27.966105416507610
 Root    223 :    28.388889574880430
 Root    224 :    28.444387903654570
 Root    225 :    28.444388301237620
 Root    226 :    28.664756925060960
 Root    227 :    29.280682892942820
 Root    228 :    30.155205523211950
 Root    229 :    30.285577674341980
 Root    230 :    30.312696100633240
 Root    231 :    30.389334382993730
 Root    232 :    30.389334394551210
 Root    233 :    30.537115958017990
 Root    234 :    30.537116095952490
 Root    235 :    30.879494209440570
 Root    236 :    30.879494312925890
 Root    237 :    30.920860404451860
 Root    238 :    30.920860544958370
 Root    239 :    31.123365044428460
 Root    240 :    31.123365252441380
 Root    241 :    31.328641673934160
 Root    242 :    31.415094185878580
 Root    243 :    31.606999332538660
 Root    244 :    31.606999421789510
 Root    245 :    32.007811907320910
 Root    246 :    32.158550199570750
 Root    247 :    32.179405282942760
 Root    248 :    32.179405304058730
 Root    249 :    32.290872266930410
 Root    250 :    32.290872806711810
 Root    251 :    32.296741655930900
 Root    252 :    32.522832351284470
 Root    253 :    32.522832672013550
 Root    254 :    32.988747861024650
 Root    255 :    33.270923706097610
 Root    256 :    33.766566256976870
 Root    257 :    33.766566288659920
 Root    258 :    33.909813495238190
 Root    259 :    33.924973349639180
 Root    260 :    33.924973391431880
 Root    261 :    34.117304133345770
 Root    262 :    34.117304657928240
 Root    263 :    34.264705466250780
 Root    264 :    34.356133358095160
 Root    265 :    34.392602622646050
 Root    266 :    34.392602842856480
 Root    267 :    34.650442806994330
 Root    268 :    34.650442870093650
 Root    269 :    34.657702105172030
 Root    270 :    34.657702244305930
 Root    271 :    34.890539848085620
 Root    272 :    34.890539887606270
 Root    273 :    35.374786130621760
 Root    274 :    35.377880569480010
 Root    275 :    35.377880900522190
 Root    276 :    35.383926389032630
 Root    277 :    35.383926928178950
 Root    278 :    35.752583192811810
 Root    279 :    35.752583630982760
 Root    280 :    35.987704665668360
 Root    281 :    36.014711326888500
 Root    282 :    36.014711388506800
 Root    283 :    36.093154694164480
 Root    284 :    36.213697107498420
 Root    285 :    36.213697251148030
 Root    286 :    36.369166909688000
 Root    287 :    37.252552528283040
 Root    288 :    37.301712932288390
 Root    289 :    37.301713036449390
 Root    290 :    37.400347841621510
 Root    291 :    37.488557448097150
 Root    292 :    37.488559272745430
 Root    293 :    37.973656576361530
 Root    294 :    37.973656639305230
 Root    295 :    38.059392179876060
 Root    296 :    38.227098936380400
 Root    297 :    38.261707894774710
 Root    298 :    38.261710069450560
 Root    299 :    38.741034446836280
 Root    300 :    38.829155098650150
 Root    301 :    38.829155669459450
 Root    302 :    38.840164650387990
 Root    303 :    38.840166210794020
 Root    304 :    38.868367617881030
 Root    305 :    39.038323331340230
 Root    306 :    39.793471347730720
 Root    307 :    39.832674288150230
 Root    308 :    39.832674813294300
 Root    309 :    39.988800999837960
 Root    310 :    40.563629464652630
 Root    311 :    40.873799801980550
 Root    312 :    40.927416447805560
 Root    313 :    40.927417555897700
 Root    314 :    41.148768785537680
 Root    315 :    41.241369088416570
 Root    316 :    41.241369379574750
 Root    317 :    42.137019666899500
 Root    318 :    42.149272689287910
 Root    319 :    42.149272776518370
 Root    320 :    42.280633075094970
 Root    321 :    42.280633083416650
 Root    322 :    42.372575985575750
 Root    323 :    42.378178029692990
 Root    324 :    42.435332232372720
 Root    325 :    42.435332380130970
 Root    326 :    42.961332023454670
 Root    327 :    43.901494113024750
 Root    328 :    43.901494713042890
 Root    329 :    44.256636041496770
 Root    330 :    44.294391691691110
 Root    331 :    44.294392321743030
 Root    332 :    44.610151627902520
 Root    333 :    44.645981895679440
 Root    334 :    45.022079142619230
 Root    335 :    45.022079492377150
 Root    336 :    45.035936635881840
 Root    337 :    45.262874626212910
 Root    338 :    45.904944779473990
 Root    339 :    45.904945107321280
 Root    340 :    46.137193012552590
 Root    341 :    46.568099223150240
 Root    342 :    46.568099680675250
 Root    343 :    46.930754662981870
 Root    344 :    46.930755983980530
 Root    345 :    47.397637364207310
 Root    346 :    47.857514834954650
 Root    347 :    47.857514883410990
 Root    348 :    48.688018781365660
 Root    349 :    49.751750031622310
 Root    350 :    49.751750341818870
 Root    351 :    50.451927343914630
 Root    352 :    50.451927392702430
 Root    353 :    50.618713914202190
 Root    354 :    51.985578278968070
 Root    355 :    52.276870222685570
 Root    356 :    52.276870589031030
 Root    357 :    52.438502497828440
 Root    358 :    52.577701257429350
 Root    359 :    52.606197192007760
 Root    360 :    52.909795146939430
 Root    361 :    52.909795380754910
 Root    362 :    53.292851765554120
 Root    363 :    53.292851774490280
 Root    364 :    53.482320176199310
 Root    365 :    53.653527663157380
 Root    366 :    53.653527777006890
 Root    367 :    53.765186487712220
 Root    368 :    53.765186609588650
 Root    369 :    55.271626016372720
 Root    370 :    55.271626415082910
 Root    371 :    55.442194727208800
 Root    372 :    55.442194906925000
 Root    373 :    55.497484057622780
 Root    374 :    55.690929433059790
 Root    375 :    55.690929765129050
 Root    376 :    55.727043045840610
 Root    377 :    55.732066797509750
 Root    378 :    55.935550238485440
 Root    379 :    55.952976936329560
 Root    380 :    56.094434669721440
 Root    381 :    56.338628514222420
 Root    382 :    56.338629345424840
 Root    383 :    56.403321952463400
 Root    384 :    58.933442314997060
 Root    385 :    58.933442460947710
 Root    386 :    59.085445654993360
 Root    387 :    59.085445703660340
 Root    388 :    59.713678685340780
 Root    389 :    59.713678727848990
 Root    390 :    59.966492635676050
 Root    391 :    59.966493020585070
 Root    392 :    60.023035591918000
 Root    393 :    60.050025579273310
 Root    394 :    60.347037634050800
 Root    395 :    60.347037840957550
 Root    396 :    60.557767341573740
 Root    397 :    60.557767446312670
 Root    398 :    60.775358706806640
 Root    399 :    61.256471289865960
 Root    400 :    61.256471555653750
 Root    401 :    62.284859809585260
 Root    402 :    62.284860148619640
 Root    403 :    62.365346856759860
 Root    404 :    62.365347316563240
 Root    405 :    62.424274395456200
 Root    406 :    62.426044614316960
 Root    407 :    62.545869079787350
 Root    408 :    62.560916419137480
 Root    409 :    62.560916825338290
 Root    410 :    62.684293609062760
 Root    411 :    63.331286412626530
 Root    412 :    63.452667691762140
 Root    413 :    63.452668146717580
 Root    414 :    63.465420205361950
 Root    415 :    63.944215004160160
 Root    416 :    64.029007358183290
 Root    417 :    64.029007515946290
 Root    418 :    64.424711855251360
 Root    419 :    64.458028229222560
 Root    420 :    64.458028237895190
 Root    421 :    64.547165859492980
 Root    422 :    64.547165976753620
 Root    423 :    65.118826268335600
 Root    424 :    65.118826364188850
 Root    425 :    66.026507202273320
 Root    426 :    66.090059821428850
 Root    427 :    66.090060262991600
 Root    428 :    66.363138151598050
 Root    429 :    67.285035455720600
 Root    430 :    67.296554413522570
 Root    431 :    67.471782632586670
 Root    432 :    67.471783067117740
 Root    433 :    67.783555082644900
 Root    434 :    67.808424403277950
 Root    435 :    67.905757727123120
 Root    436 :    67.905757848595700
 Root    437 :    67.965125055578740
 Root    438 :    68.570480896195680
 Root    439 :    68.570481139834670
 Root    440 :    69.177690388086010
 Root    441 :    69.826958124414920
 Root    442 :    69.948879211676000
 Root    443 :    69.948879226432850
 Root    444 :    70.123019533009970
 Root    445 :    70.291729944797720
 Root    446 :    70.291729979813270
 Root    447 :    70.771438424499960
 Root    448 :    70.771438439998690
 Root    449 :    70.932801534995590
 Root    450 :    70.932801618157630
 Root    451 :    71.120427673371400
 Root    452 :    71.120427869149510
 Root    453 :    71.449119753954160
 Root    454 :    72.403664134868040
 Root    455 :    72.512919530883820
 Root    456 :    72.512919568092410
 Root    457 :    72.712501241429960
 Root    458 :    72.712501371785310
 Root    459 :    72.764076230103540
 Root    460 :    72.854558917899030
 Root    461 :    72.910575966258080
 Root    462 :    72.910575977119480
 Root    463 :    74.900217877328030
 Root    464 :    74.900217974935790
 Root    465 :    75.016181154595370
 Root    466 :    75.016181467374140
 Root    467 :    76.255472766265830
 Root    468 :    76.255472788550320
 Root    469 :    76.669506676773320
 Root    470 :    77.318138514819670
 Root    471 :    77.318138605227940
 Root    472 :    77.774445611639860
 Root    473 :    77.946336761536200
 Root    474 :    78.056273907713530
 Root    475 :    78.056273967008650
 Root    476 :    78.276689806066410
 Root    477 :    78.276689984195120
 Root    478 :    78.280082474198650
 Root    479 :    78.928073339084780
 Root    480 :    78.928073394726540
 Root    481 :    79.626467702109540
 Root    482 :    79.695106869983630
 Root    483 :    79.977461202780940
 Root    484 :    79.977461490105310
 Root    485 :    80.217189388723000
 Root    486 :    80.648602209709310
 Root    487 :    80.648602477622210
 Root    488 :    81.063873693975520
 Root    489 :    81.063873893336690
 Root    490 :    81.404807358655300
 Root    491 :    81.543100665960440
 Root    492 :    81.543100717749870
 Root    493 :    81.723115275494410
 Root    494 :    81.787124082141450
 Root    495 :    81.857908273026210
 Root    496 :    81.857908541840130
 Root    497 :    83.625701019505700
 Root    498 :    83.829550044090880
 Root    499 :    83.829550106303320
 Root    500 :    83.838713484633620
 Root    501 :    83.910099757323520
 Root    502 :    84.456820915115760
 Root    503 :    84.456821229784710
 Root    504 :    84.761614500532130
 Root    505 :    86.070954216469050
 Root    506 :    86.070954354296570
 Root    507 :    86.613700712198200
 Root    508 :    86.753917717256160
 Root    509 :    86.753917994871400
 Root    510 :    88.355632172001360
 Root    511 :    88.355632232569900
 Root    512 :    89.730518772965720
 Root    513 :    90.048801569265760
 Root    514 :    90.048801587966680
 Root    515 :    90.076418179693320
 Root    516 :    90.251220603172730
 Root    517 :    90.251220621390810
 Root    518 :    91.968943026850040
 Root    519 :    91.968943285394540
 Root    520 :    92.030737108091930
 Root    521 :    92.308501494127870
 Root    522 :    92.308501911328650
 Root    523 :    92.416350680055700
 Root    524 :    92.434561996040590
 Root    525 :    92.434562099940980
 Root    526 :    92.736145996589600
 Root    527 :    92.753975139691290
 Root    528 :    92.753975319520620
 Root    529 :    93.454173430750590
 Root    530 :    93.571519538701480
 Root    531 :    93.571519831717710
 Root    532 :    93.873731203397310
 Root    533 :    94.436394209278870
 Root    534 :    94.436395216036630
 Root    535 :    95.770941283079080
 Root    536 :    96.041513278605000
 Root    537 :    96.041513446242250
 Root    538 :    96.045611973888610
 Root    539 :    96.080686733022790
 Root    540 :    97.427952512296340
 Root    541 :    97.537709202743020
 Root    542 :    97.551397854351950
 Root    543 :    97.551398289763800
 Root    544 :    98.328590995423100
 Root    545 :   100.235875208189900
 Root    546 :   100.235875875824200
 Root    547 :   101.347585895888100
 Root    548 :   101.840927442613700
 Root    549 :   101.840927899495700
 Root    550 :   104.671404385475700
 Root    551 :   104.671404536998800
 Root    552 :   106.322752947360100
 Root    553 :   106.322754072892800
 Convergence achieved for final wavefunctions.
 ***********************************************************************
 Excited states from <AA,BB:AA,BB> singles matrix:
 ***********************************************************************
 
 1PDM for each excited state written to RWF  633
 Ground to excited state transition densities written to RWF  633
 Ground to excited state transition electric dipole moments (Au):
       state          X           Y           Z        Dip. S.      Osc.
         1        -0.0000      0.0000     -0.0000      0.0000      0.0000
         2         0.0000      0.0000      0.0000      0.0000      0.0000
         3        -0.0000     -0.0000      0.0000      0.0000      0.0000
         4        -0.8047     -0.0000      0.0000      0.6476      0.1693
         5         0.0000     -0.8047      0.0000      0.6476      0.1693
         6        -0.0000     -0.0000     -1.1850      1.4042      0.4009
         7        -0.5107     -0.0000      0.0000      0.2608      0.0751
         8         0.0000     -0.5107      0.0000      0.2608      0.0751
         9        -0.0000     -0.0000     -0.0000      0.0000      0.0000
        10         0.0000      0.0000     -0.0000      0.0000      0.0000
        11        -0.0000     -0.0000      0.7879      0.6209      0.1841
        12         0.0000     -0.0000     -0.0000      0.0000      0.0000
        13        -0.0000      0.0000      0.0000      0.0000      0.0000
        14        -0.0000     -0.0000      0.0000      0.0000      0.0000
        15         0.3238      0.0000      0.0000      0.1048      0.0322
        16         0.0000      0.3238     -0.0000      0.1048      0.0322
        17        -0.0000      0.0000     -0.0000      0.0000      0.0000
        18         0.0000     -0.0000     -0.0000      0.0000      0.0000
        19         0.0000     -0.0000      0.0000      0.0000      0.0000
        20         0.0000      0.0000      0.0000      0.0000      0.0000
        21        -0.5669     -0.0000     -0.0000      0.3214      0.1001
        22         0.0000     -0.5669      0.0000      0.3214      0.1001
        23         0.0000     -0.0000      0.0000      0.0000      0.0000
        24        -0.0000      0.0000      0.0000      0.0000      0.0000
        25        -0.0000     -0.0000     -0.0000      0.0000      0.0000
        26         0.0000     -0.0000      0.0000      0.0000      0.0000
        27         0.0000     -0.0000      0.0000      0.0000      0.0000
        28         0.2184      0.0000     -0.0000      0.0477      0.0164
        29        -0.0000      0.2184     -0.0000      0.0477      0.0164
        30         0.0000     -0.0000     -0.7587      0.5756      0.2017
        31        -0.0000     -0.0000      0.0000      0.0000      0.0000
        32         0.0000     -0.0000     -0.0000      0.0000      0.0000
        33        -0.0000      0.8339     -0.0000      0.6953      0.2440
        34         0.8339      0.0000      0.0000      0.6953      0.2440
        35        -0.0000     -0.0000      0.0000      0.0000      0.0000
        36         0.0000      0.0000      0.0000      0.0000      0.0000
        37         0.0000     -0.0000      0.0000      0.0000      0.0000
        38         0.0000     -0.0000     -0.3021      0.0913      0.0331
        39        -0.0000     -0.0059     -0.0000      0.0000      0.0000
        40        -0.0059      0.0000      0.0000      0.0000      0.0000
        41        -0.0000     -0.0000      0.0000      0.0000      0.0000
        42         0.0000      0.0000      0.0000      0.0000      0.0000
        43         0.0000     -0.0000      0.0000      0.0000      0.0000
        44         0.0000      0.0000      0.0000      0.0000      0.0000
        45        -1.3047      0.0000      0.0000      1.7022      0.6403
        46         0.0000      1.3047      0.0000      1.7022      0.6403
        47        -0.0000     -0.0000      0.0000      0.0000      0.0000
        48         0.0000      0.0000     -0.0000      0.0000      0.0000
        49         0.0000      0.0000      1.4914      2.2244      0.8554
        50         0.0000     -0.4407      0.0000      0.1942      0.0752
        51         0.4407      0.0000      0.0000      0.1942      0.0752
        52        -0.0000     -0.0000      0.5430      0.2949      0.1158
        53         0.1469      0.0000      0.0000      0.0216      0.0086
        54        -0.0000      0.1469      0.0000      0.0216      0.0086
        55         0.0000      0.6797     -0.0000      0.4619      0.1878
        56         0.6797     -0.0000      0.0000      0.4619      0.1878
        57        -0.0000      0.0000      0.0000      0.0000      0.0000
        58         0.0000     -0.0000     -0.0000      0.0000      0.0000
        59        -0.0000     -0.0000      0.0000      0.0000      0.0000
        60         0.0882     -0.0000      0.0000      0.0078      0.0032
        61         0.0000      0.0882     -0.0000      0.0078      0.0032
        62         0.0000     -0.0000     -0.0540      0.0029      0.0012
        63         0.0000      0.0000     -0.0000      0.0000      0.0000
        64         0.3523      0.0000     -0.0000      0.1241      0.0520
        65        -0.0000      0.3523     -0.0000      0.1241      0.0520
        66         0.0000     -0.0000      0.0000      0.0000      0.0000
        67        -0.0000      0.0000      0.0000      0.0000      0.0000
        68        -0.0000     -0.0000     -0.0000      0.0000      0.0000
        69         0.0000      0.0000      0.0000      0.0000      0.0000
        70        -0.0000      0.0000     -0.0000      0.0000      0.0000
        71        -0.1442      0.0000      0.0000      0.0208      0.0091
        72         0.0000      0.1442      0.0000      0.0208      0.0091
        73        -0.0000      0.0000     -0.6548      0.4288      0.1883
        74         0.0000     -0.0000      0.6123      0.3749      0.1680
        75         0.0000     -0.0000      0.0000      0.0000      0.0000
        76         0.0000     -0.0000     -0.0000      0.0000      0.0000
        77        -0.0000     -0.0000     -0.0000      0.0000      0.0000
        78        -0.0000     -0.0000     -0.0000      0.0000      0.0000
        79        -0.0000      0.0000      0.0000      0.0000      0.0000
        80        -0.0000     -0.0000     -0.0000      0.0000      0.0000
        81         0.6385      0.0000     -0.0000      0.4077      0.1892
        82        -0.0000      0.6385     -0.0000      0.4077      0.1892
        83        -0.0000     -0.0000     -0.0000      0.0000      0.0000
        84        -0.0000     -0.0000      0.0000      0.0000      0.0000
        85        -0.0000      0.0000      0.0000      0.0000      0.0000
        86         0.0000      0.0000     -0.0000      0.0000      0.0000
        87         0.0000     -0.0000      0.0000      0.0000      0.0000
        88         0.0000      0.0000      0.0000      0.0000      0.0000
        89        -0.0000      0.0000     -0.0000      0.0000      0.0000
        90        -0.0000      0.5168      0.0000      0.2671      0.1267
        91         0.5168      0.0000      0.0000      0.2671      0.1267
        92         0.0000      0.0000     -0.0000      0.0000      0.0000
        93        -0.0000      0.0000      0.0000      0.0000      0.0000
        94        -0.0000      0.0000      0.0000      0.0000      0.0000
        95         0.0000     -0.0000     -0.8106      0.6571      0.3142
        96        -0.0000      0.1054     -0.0000      0.0111      0.0053
        97         0.1054      0.0000     -0.0000      0.0111      0.0053
        98         0.0000      0.0000      0.1396      0.0195      0.0095
        99         0.0000      0.0000      0.0000      0.0000      0.0000
       100        -0.0000     -0.0000      0.0000      0.0000      0.0000
       101         0.0000     -0.4443     -0.0000      0.1974      0.0969
       102        -0.4443     -0.0000     -0.0000      0.1974      0.0969
       103        -0.0000     -0.0000     -0.0000      0.0000      0.0000
       104        -0.0000     -0.0000     -0.0000      0.0000      0.0000
       105        -0.0000      0.0000      0.0000      0.0000      0.0000
       106         0.0000      0.0000      0.0000      0.0000      0.0000
       107         0.0000      0.0000      0.0000      0.0000      0.0000
       108         0.0000      0.0000     -0.0000      0.0000      0.0000
       109        -0.0000     -0.0000     -0.0000      0.0000      0.0000
       110        -0.0000      0.0000      0.0000      0.0000      0.0000
       111        -0.0000      0.0000      0.0000      0.0000      0.0000
       112         0.0000     -0.1201     -0.0000      0.0144      0.0072
       113        -0.1201     -0.0000     -0.0000      0.0144      0.0072
       114        -0.0000     -0.0000      0.0000      0.0000      0.0000
       115        -0.0000      0.0000     -0.0000      0.0000      0.0000
       116        -0.0000     -0.0000      0.2119      0.0449      0.0230
       117        -0.0000      0.2098      0.0000      0.0440      0.0228
       118         0.2097      0.0000      0.0000      0.0440      0.0228
       119        -0.0000      0.0000     -0.4719      0.2227      0.1165
       120        -0.0000      0.0000     -0.0000      0.0000      0.0000
       121        -0.0000      0.0000     -0.0000      0.0000      0.0000
       122        -0.0000     -0.0000     -0.0000      0.0000      0.0000
       123         0.0000     -0.0000     -0.0000      0.0000      0.0000
       124         0.0000      0.0000     -0.0000      0.0000      0.0000
       125         0.0000      0.0000     -0.0000      0.0000      0.0000
       126         0.0000      0.0000     -0.0000      0.0000      0.0000
       127        -0.0000      0.3975     -0.0000      0.1580      0.0845
       128         0.3975      0.0000     -0.0000      0.1580      0.0845
       129         0.0000     -0.0000     -0.0000      0.0000      0.0000
       130        -0.0000     -0.0000     -0.0000      0.0000      0.0000
       131         0.0000     -0.0000     -0.0000      0.0000      0.0000
       132         0.1819     -0.0000      0.0000      0.0331      0.0179
       133         0.0000      0.1819      0.0000      0.0331      0.0179
       134         0.0000      0.0000      0.3225      0.1040      0.0568
       135         0.0000     -0.0000     -0.0000      0.0000      0.0000
       136        -0.0000     -0.0000     -0.0000      0.0000      0.0000
       137         0.0000      0.0000     -0.0000      0.0000      0.0000
       138         0.0000     -0.0000     -0.0000      0.0000      0.0000
       139         0.0079     -0.0000     -0.0000      0.0001      0.0000
       140         0.0000      0.0079      0.0000      0.0001      0.0000
       141        -0.0000     -0.0000      0.0000      0.0000      0.0000
       142        -0.0000     -0.0000      0.0000      0.0000      0.0000
       143        -0.0000     -0.0000      0.1804      0.0326      0.0180
       144        -0.0000     -0.0000     -0.0000      0.0000      0.0000
       145        -0.0000      0.0000      0.0000      0.0000      0.0000
       146        -0.5822     -0.0000      0.0000      0.3390      0.1887
       147         0.0000     -0.5822     -0.0000      0.3390      0.1887
       148         0.0000     -0.0000     -0.0000      0.0000      0.0000
       149         0.0000      0.0000      0.0000      0.0000      0.0000
       150         0.0000      0.0000     -0.0000      0.0000      0.0000
       151         0.0000      0.0000     -0.0000      0.0000      0.0000
       152         0.0000      0.0000     -0.0000      0.0000      0.0000
       153        -0.0000      0.0000     -0.0000      0.0000      0.0000
       154         0.0000      0.0000     -0.0000      0.0000      0.0000
       155         0.0000      0.0000     -0.0000      0.0000      0.0000
       156         0.0000     -0.0000      0.0000      0.0000      0.0000
       157        -0.0000     -0.0000     -0.0000      0.0000      0.0000
       158        -0.0000     -0.0000     -0.0000      0.0000      0.0000
       159        -0.0000      0.2506      0.0000      0.0628      0.0356
       160         0.2506      0.0000      0.0000      0.0628      0.0356
       161        -0.0000      0.0000      0.0000      0.0000      0.0000
       162        -0.0000      0.0000      0.0000      0.0000      0.0000
       163         0.0000     -0.0000     -0.0000      0.0000      0.0000
       164        -0.2130     -0.0000      0.0000      0.0454      0.0260
       165        -0.0000      0.2130      0.0000      0.0454      0.0260
       166        -0.0000      0.0000     -0.1421      0.0202      0.0116
       167        -0.0000     -0.0000     -0.0000      0.0000      0.0000
       168        -0.0000      0.0000     -0.0000      0.0000      0.0000
       169         0.0000     -0.1299      0.0000      0.0169      0.0098
       170         0.1299      0.0000      0.0000      0.0169      0.0098
       171         0.0000     -0.0000      0.0998      0.0100      0.0058
       172        -0.5113      0.0000      0.0000      0.2614      0.1537
       173        -0.0000     -0.5113     -0.0000      0.2614      0.1537
       174         0.2028     -0.0000      0.0000      0.0411      0.0242
       175         0.0000      0.2028     -0.0000      0.0411      0.0242
       176        -0.0000      0.0000      0.0000      0.0000      0.0000
       177         0.0000      0.0000     -0.0000      0.0000      0.0000
       178        -0.0000      0.0432      0.0000      0.0019      0.0011
       179         0.0432      0.0000      0.0000      0.0019      0.0011
       180         0.0000      0.0000     -0.9230      0.8520      0.5078
       181        -0.0000      0.0000     -0.0000      0.0000      0.0000
       182        -0.0000      0.0000     -0.0000      0.0000      0.0000
       183         0.0000      0.0000     -0.4165      0.1735      0.1049
       184         0.0000     -0.5903     -0.0000      0.3484      0.2126
       185        -0.5903     -0.0000     -0.0000      0.3484      0.2126
       186         0.0000     -0.3940     -0.0000      0.1553      0.0960
       187        -0.3940     -0.0000     -0.0000      0.1553      0.0960
       188         0.0000     -0.0000     -0.0000      0.0000      0.0000
       189        -0.0000      0.0000     -0.0000      0.0000      0.0000
       190         0.0000     -0.6654      0.0000      0.4428      0.2752
       191        -0.6654     -0.0000      0.0000      0.4428      0.2752
       192         0.0000     -0.0000     -0.0000      0.0000      0.0000
       193        -0.0000      0.0000      0.2476      0.0613      0.0384
       194        -0.0000      0.0000      0.0000      0.0000      0.0000
       195         0.0000      0.0000      0.0000      0.0000      0.0000
       196        -0.0000     -0.0000      0.0000      0.0000      0.0000
       197         0.0000      0.0000     -0.0000      0.0000      0.0000
       198         0.3012     -0.0000     -0.0000      0.0908      0.0573
       199         0.0000      0.3012     -0.0000      0.0908      0.0573
       200         0.0000      0.0000     -0.0135      0.0002      0.0001
       201         0.0000     -0.0000     -0.0000      0.0000      0.0000
       202        -0.0000     -0.0000      0.0000      0.0000      0.0000
       203         0.0000      0.0000     -0.0000      0.0000      0.0000
       204        -0.0000      0.0000     -0.0000      0.0000      0.0000
       205         0.0000     -0.0000      0.1545      0.0239      0.0154
       206        -0.0000      0.1652      0.0000      0.0273      0.0176
       207         0.1652      0.0000     -0.0000      0.0273      0.0176
       208        -0.0000      0.0000      0.0000      0.0000      0.0000
       209        -0.0000      0.0000     -0.0000      0.0000      0.0000
[...]
      8   0.000000D+00  0.000000D+00  0.000000D+00 -0.266236D-01  0.000000D+00
      9   0.000000D+00  0.000000D+00  0.266236D-01  0.000000D+00  0.000000D+00
     10   0.394274D+00  0.000000D+00  0.000000D+00  0.000000D+00  0.000000D+00
     11   0.000000D+00  0.000000D+00  0.000000D+00 -0.210891D+00  0.369000D+00
     12   0.000000D+00  0.000000D+00  0.000000D+00  0.210890D+00  0.369000D+00
     13   0.000000D+00  0.000000D+00  0.000000D+00  0.000000D+00  0.133402D+00
     14   0.000000D+00  0.000000D+00 -0.210890D+00  0.000000D+00  0.000000D+00
     15   0.000000D+00  0.000000D+00  0.263689D+00  0.000000D+00  0.000000D+00
     16   0.000000D+00  0.000000D+00  0.000000D+00  0.263689D+00  0.000000D+00
               486           487           488           489           490 
      1  -0.765386D+02 -0.765386D+02 -0.765234D+02 -0.765234D+02 -0.765108D+02
      2   0.000000D+00  0.000000D+00  0.000000D+00  0.000000D+00  0.000000D+00
      3   0.000000D+00  0.000000D+00  0.000000D+00  0.000000D+00  0.000000D+00
      4   0.000000D+00  0.000000D+00  0.000000D+00  0.000000D+00 -0.370983D-01
      5   0.000000D+00  0.000000D+00  0.000000D+00  0.000000D+00  0.000000D+00
      6   0.000000D+00  0.000000D+00  0.000000D+00  0.000000D+00  0.000000D+00
      7   0.000000D+00  0.000000D+00  0.000000D+00  0.000000D+00  0.414591D-01
      8  -0.825324D-01  0.000000D+00  0.000000D+00  0.253794D+00  0.000000D+00
      9   0.000000D+00  0.825323D-01 -0.253794D+00  0.000000D+00  0.000000D+00
     10   0.000000D+00  0.000000D+00  0.000000D+00  0.000000D+00  0.000000D+00
     11  -0.431937D+00  0.000000D+00  0.000000D+00  0.225000D+00  0.000000D+00
     12   0.431937D+00  0.000000D+00  0.000000D+00 -0.225000D+00  0.000000D+00
     13   0.000000D+00  0.000000D+00  0.000000D+00  0.000000D+00  0.000000D+00
     14   0.000000D+00 -0.431937D+00  0.225000D+00  0.000000D+00  0.000000D+00
     15   0.000000D+00 -0.154039D+00 -0.645801D-01  0.000000D+00  0.000000D+00
     16  -0.154039D+00  0.000000D+00  0.000000D+00 -0.645803D-01  0.000000D+00
               491           492           493           494           495 
      1  -0.765058D+02 -0.765058D+02 -0.764991D+02 -0.764968D+02 -0.764942D+02
      2   0.000000D+00  0.000000D+00  0.000000D+00  0.000000D+00  0.000000D+00
      3   0.000000D+00  0.000000D+00  0.000000D+00  0.000000D+00  0.000000D+00
      4   0.000000D+00  0.000000D+00  0.000000D+00  0.000000D+00  0.000000D+00
      5   0.000000D+00  0.000000D+00  0.000000D+00  0.000000D+00  0.000000D+00
      6   0.000000D+00  0.000000D+00  0.000000D+00  0.000000D+00  0.000000D+00
      7   0.000000D+00  0.000000D+00  0.000000D+00  0.000000D+00  0.000000D+00
      8  -0.386782D+00  0.000000D+00  0.000000D+00  0.000000D+00  0.000000D+00
      9   0.000000D+00  0.386782D+00  0.000000D+00  0.000000D+00  0.131782D+00
     10   0.000000D+00  0.000000D+00  0.832778D-01  0.000000D+00  0.000000D+00
     11  -0.581977D-01  0.000000D+00  0.000000D+00  0.136971D+00  0.000000D+00
     12   0.581976D-01  0.000000D+00  0.000000D+00  0.136971D+00  0.000000D+00
     13   0.000000D+00  0.000000D+00  0.000000D+00  0.145411D+00  0.000000D+00
     14   0.000000D+00 -0.581976D-01  0.000000D+00  0.000000D+00  0.466878D-01
     15   0.000000D+00  0.416543D+00  0.000000D+00  0.000000D+00 -0.545818D-01
     16   0.416542D+00  0.000000D+00  0.000000D+00  0.000000D+00  0.000000D+00
               496           497           498           499           500 
      1  -0.764942D+02 -0.764292D+02 -0.764217D+02 -0.764217D+02 -0.764214D+02
      2   0.000000D+00  0.000000D+00  0.000000D+00  0.113396D+00  0.000000D+00
      3   0.000000D+00  0.000000D+00  0.113396D+00  0.000000D+00 -0.104365D-05
      4   0.000000D+00  0.000000D+00  0.000000D+00  0.000000D+00  0.357098D-01
      5   0.000000D+00  0.000000D+00  0.000000D+00 -0.297727D+00  0.000000D+00
      6   0.000000D+00  0.000000D+00 -0.297727D+00  0.000000D+00  0.273467D-05
      7   0.000000D+00  0.000000D+00 -0.125512D-05  0.000000D+00 -0.134662D+00
      8  -0.131782D+00  0.000000D+00  0.000000D+00  0.000000D+00  0.000000D+00
      9   0.000000D+00  0.000000D+00  0.000000D+00  0.000000D+00  0.000000D+00
     10   0.000000D+00  0.000000D+00  0.000000D+00  0.000000D+00  0.000000D+00
     11   0.466878D-01  0.000000D+00  0.000000D+00  0.000000D+00  0.000000D+00
     12  -0.466877D-01  0.000000D+00  0.000000D+00  0.000000D+00  0.000000D+00
     13   0.000000D+00  0.000000D+00  0.000000D+00  0.000000D+00  0.000000D+00
     14   0.000000D+00  0.000000D+00  0.000000D+00  0.000000D+00  0.000000D+00
     15   0.000000D+00  0.000000D+00  0.000000D+00  0.000000D+00  0.000000D+00
     16  -0.545817D-01  0.000000D+00  0.000000D+00  0.000000D+00  0.000000D+00
               501           502           503           504           505 
      1  -0.764188D+02 -0.763987D+02 -0.763987D+02 -0.763875D+02 -0.763394D+02
      2   0.000000D+00  0.000000D+00  0.000000D+00  0.000000D+00  0.000000D+00
      3   0.000000D+00  0.000000D+00  0.000000D+00  0.000000D+00  0.000000D+00
      4   0.000000D+00  0.000000D+00  0.000000D+00  0.000000D+00  0.000000D+00
      5   0.000000D+00  0.000000D+00  0.000000D+00  0.000000D+00  0.000000D+00
      6   0.000000D+00  0.000000D+00  0.000000D+00  0.000000D+00  0.000000D+00
      7   0.000000D+00  0.000000D+00  0.000000D+00  0.000000D+00  0.000000D+00
      8   0.000000D+00 -0.197879D+00  0.000000D+00  0.000000D+00 -0.982003D-01
      9   0.000000D+00  0.000000D+00  0.197879D+00  0.000000D+00  0.000000D+00
     10   0.000000D+00  0.000000D+00  0.000000D+00  0.000000D+00  0.000000D+00
     11   0.149035D+00 -0.413225D-01  0.000000D+00  0.671507D-01  0.264419D+00
     12   0.149035D+00  0.413225D-01  0.000000D+00  0.671506D-01 -0.264419D+00
     13  -0.521464D+00  0.000000D+00  0.000000D+00 -0.496238D+00  0.000000D+00
     14   0.000000D+00  0.000000D+00 -0.413225D-01  0.000000D+00  0.000000D+00
     15   0.000000D+00  0.000000D+00  0.417655D+00  0.000000D+00  0.000000D+00
     16   0.000000D+00  0.417655D+00  0.000000D+00  0.000000D+00  0.249511D+00
               506           507           508           509           510 
      1  -0.763394D+02 -0.763194D+02 -0.763143D+02 -0.763143D+02 -0.762554D+02
      2   0.000000D+00  0.000000D+00  0.000000D+00 -0.749989D-01  0.000000D+00
      3   0.000000D+00  0.000000D+00 -0.749989D-01  0.000000D+00  0.608247D-02
      4   0.000000D+00  0.000000D+00  0.000000D+00  0.000000D+00  0.000000D+00
      5   0.000000D+00  0.000000D+00  0.000000D+00  0.163282D+00  0.000000D+00
      6   0.000000D+00  0.000000D+00  0.163282D+00  0.000000D+00 -0.187066D-01
      7   0.000000D+00  0.000000D+00  0.000000D+00  0.000000D+00  0.000000D+00
      8   0.000000D+00  0.000000D+00  0.000000D+00  0.000000D+00  0.000000D+00
      9  -0.982003D-01  0.000000D+00  0.000000D+00  0.000000D+00  0.000000D+00
     10   0.000000D+00  0.000000D+00  0.000000D+00  0.000000D+00  0.000000D+00
     11   0.000000D+00  0.650361D-01  0.000000D+00  0.000000D+00  0.000000D+00
     12   0.000000D+00  0.650361D-01  0.000000D+00  0.000000D+00  0.000000D+00
     13   0.000000D+00  0.567599D+00  0.000000D+00  0.000000D+00  0.000000D+00
     14  -0.264419D+00  0.000000D+00  0.000000D+00  0.000000D+00  0.000000D+00
     15  -0.249512D+00  0.000000D+00  0.000000D+00  0.000000D+00  0.000000D+00
     16   0.000000D+00  0.000000D+00  0.000000D+00  0.000000D+00  0.000000D+00
               511           512           513           514           515 
      1  -0.762554D+02 -0.762049D+02 -0.761932D+02 -0.761932D+02 -0.761922D+02
      2   0.608248D-02  0.000000D+00  0.000000D+00 -0.527260D-01  0.000000D+00
      3   0.000000D+00  0.000000D+00 -0.527260D-01  0.000000D+00  0.000000D+00
      4   0.000000D+00  0.658734D-01  0.000000D+00  0.000000D+00  0.148379D+00
      5  -0.187066D-01  0.000000D+00  0.000000D+00  0.145774D+00  0.000000D+00
      6   0.000000D+00  0.000000D+00  0.145774D+00  0.000000D+00  0.000000D+00
      7   0.000000D+00 -0.213350D+00  0.000000D+00  0.000000D+00 -0.444690D+00
      8   0.000000D+00  0.000000D+00  0.000000D+00  0.000000D+00  0.000000D+00
      9   0.000000D+00  0.000000D+00  0.000000D+00  0.000000D+00  0.000000D+00
     10   0.000000D+00  0.000000D+00  0.000000D+00  0.000000D+00  0.000000D+00
     11   0.000000D+00  0.000000D+00  0.000000D+00  0.000000D+00  0.000000D+00
     12   0.000000D+00  0.000000D+00  0.000000D+00  0.000000D+00  0.000000D+00
     13   0.000000D+00  0.000000D+00  0.000000D+00  0.000000D+00  0.000000D+00
     14   0.000000D+00  0.000000D+00  0.000000D+00  0.000000D+00  0.000000D+00
     15   0.000000D+00  0.000000D+00  0.000000D+00  0.000000D+00  0.000000D+00
     16   0.000000D+00  0.000000D+00  0.000000D+00  0.000000D+00  0.000000D+00
               516           517           518           519           520 
      1  -0.761857D+02 -0.761857D+02 -0.761226D+02 -0.761226D+02 -0.761203D+02
      2   0.714001D-01  0.000000D+00  0.000000D+00  0.000000D+00  0.000000D+00
      3   0.000000D+00 -0.714001D-01  0.000000D+00  0.000000D+00  0.000000D+00
      4   0.000000D+00  0.000000D+00  0.000000D+00  0.000000D+00  0.000000D+00
      5  -0.179851D+00  0.000000D+00  0.000000D+00  0.000000D+00  0.000000D+00
      6   0.000000D+00  0.179851D+00  0.000000D+00  0.000000D+00  0.000000D+00
      7   0.000000D+00  0.000000D+00  0.000000D+00  0.000000D+00  0.000000D+00
      8   0.000000D+00  0.000000D+00 -0.506703D+00  0.000000D+00  0.000000D+00
      9   0.000000D+00  0.000000D+00  0.000000D+00  0.506703D+00  0.102244D-05
     10   0.000000D+00  0.000000D+00  0.000000D+00  0.000000D+00 -0.870902D-01
     11   0.000000D+00  0.000000D+00 -0.510739D-01  0.000000D+00  0.000000D+00
     12   0.000000D+00  0.000000D+00  0.510741D-01  0.000000D+00  0.000000D+00
     13   0.000000D+00  0.000000D+00  0.000000D+00  0.000000D+00  0.000000D+00
     14   0.000000D+00  0.000000D+00  0.000000D+00 -0.510741D-01  0.000000D+00
     15   0.000000D+00  0.000000D+00  0.000000D+00  0.198007D+00  0.000000D+00
     16   0.000000D+00  0.000000D+00  0.198008D+00  0.000000D+00  0.000000D+00
               521           522           523           524           525 
      1  -0.761101D+02 -0.761101D+02 -0.761062D+02 -0.761055D+02 -0.761055D+02
      2   0.000000D+00  0.000000D+00  0.000000D+00  0.000000D+00  0.000000D+00
      3   0.000000D+00  0.000000D+00  0.000000D+00  0.000000D+00  0.000000D+00
      4   0.000000D+00  0.000000D+00  0.000000D+00  0.000000D+00  0.000000D+00
      5   0.000000D+00  0.000000D+00  0.000000D+00  0.000000D+00  0.000000D+00
      6   0.000000D+00  0.000000D+00  0.000000D+00  0.000000D+00  0.000000D+00
      7   0.000000D+00  0.000000D+00  0.000000D+00  0.000000D+00  0.000000D+00
      8   0.263530D+00  0.000000D+00  0.000000D+00 -0.221943D+00  0.000000D+00
      9   0.000000D+00 -0.263529D+00  0.000000D+00  0.000000D+00  0.221943D+00
     10   0.000000D+00  0.000000D+00  0.000000D+00  0.000000D+00  0.000000D+00
     11  -0.210698D-01  0.000000D+00 -0.119835D+00  0.136107D+00  0.000000D+00
     12   0.210691D-01  0.000000D+00 -0.119833D+00 -0.136109D+00  0.000000D+00
     13  -0.348921D-05  0.000000D+00 -0.110251D+01 -0.792852D-05  0.000000D+00
     14   0.000000D+00 -0.210692D-01  0.000000D+00  0.000000D+00  0.136108D+00
     15   0.000000D+00 -0.278188D+00  0.000000D+00  0.000000D+00  0.553955D+00
     16  -0.278188D+00  0.000000D+00 -0.317701D-05  0.553955D+00  0.000000D+00
               526           527           528           529           530 
      1  -0.760944D+02 -0.760938D+02 -0.760938D+02 -0.760680D+02 -0.760637D+02
      2   0.000000D+00  0.000000D+00  0.000000D+00  0.000000D+00  0.000000D+00
      3   0.000000D+00  0.000000D+00  0.000000D+00  0.000000D+00 -0.162506D+00
      4   0.230755D-01  0.000000D+00  0.000000D+00  0.000000D+00  0.000000D+00
      5   0.000000D+00  0.000000D+00  0.000000D+00  0.000000D+00  0.000000D+00
      6   0.000000D+00  0.000000D+00  0.000000D+00  0.000000D+00  0.471354D+00
      7  -0.633410D-01  0.000000D+00  0.000000D+00  0.000000D+00  0.000000D+00
      8   0.000000D+00  0.541987D+00  0.000000D+00  0.000000D+00  0.000000D+00
      9   0.000000D+00  0.000000D+00 -0.541987D+00  0.000000D+00  0.000000D+00
     10   0.000000D+00  0.000000D+00  0.000000D+00  0.000000D+00  0.000000D+00
     11   0.000000D+00 -0.146682D+00  0.000000D+00  0.000000D+00  0.000000D+00
     12   0.000000D+00  0.146682D+00  0.000000D+00  0.000000D+00  0.000000D+00
     13   0.000000D+00  0.000000D+00  0.000000D+00  0.000000D+00  0.000000D+00
     14   0.000000D+00  0.000000D+00 -0.146682D+00  0.000000D+00  0.000000D+00
     15   0.000000D+00  0.000000D+00 -0.528245D+00  0.000000D+00  0.000000D+00
     16   0.000000D+00 -0.528245D+00  0.000000D+00  0.000000D+00  0.000000D+00
               531           532           533           534           535 
      1  -0.760637D+02 -0.760526D+02 -0.760319D+02 -0.760319D+02 -0.759829D+02
      2  -0.162506D+00  0.000000D+00  0.000000D+00  0.100261D+00  0.000000D+00
      3   0.000000D+00  0.000000D+00  0.100261D+00  0.000000D+00  0.000000D+00
      4   0.000000D+00  0.153242D+00  0.000000D+00  0.000000D+00  0.000000D+00
      5   0.471354D+00  0.000000D+00  0.000000D+00 -0.283816D+00  0.000000D+00
      6   0.000000D+00  0.000000D+00 -0.283816D+00  0.000000D+00  0.000000D+00
      7   0.000000D+00 -0.444058D+00  0.000000D+00  0.000000D+00  0.000000D+00
      8   0.000000D+00  0.000000D+00  0.000000D+00  0.000000D+00  0.000000D+00
      9   0.000000D+00  0.000000D+00  0.000000D+00  0.000000D+00  0.000000D+00
     10   0.000000D+00  0.000000D+00  0.000000D+00  0.000000D+00  0.000000D+00
     11   0.000000D+00  0.000000D+00  0.000000D+00  0.000000D+00  0.172581D+00
     12   0.000000D+00  0.000000D+00  0.000000D+00  0.000000D+00  0.172582D+00
     13   0.000000D+00  0.000000D+00  0.000000D+00  0.000000D+00 -0.898415D+00
     14   0.000000D+00  0.000000D+00  0.000000D+00  0.000000D+00  0.000000D+00
     15   0.000000D+00  0.000000D+00  0.000000D+00  0.000000D+00  0.000000D+00
     16   0.000000D+00  0.000000D+00  0.000000D+00  0.000000D+00  0.000000D+00
               536           537           538           539           540 
      1  -0.759729D+02 -0.759729D+02 -0.759728D+02 -0.759715D+02 -0.759220D+02
      2  -0.837863D-02  0.000000D+00  0.000000D+00  0.000000D+00  0.000000D+00
      3   0.000000D+00 -0.837860D-02  0.000000D+00  0.000000D+00  0.000000D+00
      4   0.000000D+00  0.000000D+00  0.000000D+00  0.326795D-01  0.000000D+00
      5  -0.988149D-03  0.000000D+00  0.000000D+00  0.000000D+00  0.000000D+00
      6   0.000000D+00 -0.988225D-03  0.000000D+00  0.000000D+00  0.000000D+00
      7   0.000000D+00  0.000000D+00  0.000000D+00 -0.101943D+00  0.000000D+00
      8   0.000000D+00  0.000000D+00  0.000000D+00  0.000000D+00  0.000000D+00
      9   0.000000D+00  0.000000D+00  0.000000D+00  0.000000D+00  0.000000D+00
     10   0.000000D+00  0.000000D+00  0.000000D+00  0.000000D+00 -0.253584D-01
     11   0.000000D+00  0.000000D+00  0.000000D+00  0.000000D+00  0.000000D+00
     12   0.000000D+00  0.000000D+00  0.000000D+00  0.000000D+00  0.000000D+00
     13   0.000000D+00  0.000000D+00  0.000000D+00  0.000000D+00  0.000000D+00
     14   0.000000D+00  0.000000D+00  0.000000D+00  0.000000D+00  0.000000D+00
     15   0.000000D+00  0.000000D+00  0.000000D+00  0.000000D+00  0.000000D+00
     16   0.000000D+00  0.000000D+00  0.000000D+00  0.000000D+00  0.000000D+00
               541           542           543           544           545 
      1  -0.759180D+02 -0.759175D+02 -0.759175D+02 -0.758889D+02 -0.758188D+02
      2   0.000000D+00  0.000000D+00  0.000000D+00  0.000000D+00  0.000000D+00
      3   0.000000D+00  0.000000D+00  0.000000D+00  0.000000D+00 -0.886135D-01
      4   0.000000D+00  0.000000D+00  0.000000D+00  0.000000D+00  0.000000D+00
      5   0.000000D+00  0.000000D+00  0.000000D+00  0.000000D+00  0.000000D+00
      6   0.000000D+00  0.000000D+00  0.000000D+00  0.000000D+00  0.255184D+00
      7   0.000000D+00  0.000000D+00  0.000000D+00  0.000000D+00  0.000000D+00
      8   0.120634D-04 -0.376922D+00  0.000000D+00  0.000000D+00  0.000000D+00
      9   0.000000D+00  0.000000D+00  0.376922D+00  0.000000D+00  0.000000D+00
     10   0.000000D+00  0.000000D+00  0.000000D+00  0.000000D+00  0.000000D+00
     11   0.290403D-01 -0.965561D-01  0.000000D+00  0.578064D-01  0.000000D+00
     12   0.290342D-01  0.965579D-01  0.000000D+00  0.578064D-01  0.000000D+00
     13  -0.883194D+00 -0.281126D-04  0.000000D+00 -0.897192D+00  0.000000D+00
     14   0.000000D+00  0.000000D+00 -0.965570D-01  0.000000D+00  0.000000D+00
     15   0.000000D+00  0.000000D+00  0.410037D+00  0.000000D+00  0.000000D+00
     16  -0.130360D-04  0.410036D+00  0.000000D+00  0.000000D+00  0.000000D+00
               546           547           548           549           550 
      1  -0.758188D+02 -0.757779D+02 -0.757598D+02 -0.757598D+02 -0.756558D+02
      2  -0.886135D-01  0.000000D+00  0.000000D+00  0.000000D+00  0.000000D+00
      3   0.000000D+00  0.000000D+00  0.000000D+00  0.000000D+00  0.000000D+00
      4   0.000000D+00  0.803152D-01  0.000000D+00  0.000000D+00  0.000000D+00
      5   0.255184D+00  0.000000D+00  0.000000D+00  0.000000D+00  0.000000D+00
      6   0.000000D+00  0.000000D+00  0.000000D+00  0.000000D+00  0.000000D+00
      7   0.000000D+00 -0.199477D+00  0.000000D+00  0.000000D+00  0.000000D+00
      8   0.000000D+00  0.000000D+00 -0.517216D+00  0.000000D+00 -0.199261D+00
      9   0.000000D+00  0.000000D+00  0.000000D+00  0.517216D+00  0.000000D+00
     10   0.000000D+00  0.000000D+00  0.000000D+00  0.000000D+00  0.000000D+00
     11   0.000000D+00  0.000000D+00  0.191530D+00  0.000000D+00  0.133117D+00
     12   0.000000D+00  0.000000D+00 -0.191530D+00  0.000000D+00 -0.133117D+00
     13   0.000000D+00  0.000000D+00  0.000000D+00  0.000000D+00  0.000000D+00
     14   0.000000D+00  0.000000D+00  0.000000D+00  0.191530D+00  0.000000D+00
     15   0.000000D+00  0.000000D+00  0.000000D+00  0.332813D+00  0.000000D+00
     16   0.000000D+00  0.000000D+00  0.332813D+00  0.000000D+00  0.211544D+00
               551           552           553 
      1  -0.756558D+02 -0.755951D+02 -0.755951D+02
      2   0.000000D+00  0.000000D+00 -0.874618D-01
      3   0.000000D+00 -0.874618D-01  0.000000D+00
      4   0.000000D+00  0.000000D+00  0.000000D+00
      5   0.000000D+00  0.000000D+00  0.265380D+00
      6   0.000000D+00  0.265380D+00  0.000000D+00
      7   0.000000D+00  0.000000D+00  0.000000D+00
      8   0.000000D+00  0.000000D+00  0.000000D+00
      9   0.199262D+00  0.000000D+00  0.000000D+00
     10   0.000000D+00  0.000000D+00  0.000000D+00
     11   0.000000D+00  0.000000D+00  0.000000D+00
     12   0.000000D+00  0.000000D+00  0.000000D+00
     13   0.000000D+00  0.000000D+00  0.000000D+00
     14   0.133117D+00  0.000000D+00  0.000000D+00
     15   0.211544D+00  0.000000D+00  0.000000D+00
     16   0.000000D+00  0.000000D+00  0.000000D+00
 Unable to Open any file for archive entry.
 1\1\GINC-HEL23\SP\RLC-BLYP TD-FC\Gen\C2H6\SABYASACHI\21-Mar-2022\0\\#P
  TD(Nstates=10000) lc-blyp/Gen SCF(maxcycles=100) Int(Grid=ultrafine)\
 \xGDB7_00001_tier4.com\\0,1\C,0,0.,0.,0.761397\C,0,0.,0.,-0.761397\H,0
 ,0.,1.01711,1.157248\H,0,0.880843,-0.508555,1.157248\H,0,-0.880843,-0.
 508555,1.157248\H,0,0.880843,0.508555,-1.157248\H,0,-0.880843,0.508555
 ,-1.157248\H,0,0.,-1.01711,-1.157248\\Version=EM64L-G16RevC.01\State=1
 -A1G\HF=-79.5024049\RMSD=2.787e-09\PG=D03D [C3(C1.C1),3SGD(H2)]\\@
 The archive entry for this job was punched.


 THE FIRST AND LAST THING REQUIRED OF GENIUS IS THE LOVE OF TRUTH.

                          -- GOETHE
 Job cpu time:       0 days  0 hours  2 minutes 30.2 seconds.
 Elapsed time:       0 days  0 hours  0 minutes 19.1 seconds.
 File lengths (MBytes):  RWF=    401 Int=      0 D2E=      0 Chk=    102 Scr=      1
 Normal termination of Gaussian 16 at Mon Mar 21 20:07:27 2022.
