 Entering Gaussian System, Link 0=g16
 Input=000008.com
 Output=000008.log
 Initial command:
 /home/sabyasachi/g16/l1.exe "/scratch/sabyasachi/PBS_7976208.helios/Gau-45231.inp" -scrdir="/scratch/sabyasachi/PBS_7976208.helios/"
 Entering Link 1 = /home/sabyasachi/g16/l1.exe PID=     45232.
  
 Copyright (c) 1988-2019, Gaussian, Inc.  All Rights Reserved.
  
 This is part of the Gaussian(R) 16 program.  It is based on
 the Gaussian(R) 09 system (copyright 2009, Gaussian, Inc.),
 the Gaussian(R) 03 system (copyright 2003, Gaussian, Inc.),
 the Gaussian(R) 98 system (copyright 1998, Gaussian, Inc.),
 the Gaussian(R) 94 system (copyright 1995, Gaussian, Inc.),
 the Gaussian 92(TM) system (copyright 1992, Gaussian, Inc.),
 the Gaussian 90(TM) system (copyright 1990, Gaussian, Inc.),
 the Gaussian 88(TM) system (copyright 1988, Gaussian, Inc.),
 the Gaussian 86(TM) system (copyright 1986, Carnegie Mellon
 University), and the Gaussian 82(TM) system (copyright 1983,
 Carnegie Mellon University). Gaussian is a federally registered
 trademark of Gaussian, Inc.
  
 This software contains proprietary and confidential information,
 including trade secrets, belonging to Gaussian, Inc.
  
 This software is provided under written license and may be
 used, copied, transmitted, or stored only in accord with that
 written license.
  
 The following legend is applicable only to US Government
 contracts under FAR:
  
                    RESTRICTED RIGHTS LEGEND
  
 Use, reproduction and disclosure by the US Government is
 subject to restrictions as set forth in subparagraphs (a)
 and (c) of the Commercial Computer Software - Restricted
 Rights clause in FAR 52.227-19.
  
 Gaussian, Inc.
 340 Quinnipiac St., Bldg. 40, Wallingford CT 06492
  
  
 ---------------------------------------------------------------
 Warning -- This program may not be used in any manner that
 competes with the business of Gaussian, Inc. or will provide
 assistance to any competitor of Gaussian, Inc.  The licensee
 of this program is prohibited from giving any competitor of
 Gaussian, Inc. access to this program.  By using this program,
 the user acknowledges that Gaussian, Inc. is engaged in the
 business of creating and licensing software in the field of
 computational chemistry and represents and warrants to the
 licensee that it is not a competitor of Gaussian, Inc. and that
 it will not use this program in any manner prohibited above.
 ---------------------------------------------------------------
  

 Cite this work as:
 Gaussian 16, Revision C.01,
 M. J. Frisch, G. W. Trucks, H. B. Schlegel, G. E. Scuseria, 
 M. A. Robb, J. R. Cheeseman, G. Scalmani, V. Barone, 
 G. A. Petersson, H. Nakatsuji, X. Li, M. Caricato, A. V. Marenich, 
 J. Bloino, B. G. Janesko, R. Gomperts, B. Mennucci, H. P. Hratchian, 
 J. V. Ortiz, A. F. Izmaylov, J. L. Sonnenberg, D. Williams-Young, 
 F. Ding, F. Lipparini, F. Egidi, J. Goings, B. Peng, A. Petrone, 
 T. Henderson, D. Ranasinghe, V. G. Zakrzewski, J. Gao, N. Rega, 
 G. Zheng, W. Liang, M. Hada, M. Ehara, K. Toyota, R. Fukuda, 
 J. Hasegawa, M. Ishida, T. Nakajima, Y. Honda, O. Kitao, H. Nakai, 
 T. Vreven, K. Throssell, J. A. Montgomery, Jr., J. E. Peralta, 
 F. Ogliaro, M. J. Bearpark, J. J. Heyd, E. N. Brothers, K. N. Kudin, 
 V. N. Staroverov, T. A. Keith, R. Kobayashi, J. Normand, 
 K. Raghavachari, A. P. Rendell, J. C. Burant, S. S. Iyengar, 
 J. Tomasi, M. Cossi, J. M. Millam, M. Klene, C. Adamo, R. Cammi, 
 J. W. Ochterski, R. L. Martin, K. Morokuma, O. Farkas, 
 J. B. Foresman, and D. J. Fox, Gaussian, Inc., Wallingford CT, 2019.
 
 ******************************************
 Gaussian 16:  EM64L-G16RevC.01  3-Jul-2019
                21-Mar-2022 
 ******************************************
 %mem=64gb
 %nproc=8
 Will use up to    8 processors via shared memory.
 ----------------------------------------------------------------------
 #P TD(Nstates=10000) lc-blyp/Gen SCF(maxcycles=100) Int(Grid=ultrafine
 )
 ----------------------------------------------------------------------
 1/38=1,172=1/1;
 2/12=2,17=6,18=5,40=1/2;
 3/5=7,11=9,25=1,30=1,74=1000402,75=-5/1,2,3,8;
 4//1;
 5/5=2,7=100,38=5/2;
 8/6=1,10=1,108=10000/1;
 9/41=10000,42=1,70=2/14;
 6/7=2,8=2,9=2,10=2/1;
 99/5=1,9=1/99;
 Leave Link    1 at Mon Mar 21 20:06:45 2022, MaxMem=  8589934592 cpu:               0.3 elap:               0.0
 (Enter /home/sabyasachi/g16/l101.exe)
 ---------------------
 xGDB7_00001_tier4.com
 ---------------------
 Symbolic Z-matrix:
 Charge =  0 Multiplicity = 1
 6                    -0.63015  0.         0. 
 9                     0.74851   0.       0. 
 1                    -0.98525   0.89968   0.50542 
 1                    -0.98522  -0.88756   0.52642 
 1                    -0.98525  -0.01213  -1.03184 
 
 ITRead=  0  0  0  0  0
 MicOpt= -1 -1 -1 -1 -1
 NAtoms=      5 NQM=        5 NQMF=       0 NMMI=      0 NMMIF=      0
                NMic=       0 NMicF=      0.
                    Isotopes and Nuclear Properties:
 (Nuclear quadrupole moments (NQMom) in fm**2, nuclear magnetic moments (NMagM)
  in nuclear magnetons)

  Atom         1           2           3           4           5
 IAtWgt=          12          19           1           1           1
 AtmWgt=  12.0000000  18.9984033   1.0078250   1.0078250   1.0078250
 NucSpn=           0           1           1           1           1
 AtZEff=  -0.0000000  -0.0000000  -0.0000000  -0.0000000  -0.0000000
 NQMom=    0.0000000   0.0000000   0.0000000   0.0000000   0.0000000
 NMagM=    0.0000000   2.6288670   2.7928460   2.7928460   2.7928460
 AtZNuc=   6.0000000   9.0000000   1.0000000   1.0000000   1.0000000
 Leave Link  101 at Mon Mar 21 20:06:45 2022, MaxMem=  8589934592 cpu:               0.6 elap:               0.1
 (Enter /home/sabyasachi/g16/l202.exe)
                          Input orientation:                          
 ---------------------------------------------------------------------
 Center     Atomic      Atomic             Coordinates (Angstroms)
 Number     Number       Type             X           Y           Z
 ---------------------------------------------------------------------
      1          6           0       -0.630149   -0.000001    0.000003
      2          9           0        0.748512    0.000002   -0.000001
      3          1           0       -0.985250    0.899676    0.505416
      4          1           0       -0.985222   -0.887557    0.526417
      5          1           0       -0.985245   -0.012128   -1.031840
 ---------------------------------------------------------------------
                    Distance matrix (angstroms):
                    1          2          3          4          5
     1  C    0.000000
     2  F    1.378661   0.000000
     3  H    1.091310   2.017620   0.000000
     4  H    1.091304   2.017600   1.787356   0.000000
     5  H    1.091302   2.017611   1.787328   1.787328   0.000000
 Stoichiometry    CH3F
 Framework group  C1[X(CH3F)]
 Deg. of freedom     9
 Full point group                 C1      NOp   1
 Largest Abelian subgroup         C1      NOp   1
 Largest concise Abelian subgroup C1      NOp   1
                         Standard orientation:                         
 ---------------------------------------------------------------------
 Center     Atomic      Atomic             Coordinates (Angstroms)
 Number     Number       Type             X           Y           Z
 ---------------------------------------------------------------------
      1          6           0        0.630149   -0.000001   -0.000003
      2          9           0       -0.748512    0.000002    0.000001
      3          1           0        0.985250    0.897475   -0.509314
      4          1           0        0.985222   -0.889832   -0.522562
      5          1           0        0.985245   -0.007652    1.031883
 ---------------------------------------------------------------------
 Rotational constants (GHZ):         156.9708152          25.8428001          25.8427103
 Leave Link  202 at Mon Mar 21 20:06:45 2022, MaxMem=  8589934592 cpu:               0.1 elap:               0.0
 (Enter /home/sabyasachi/g16/l301.exe)
 General basis read from cards:  (5D, 7F)
 Centers:       3      4      5
 S 3 1.00
     Exponent=  1.3010701000D+01 Coefficients=  1.9682158000D-02
     Exponent=  1.9622572000D+00 Coefficients=  1.3796524000D-01
     Exponent=  4.4453796000D-01 Coefficients=  4.7831935000D-01
 S 1 1.00
     Exponent=  1.2194962000D-01 Coefficients=  1.0000000000D+00
 P 1 1.00
     Exponent=  8.0000000000D-01 Coefficients=  1.0000000000D+00
 P 1 1.00
     Exponent=  1.1704099050D-01 Coefficients=  1.0000000000D+00
 ****
 Centers:       1
 S 5 1.00
     Exponent=  1.2384016938D+03 Coefficients=  5.4568832082D-03
     Exponent=  1.8629004992D+02 Coefficients=  4.0638409211D-02
     Exponent=  4.2251176346D+01 Coefficients=  1.8025593888D-01
     Exponent=  1.1676557932D+01 Coefficients=  4.6315121755D-01
     Exponent=  3.5930506482D+00 Coefficients=  4.4087173314D-01
 S 1 1.00
     Exponent=  4.0245147363D-01 Coefficients=  1.0000000000D+00
 S 1 1.00
     Exponent=  1.3090182668D-01 Coefficients=  1.0000000000D+00
 S 1 1.00
     Exponent=  6.7053540256D-02 Coefficients=  1.0000000000D+00
 P 3 1.00
     Exponent=  9.4680970621D+00 Coefficients=  3.8387871728D-02
     Exponent=  2.0103545142D+00 Coefficients=  2.1117025112D-01
     Exponent=  5.4771004707D-01 Coefficients=  5.1328172114D-01
 P 1 1.00
     Exponent=  1.5268613795D-01 Coefficients=  1.0000000000D+00
 D 1 1.00
     Exponent=  8.0000000000D-01 Coefficients=  1.0000000000D+00
 D 1 1.00
     Exponent=  1.1713185140D-01 Coefficients=  1.0000000000D+00
 ****
 Centers:       2
 S 5 1.00
     Exponent=  2.8948325990D+03 Coefficients= -5.3408255515D-03
     Exponent=  4.3541939120D+02 Coefficients= -3.9904258866D-02
     Exponent=  9.8843328866D+01 Coefficients= -1.7912768038D-01
     Exponent=  2.7485198001D+01 Coefficients= -4.6758090825D-01
     Exponent=  8.5405498171D+00 Coefficients= -4.4653131020D-01
 S 1 1.00
     Exponent=  1.0654578038D+00 Coefficients=  1.0000000000D+00
 S 1 1.00
     Exponent=  3.3247346748D-01 Coefficients=  1.0000000000D+00
 S 1 1.00
     Exponent=  9.8097752264D-02 Coefficients=  1.0000000000D+00
 P 3 1.00
     Exponent=  2.2696633924D+01 Coefficients= -4.5212874436D-02
     Exponent=  4.9872339257D+00 Coefficients= -2.3754317067D-01
     Exponent=  1.3491613954D+00 Coefficients= -5.1287353587D-01
 P 1 1.00
     Exponent=  3.4829881977D-01 Coefficients=  1.0000000000D+00
 P 1 1.00
     Exponent=  8.3372148304D-02 Coefficients=  1.0000000000D+00
 D 1 1.00
     Exponent=  1.4000000000D+00 Coefficients=  1.0000000000D+00
 D 1 1.00
     Exponent=  2.2301361948D-01 Coefficients=  1.0000000000D+00
 ****
 Ernie: Thresh=  0.10000D-02 Tol=  0.10000D-05 Strict=F.
 There are    71 symmetry adapted cartesian basis functions of A   symmetry.
 There are    67 symmetry adapted basis functions of A   symmetry.
    67 basis functions,    97 primitive gaussians,    71 cartesian basis functions
     9 alpha electrons        9 beta electrons
       nuclear repulsion energy        37.4250480537 Hartrees.
 IExCor=10402 DFT=T Ex=LC-B+HF Corr=LYP ExCW=0 ScaHFX=  1.000000
 ScaDFX=  1.000000  1.000000  1.000000  1.000000 ScalE2=  1.000000  1.000000
 IRadAn=      5 IRanWt=     -1 IRanGd=            0 ICorTp=0 IEmpDi=  4
 HFx  wShort=  0.000000 wLong=  0.470000 cFull=  0.000000 cShort=  0.000000 cLong=  1.000000
 DFx  wShort=  0.000000 wLong=  0.470000 cFull=  0.000000 cShort=  0.000000 cLong=  1.000000
 NAtoms=    5 NActive=    5 NUniq=    5 SFac= 1.00D+00 NAtFMM=   60 NAOKFM=F Big=F
 Integral buffers will be    131072 words long.
 Raffenetti 1 integral format.
 Two-electron integral symmetry is turned on.
 Leave Link  301 at Mon Mar 21 20:06:45 2022, MaxMem=  8589934592 cpu:               0.5 elap:               0.1
 (Enter /home/sabyasachi/g16/l302.exe)
 NPDir=0 NMtPBC=     1 NCelOv=     1 NCel=       1 NClECP=     1 NCelD=      1
         NCelK=      1 NCelE2=     1 NClLst=     1 CellRange=     0.0.
 One-electron integrals computed using PRISM.
 One-electron integral symmetry used in STVInt
 NBasis=    67 RedAO= T EigKep=  6.61D-04  NBF=    67
 NBsUse=    67 1.00D-06 EigRej= -1.00D+00 NBFU=    67
 Precomputing XC quadrature grid using
 IXCGrd= 4 IRadAn=           5 IRanWt=          -1 IRanGd=           0 AccXCQ= 0.00D+00.
 Generated NRdTot=       0 NPtTot=           0 NUsed=           0 NTot=          32
 NSgBfM=    71    71    71    71    71 MxSgAt=     5 MxSgA2=     5.
 Leave Link  302 at Mon Mar 21 20:06:45 2022, MaxMem=  8589934592 cpu:               0.9 elap:               0.1
 (Enter /home/sabyasachi/g16/l303.exe)
 DipDrv:  MaxL=1.
 Leave Link  303 at Mon Mar 21 20:06:45 2022, MaxMem=  8589934592 cpu:               0.2 elap:               0.0
 (Enter /home/sabyasachi/g16/l308.exe)
 Leave Link  308 at Mon Mar 21 20:06:45 2022, MaxMem=  8589934592 cpu:               0.2 elap:               0.0
 (Enter /home/sabyasachi/g16/l401.exe)
 ExpMin= 6.71D-02 ExpMax= 2.89D+03 ExpMxC= 4.35D+02 IAcc=3 IRadAn=         5 AccDes= 0.00D+00
 Harris functional with IExCor=10402 and IRadAn=       5 diagonalized for initial guess.
 HarFok:  IExCor=10402 AccDes= 0.00D+00 IRadAn=         5 IDoV= 1 UseB2=F ITyADJ=14
 ICtDFT=  3500011 ScaDFX=  1.000000  1.000000  1.000000  1.000000
 FoFCou: FMM=F IPFlag=           0 FMFlag=      100000 FMFlg1=           0
         NFxFlg=           0 DoJE=T BraDBF=F KetDBF=T FulRan=T
         wScrn=  0.000000 ICntrl=       500 IOpCl=  0 I1Cent=   200000004 NGrid=           0
         NMat0=    1 NMatS0=      1 NMatT0=    0 NMatD0=    1 NMtDS0=    0 NMtDT0=    0
 Petite list used in FoFCou.
 Harris En= -135.230640098904    
 JPrj=0 DoOrth=F DoCkMO=F.
 Leave Link  401 at Mon Mar 21 20:06:45 2022, MaxMem=  8589934592 cpu:               1.8 elap:               0.3
 (Enter /home/sabyasachi/g16/l502.exe)
 Keep R1 ints in memory in canonical form, NReq=12497692.
 FoFCou: FMM=F IPFlag=           0 FMFlag=           0 FMFlg1=           0
         NFxFlg=           0 DoJE=F BraDBF=F KetDBF=F FulRan=T
         wScrn=  0.000000 ICntrl=       600 IOpCl=  0 I1Cent=           0 NGrid=           0
         NMat0=    1 NMatS0=   2278 NMatT0=    0 NMatD0=    1 NMtDS0=    0 NMtDT0=    0
 Symmetry not used in FoFCou.
 Two-electron integral symmetry not used.
 Closed shell SCF:
 Using DIIS extrapolation, IDIIS=  1040.
 NGot=  8589934592 LenX=  8584731422 LenY=  8584725940
 Requested convergence on RMS density matrix=1.00D-08 within 100 cycles.
 Requested convergence on MAX density matrix=1.00D-06.
 Requested convergence on             energy=1.00D-06.
 No special actions if energy rises.
 Integral accuracy reduced to 1.0D-05 until final iterations.

 Cycle   1  Pass 0  IDiag  1:
 E= -139.345607158214    
 DIIS: error= 1.60D-02 at cycle   1 NSaved=   1.
 NSaved= 1 IEnMin= 1 EnMin= -139.345607158214     IErMin= 1 ErrMin= 1.60D-02
 ErrMax= 1.60D-02  0.00D+00 EMaxC= 1.00D-01 BMatC= 1.98D-02 BMatP= 1.98D-02
 IDIUse=3 WtCom= 8.40D-01 WtEn= 1.60D-01
 Coeff-Com:  0.100D+01
 Coeff-En:   0.100D+01
 Coeff:      0.100D+01
 Gap=     0.611 Goal=   None    Shift=    0.000
 GapD=    0.611 DampG=2.000 DampE=0.500 DampFc=1.0000 IDamp=-1.
 RMSDP=3.70D-03 MaxDP=6.32D-02              OVMax= 6.60D-02

 Cycle   2  Pass 0  IDiag  1:
 E= -139.353478862326     Delta-E=       -0.007871704112 Rises=F Damp=F
 DIIS: error= 1.55D-02 at cycle   2 NSaved=   2.
 NSaved= 2 IEnMin= 2 EnMin= -139.353478862326     IErMin= 2 ErrMin= 1.55D-02
 ErrMax= 1.55D-02  0.00D+00 EMaxC= 1.00D-01 BMatC= 1.88D-02 BMatP= 1.98D-02
 IDIUse=3 WtCom= 8.45D-01 WtEn= 1.55D-01
 Coeff-Com:  0.493D+00 0.507D+00
 Coeff-En:   0.314D+00 0.686D+00
 Coeff:      0.465D+00 0.535D+00
 Gap=     0.574 Goal=   None    Shift=    0.000
 RMSDP=1.36D-03 MaxDP=2.73D-02 DE=-7.87D-03 OVMax= 2.91D-02

 Cycle   3  Pass 0  IDiag  1:
 E= -139.364515061342     Delta-E=       -0.011036199016 Rises=F Damp=F
 DIIS: error= 2.06D-03 at cycle   3 NSaved=   3.
 NSaved= 3 IEnMin= 3 EnMin= -139.364515061342     IErMin= 3 ErrMin= 2.06D-03
 ErrMax= 2.06D-03  0.00D+00 EMaxC= 1.00D-01 BMatC= 2.60D-04 BMatP= 1.88D-02
 IDIUse=3 WtCom= 9.79D-01 WtEn= 2.06D-02
 Coeff-Com:  0.171D-01 0.932D-01 0.890D+00
 Coeff-En:   0.000D+00 0.000D+00 0.100D+01
 Coeff:      0.167D-01 0.913D-01 0.892D+00
 Gap=     0.568 Goal=   None    Shift=    0.000
 RMSDP=4.15D-04 MaxDP=3.89D-03 DE=-1.10D-02 OVMax= 4.36D-03

 Cycle   4  Pass 0  IDiag  1:
 E= -139.364746325794     Delta-E=       -0.000231264452 Rises=F Damp=F
 DIIS: error= 4.49D-04 at cycle   4 NSaved=   4.
 NSaved= 4 IEnMin= 4 EnMin= -139.364746325794     IErMin= 4 ErrMin= 4.49D-04
 ErrMax= 4.49D-04  0.00D+00 EMaxC= 1.00D-01 BMatC= 2.20D-05 BMatP= 2.60D-04
 IDIUse=3 WtCom= 9.96D-01 WtEn= 4.49D-03
 Coeff-Com: -0.220D-01-0.267D-01 0.130D+00 0.919D+00
 Coeff-En:   0.000D+00 0.000D+00 0.000D+00 0.100D+01
 Coeff:     -0.219D-01-0.266D-01 0.129D+00 0.919D+00
 Gap=     0.565 Goal=   None    Shift=    0.000
 RMSDP=1.28D-04 MaxDP=1.41D-03 DE=-2.31D-04 OVMax= 1.12D-03

 Cycle   5  Pass 0  IDiag  1:
 E= -139.364764631160     Delta-E=       -0.000018305366 Rises=F Damp=F
 DIIS: error= 1.29D-04 at cycle   5 NSaved=   5.
 NSaved= 5 IEnMin= 5 EnMin= -139.364764631160     IErMin= 5 ErrMin= 1.29D-04
 ErrMax= 1.29D-04  0.00D+00 EMaxC= 1.00D-01 BMatC= 1.20D-06 BMatP= 2.20D-05
 IDIUse=3 WtCom= 9.99D-01 WtEn= 1.29D-03
 Coeff-Com: -0.725D-02-0.130D-01-0.438D-02 0.268D+00 0.757D+00
 Coeff-En:   0.000D+00 0.000D+00 0.000D+00 0.000D+00 0.100D+01
 Coeff:     -0.724D-02-0.130D-01-0.438D-02 0.267D+00 0.757D+00
 Gap=     0.566 Goal=   None    Shift=    0.000
 RMSDP=3.78D-05 MaxDP=6.12D-04 DE=-1.83D-05 OVMax= 2.68D-04

 Cycle   6  Pass 0  IDiag  1:
 E= -139.364765805723     Delta-E=       -0.000001174563 Rises=F Damp=F
 DIIS: error= 1.07D-05 at cycle   6 NSaved=   6.
 NSaved= 6 IEnMin= 6 EnMin= -139.364765805723     IErMin= 6 ErrMin= 1.07D-05
 ErrMax= 1.07D-05  0.00D+00 EMaxC= 1.00D-01 BMatC= 1.16D-08 BMatP= 1.20D-06
 IDIUse=1 WtCom= 1.00D+00 WtEn= 0.00D+00
 Coeff-Com:  0.111D-02 0.131D-02-0.691D-02-0.406D-01-0.386D-01 0.108D+01
 Coeff:      0.111D-02 0.131D-02-0.691D-02-0.406D-01-0.386D-01 0.108D+01
 Gap=     0.566 Goal=   None    Shift=    0.000
 RMSDP=8.58D-06 MaxDP=9.77D-05 DE=-1.17D-06 OVMax= 6.59D-05

 Initial convergence to 1.0D-05 achieved.  Increase integral accuracy.
 Cycle   7  Pass 1  IDiag  1:
 E= -139.364764555913     Delta-E=        0.000001249810 Rises=F Damp=F
 DIIS: error= 2.03D-06 at cycle   1 NSaved=   1.
 NSaved= 1 IEnMin= 1 EnMin= -139.364764555913     IErMin= 1 ErrMin= 2.03D-06
 ErrMax= 2.03D-06  0.00D+00 EMaxC= 1.00D-01 BMatC= 3.94D-10 BMatP= 3.94D-10
 IDIUse=1 WtCom= 1.00D+00 WtEn= 0.00D+00
 Coeff-Com:  0.100D+01
 Coeff:      0.100D+01
 Gap=     0.566 Goal=   None    Shift=    0.000
 RMSDP=8.58D-06 MaxDP=9.77D-05 DE= 1.25D-06 OVMax= 1.07D-05

 Cycle   8  Pass 1  IDiag  1:
 E= -139.364764556792     Delta-E=       -0.000000000879 Rises=F Damp=F
 DIIS: error= 6.54D-07 at cycle   2 NSaved=   2.
 NSaved= 2 IEnMin= 2 EnMin= -139.364764556792     IErMin= 2 ErrMin= 6.54D-07
 ErrMax= 6.54D-07  0.00D+00 EMaxC= 1.00D-01 BMatC= 5.70D-11 BMatP= 3.94D-10
 IDIUse=1 WtCom= 1.00D+00 WtEn= 0.00D+00
 Coeff-Com: -0.125D-01 0.101D+01
 Coeff:     -0.125D-01 0.101D+01
 Gap=     0.566 Goal=   None    Shift=    0.000
 RMSDP=3.33D-07 MaxDP=3.95D-06 DE=-8.79D-10 OVMax= 4.40D-06

 Cycle   9  Pass 1  IDiag  1:
 E= -139.364764556877     Delta-E=       -0.000000000084 Rises=F Damp=F
 DIIS: error= 7.51D-07 at cycle   3 NSaved=   3.
 NSaved= 3 IEnMin= 3 EnMin= -139.364764556877     IErMin= 2 ErrMin= 6.54D-07
 ErrMax= 7.51D-07  0.00D+00 EMaxC= 1.00D-01 BMatC= 4.05D-11 BMatP= 5.70D-11
 IDIUse=1 WtCom= 1.00D+00 WtEn= 0.00D+00
 Coeff-Com: -0.180D+00 0.520D+00 0.660D+00
 Coeff:     -0.180D+00 0.520D+00 0.660D+00
 Gap=     0.566 Goal=   None    Shift=    0.000
 RMSDP=7.94D-08 MaxDP=1.20D-06 DE=-8.42D-11 OVMax= 1.63D-06

 Cycle  10  Pass 1  IDiag  1:
 E= -139.364764556908     Delta-E=       -0.000000000031 Rises=F Damp=F
 DIIS: error= 7.62D-08 at cycle   4 NSaved=   4.
 NSaved= 4 IEnMin= 4 EnMin= -139.364764556908     IErMin= 4 ErrMin= 7.62D-08
 ErrMax= 7.62D-08  0.00D+00 EMaxC= 1.00D-01 BMatC= 4.67D-13 BMatP= 4.05D-11
 IDIUse=1 WtCom= 1.00D+00 WtEn= 0.00D+00
 Coeff-Com: -0.359D-01 0.491D-01 0.103D+00 0.884D+00
 Coeff:     -0.359D-01 0.491D-01 0.103D+00 0.884D+00
 Gap=     0.566 Goal=   None    Shift=    0.000
 RMSDP=2.08D-08 MaxDP=3.94D-07 DE=-3.10D-11 OVMax= 3.15D-07

 Cycle  11  Pass 1  IDiag  1:
 E= -139.364764556909     Delta-E=       -0.000000000002 Rises=F Damp=F
 DIIS: error= 2.29D-08 at cycle   5 NSaved=   5.
 NSaved= 5 IEnMin= 5 EnMin= -139.364764556909     IErMin= 5 ErrMin= 2.29D-08
 ErrMax= 2.29D-08  0.00D+00 EMaxC= 1.00D-01 BMatC= 5.04D-14 BMatP= 4.67D-13
 IDIUse=1 WtCom= 1.00D+00 WtEn= 0.00D+00
 Coeff-Com:  0.936D-02-0.356D-01-0.409D-01 0.212D+00 0.855D+00
 Coeff:      0.936D-02-0.356D-01-0.409D-01 0.212D+00 0.855D+00
 Gap=     0.566 Goal=   None    Shift=    0.000
 RMSDP=7.31D-09 MaxDP=1.03D-07 DE=-1.56D-12 OVMax= 1.00D-07

 SCF Done:  E(RLC-B+HF-LYP) =  -139.364764557     A.U. after   11 cycles
            NFock= 11  Conv=0.73D-08     -V/T= 2.0080
 KE= 1.382612932468D+02 PE=-4.044279512592D+02 EE= 8.937684540181D+01
 Leave Link  502 at Mon Mar 21 20:06:47 2022, MaxMem=  8589934592 cpu:               8.4 elap:               1.1
 (Enter /home/sabyasachi/g16/l801.exe)
 DoSCS=F DFT=T ScalE2(SS,OS)=  1.000000  1.000000
 ExpMin= 6.71D-02 ExpMax= 2.89D+03 ExpMxC= 4.35D+02 IAcc=3 IRadAn=         5 AccDes= 0.00D+00
 HarFok:  IExCor=  205 AccDes= 0.00D+00 IRadAn=         5 IDoV=-2 UseB2=F ITyADJ=14
 ICtDFT= 12500011 ScaDFX=  1.000000  1.000000  1.000000  1.000000
 Largest valence mixing into a core orbital is  6.32D-05
 Largest core mixing into a valence orbital is  6.63D-06
 Range of M.O.s used for correlation:     3    67
 NBasis=    67 NAE=     9 NBE=     9 NFC=     2 NFV=     0
 NROrb=     65 NOA=     7 NOB=     7 NVA=    58 NVB=    58

 **** Warning!!: The largest alpha MO coefficient is  0.21213455D+02

 Leave Link  801 at Mon Mar 21 20:06:47 2022, MaxMem=  8589934592 cpu:               0.4 elap:               0.1
 (Enter /home/sabyasachi/g16/l914.exe)
 RHF ground state
 Keep R1, R2, and R3 ints in memory in canonical form, NReq=207421788.
 FoFCou: FMM=F IPFlag=           0 FMFlag=           0 FMFlg1=           0
         NFxFlg=           0 DoJE=F BraDBF=F KetDBF=F FulRan=T
         wScrn=  0.000000 ICntrl=       600 IOpCl=  0 I1Cent=           0 NGrid=           0
         NMat0=    1 NMatS0=   2278 NMatT0=    0 NMatD0=    1 NMtDS0=    0 NMtDT0=    0
 Symmetry not used in FoFCou.
 Two-electron integral symmetry not used.
 MDV=  8589934592 DFT=T DoStab=F Mixed=T DoRPA=T DoScal=F NonHer=T
 Making orbital integer symmetry assigments:
 Orbital symmetries:
       Occupied  (A) (A) (A) (A) (A) (A) (A) (A) (A)
       Virtual   (A) (A) (A) (A) (A) (A) (A) (A) (A) (A) (A) (A)
                 (A) (A) (A) (A) (A) (A) (A) (A) (A) (A) (A) (A)
                 (A) (A) (A) (A) (A) (A) (A) (A) (A) (A) (A) (A)
                 (A) (A) (A) (A) (A) (A) (A) (A) (A) (A) (A) (A)
                 (A) (A) (A) (A) (A) (A) (A) (A) (A) (A)
   406 initial guesses have been made.
 Convergence on wavefunction:    0.001000000000000
 Davidson Disk Diagonalization:  ConvIn= 1.00D-03 SkipCon=T Conv= 1.00D-03.
 Max sub-space:  2436 roots to seek:   812 dimension of matrix:          812
 *** WARNING: Number of orthogonal guesses is          406
 Iteration     1 Dimension   406 NMult     0 NNew    406
 CISAX will form   406 AO SS matrices at one time.
 NMat=   406 NSing=   406 JSym2X= 0.
 New state      7 was old state      8
 New state      8 was old state      7
 New state      9 was old state     12
 New state     10 was old state      9
 New state     11 was old state     10
 New state     12 was old state     11
 New state     15 was old state     18
 New state     16 was old state     19
 New state     17 was old state     21
 New state     18 was old state     15
 New state     19 was old state     16
 New state     20 was old state     17
 New state     21 was old state     22
 New state     22 was old state     23
 New state     23 was old state     20
 New state     25 was old state     36
 New state     26 was old state     37
 New state     27 was old state     29
 New state     28 was old state     30
 New state     29 was old state     25
 New state     30 was old state     27
 New state     31 was old state     28
 New state     32 was old state     26
 New state     33 was old state     31
 New state     34 was old state     32
 New state     35 was old state     39
 New state     36 was old state     42
 New state     37 was old state     43
 New state     38 was old state     35
 New state     39 was old state     44
 New state     40 was old state     46
 New state     41 was old state     45
 New state     42 was old state     47
 New state     43 was old state     51
 New state     44 was old state     41
 New state     45 was old state     38
 New state     46 was old state     33
 New state     47 was old state     34
 New state     48 was old state     54
 New state     49 was old state     55
 New state     50 was old state     53
 New state     51 was old state     52
 New state     52 was old state     48
 New state     53 was old state     49
 New state     54 was old state     50
 New state     55 was old state     75
 New state     58 was old state     59
 New state     59 was old state     58
 New state     62 was old state     73
 New state     63 was old state     74
 New state     64 was old state     63
 New state     65 was old state     64
 New state     67 was old state     65
 New state     68 was old state     62
 New state     72 was old state     67
 New state     73 was old state     68
 New state     74 was old state     72
 New state     75 was old state     88
 New state     76 was old state     82
 New state     77 was old state     83
 New state     78 was old state     77
 New state     79 was old state     76
 New state     80 was old state     79
 New state     82 was old state     80
 New state     83 was old state     78
 New state     84 was old state     85
 New state     85 was old state     84
 No map to state     88
 New state     89 was old state     94
 New state     90 was old state     96
 New state     91 was old state     95
 New state     92 was old state     89
 New state     93 was old state     90
 New state     94 was old state     91
 New state     95 was old state    102
 New state     96 was old state    101
 New state     97 was old state     98
 New state     98 was old state    103
 New state     99 was old state    104
 New state    100 was old state     97
 New state    101 was old state    100
 New state    102 was old state     99
 New state    103 was old state     92
 New state    104 was old state    107
 New state    105 was old state    110
 New state    106 was old state    108
 New state    107 was old state     93
 New state    108 was old state    111
 New state    109 was old state    112
 New state    110 was old state    105
 New state    111 was old state    106
 New state    112 was old state    115
 New state    115 was old state    109
 New state    119 was old state    126
 New state    120 was old state    129
 New state    121 was old state    130
 New state    122 was old state    121
 New state    123 was old state    125
 New state    125 was old state    122
 New state    126 was old state    120
 New state    127 was old state    119
 New state    128 was old state    127
 New state    129 was old state    128
 New state    130 was old state    134
 New state    131 was old state    123
 New state    132 was old state    133
 New state    133 was old state    135
 New state    134 was old state    136
 New state    135 was old state    131
 New state    136 was old state    132
 New state    139 was old state    141
 New state    140 was old state    142
 New state    141 was old state    144
 New state    142 was old state    143
 New state    143 was old state    139
 New state    144 was old state    140
 New state    146 was old state    147
 New state    147 was old state    148
 New state    148 was old state    149
 New state    149 was old state    153
 New state    150 was old state    155
 New state    151 was old state    156
 New state    152 was old state    151
 New state    153 was old state    152
 New state    155 was old state    146
 New state    156 was old state    150
 New state    161 was old state    164
 New state    162 was old state    168
 New state    163 was old state    169
 New state    164 was old state    167
 New state    165 was old state    166
 New state    166 was old state    161
 New state    167 was old state    174
 New state    168 was old state    175
 New state    169 was old state    171
 New state    171 was old state    172
 New state    172 was old state    165
 New state    173 was old state    162
 New state    174 was old state    163
 New state    175 was old state    173
 New state    176 was old state    179
 New state    177 was old state    180
 New state    178 was old state    182
 New state    179 was old state    176
 New state    180 was old state    177
 New state    181 was old state    178
 New state    182 was old state    181
 New state    183 was old state    185
 New state    184 was old state    186
 New state    185 was old state    187
 New state    186 was old state    184
 New state    187 was old state    183
 New state    189 was old state    198
 New state    190 was old state    199
 New state    191 was old state    195
 New state    192 was old state    196
 New state    193 was old state    192
 New state    194 was old state    191
 New state    195 was old state    194
 New state    196 was old state    193
 New state    198 was old state    189
 New state    199 was old state    190
 New state    200 was old state    201
 New state    201 was old state    202
 New state    202 was old state    206
 New state    203 was old state    200
 New state    204 was old state    207
 New state    205 was old state    209
 New state    206 was old state    210
 New state    207 was old state    211
 New state    208 was old state    203
 New state    209 was old state    212
 New state    210 was old state    213
 New state    211 was old state    204
 New state    212 was old state    205
 New state    213 was old state    214
 New state    214 was old state    224
 New state    215 was old state    216
 New state    216 was old state    217
 New state    217 was old state    215
 New state    218 was old state    220
 New state    219 was old state    221
 New state    220 was old state    222
 New state    221 was old state    218
 New state    222 was old state    219
 New state    224 was old state    225
 New state    225 was old state    226
 New state    226 was old state    227
 New state    227 was old state    228
 No map to state    228
 New state    229 was old state    231
 New state    230 was old state    232
 New state    231 was old state    229
 New state    232 was old state    230
 New state    235 was old state    238
 New state    236 was old state    237
 New state    237 was old state    239
 New state    238 was old state    235
 New state    239 was old state    236
 New state    243 was old state    244
 New state    244 was old state    245
 New state    245 was old state    246
 New state    246 was old state    253
 New state    247 was old state    254
 New state    248 was old state    250
 New state    250 was old state    247
 New state    251 was old state    248
 New state    253 was old state    251
 New state    254 was old state    243
 New state    255 was old state    258
 New state    256 was old state    259
 New state    257 was old state    255
 New state    258 was old state    260
 New state    259 was old state    256
 New state    260 was old state    257
 New state    261 was old state    267
 New state    262 was old state    268
 New state    263 was old state    264
 New state    264 was old state    265
 New state    265 was old state    266
 New state    266 was old state    261
 New state    267 was old state    262
 New state    268 was old state    276
 New state    269 was old state    271
 New state    270 was old state    269
 New state    271 was old state    270
 New state    276 was old state    279
 New state    277 was old state    278
 New state    278 was old state    280
 New state    279 was old state    281
 New state    280 was old state    277
 New state    281 was old state    282
 New state    282 was old state    283
 New state    283 was old state    295
 New state    287 was old state    288
 New state    288 was old state    287
 New state    295 was old state    297
 New state    296 was old state    298
 New state    297 was old state    299
 New state    298 was old state    300
 New state    299 was old state    296
 New state    300 was old state    301
 New state    301 was old state    302
 New state    302 was old state    303
 New state    303 was old state    304
 New state    304 was old state    306
 New state    306 was old state    307
 New state    307 was old state    308
 New state    308 was old state    309
 New state    309 was old state    310
 New state    310 was old state    313
 New state    313 was old state    318
 New state    318 was old state    331
 New state    322 was old state    324
 New state    323 was old state    325
 New state    324 was old state    322
 New state    325 was old state    323
 New state    326 was old state    328
 New state    328 was old state    330
 New state    330 was old state    326
 New state    331 was old state    332
 New state    332 was old state    344
 New state    333 was old state    334
 New state    334 was old state    339
 New state    335 was old state    337
 New state    336 was old state    338
 New state    337 was old state    333
 New state    338 was old state    335
 New state    339 was old state    336
 New state    340 was old state    342
 New state    341 was old state    343
 New state    342 was old state    340
 New state    343 was old state    341
 No map to state    344
 New state    353 was old state    355
 New state    354 was old state    353
 New state    355 was old state    354
 New state    357 was old state    358
 New state    358 was old state    359
 New state    359 was old state    363
 New state    360 was old state    364
 New state    361 was old state    360
 New state    363 was old state    361
 New state    364 was old state    357
 New state    365 was old state    369
 New state    366 was old state    371
 New state    369 was old state    365
 New state    370 was old state    366
 New state    371 was old state    374
 New state    372 was old state    373
 New state    373 was old state    375
 New state    374 was old state    370
 New state    375 was old state    372
 New state    376 was old state    381
 New state    377 was old state    382
 New state    378 was old state    377
 New state    379 was old state    378
 New state    380 was old state    379
 New state    381 was old state    380
 New state    382 was old state    376
 New state    394 was old state    396
 New state    395 was old state    397
 New state    396 was old state    394
 New state    397 was old state    395
 New state    401 was old state    402
 New state    402 was old state    403
 New state    403 was old state    401
 Excitation Energies [eV] at current iteration:
 Root      1 :     9.651865023662710
 Root      2 :     9.651918154464269
 Root      3 :    10.393914489656440
 Root      4 :    10.393985142095960
 Root      5 :    11.909868826024470
 Root      6 :    11.909872823867690
 Root      7 :    11.975395931809270
 Root      8 :    12.111389323866990
 Root      9 :    12.711248852144680
 Root     10 :    12.765812503444910
 Root     11 :    12.765871740446740
 Root     12 :    13.232728295628660
 Root     13 :    13.232733765981900
 Root     14 :    13.271197034300330
 Root     15 :    13.818677063834150
 Root     16 :    13.846950986868110
 Root     17 :    13.846962086157580
 Root     18 :    13.978428229960860
 Root     19 :    13.978488788978070
 Root     20 :    14.049213976033340
 Root     21 :    14.369922239075540
 Root     22 :    14.369976404228470
 Root     23 :    14.518113424724390
 Root     24 :    15.140967145840500
 Root     25 :    15.519002824503250
 Root     26 :    15.519047650111060
 Root     27 :    15.995417179114640
 Root     28 :    15.995444894449950
 Root     29 :    16.119765498535850
 Root     30 :    16.120771466008510
 Root     31 :    16.120791892161890
 Root     32 :    16.460472906615940
 Root     33 :    16.710180524768980
 Root     34 :    16.710246168507790
 Root     35 :    16.797872535687290
 Root     36 :    17.000127502376360
 Root     37 :    17.000195402406910
 Root     38 :    17.002784484518990
 Root     39 :    17.230721825645660
 Root     40 :    17.230732203560320
 Root     41 :    17.398047762691990
 Root     42 :    17.398052354606320
 Root     43 :    17.406719767680180
 Root     44 :    17.437110897684470
 Root     45 :    17.458122857860500
 Root     46 :    17.691267868869450
 Root     47 :    17.691332644834750
 Root     48 :    18.021597501192220
 Root     49 :    18.021615555880240
 Root     50 :    18.081959581496570
 Root     51 :    18.081964371489310
 Root     52 :    18.340774134023350
 Root     53 :    18.388095486301930
 Root     54 :    18.388103291789250
 Root     55 :    18.577301854693610
 Root     56 :    18.862111593947700
 Root     57 :    18.862173235128330
 Root     58 :    19.014399619991260
 Root     59 :    19.084095817681400
 Root     60 :    19.084105611372390
 Root     61 :    19.225373996626870
 Root     62 :    19.519717845221070
 Root     63 :    19.519772855230600
 Root     64 :    20.043936686145270
 Root     65 :    20.051836579277090
 Root     66 :    20.148481487151550
 Root     67 :    20.148491159756800
 Root     68 :    20.159314764422650
 Root     69 :    20.499557076675260
 Root     70 :    20.539465785369660
 Root     71 :    20.539542337464280
 Root     72 :    20.961823972432100
 Root     73 :    20.961887048545620
 Root     74 :    21.018684413998790
 Root     75 :    21.348735595971170
 Root     76 :    21.455461871861830
 Root     77 :    21.455468941652740
 Root     78 :    21.564238690444220
 Root     79 :    21.564262006538520
 Root     80 :    21.596649141634490
 Root     81 :    21.609491352598150
 Root     82 :    21.609512797640800
 Root     83 :    21.617549140550550
 Root     84 :    22.140795741364900
 Root     85 :    22.140798671447470
 Root     86 :    22.465506615163700
 Root     87 :    22.465556013978490
 Root     88 :    22.570836611045690
 Root     89 :    22.596843931299770
 Root     90 :    22.643087146021620
 Root     91 :    22.643098213468450
 Root     92 :    22.728817377202780
 Root     93 :    22.728824320411090
 Root     94 :    22.986695220308700
 Root     95 :    23.052092594729480
 Root     96 :    23.052120902333200
 Root     97 :    23.181400365467630
 Root     98 :    23.287378155981210
 Root     99 :    23.287399979073000
 Root    100 :    23.299759599236030
 Root    101 :    23.445728219031440
 Root    102 :    23.445734708630830
 Root    103 :    23.797541429103920
 Root    104 :    24.036476938382290
 Root    105 :    24.160012194240010
 Root    106 :    24.160013727879330
 Root    107 :    24.187900364709140
 Root    108 :    24.223446122075640
 Root    109 :    24.223482245890070
 Root    110 :    24.387193065923910
 Root    111 :    24.387229199642500
 Root    112 :    24.580380674215210
 Root    113 :    24.680483388528300
 Root    114 :    24.680532964169340
 Root    115 :    25.022424797164240
 Root    116 :    25.724871882840140
 Root    117 :    25.724944546137830
 Root    118 :    25.842842123246820
 Root    119 :    26.097707247890040
 Root    120 :    26.413281053156270
 Root    121 :    26.413317243673240
 Root    122 :    26.574989561595430
 Root    123 :    26.757460676927690
 Root    124 :    26.757515998869720
 Root    125 :    26.988006036342340
 Root    126 :    26.988038659849680
 Root    127 :    27.116694206689710
 Root    128 :    27.658180044520110
 Root    129 :    27.658195430750570
 Root    130 :    27.686991945125770
 Root    131 :    27.774508173562890
 Root    132 :    28.109085274533200
 Root    133 :    28.109106679387620
 Root    134 :    28.128983857225780
 Root    135 :    28.554127435359360
 Root    136 :    28.742372722005510
 Root    137 :    29.003700763954540
 Root    138 :    29.003734213543070
 Root    139 :    29.120533180838170
 Root    140 :    29.385622506303460
 Root    141 :    29.385637945800110
 Root    142 :    29.602908745037510
 Root    143 :    30.168586026465070
 Root    144 :    30.168617863417520
 Root    145 :    30.356612514109350
 Root    146 :    30.523242387412650
 Root    147 :    30.523291059030220
 Root    148 :    30.861255417860890
 Root    149 :    31.524952150719040
 Root    150 :    31.780217378525580
 Root    151 :    31.780275688127410
 Root    152 :    31.971084369008840
 Root    153 :    31.971117881225820
 Root    154 :    31.999487476843360
 Root    155 :    32.261661962549510
 Root    156 :    32.625573998996400
 Root    157 :    32.665238554016570
 Root    158 :    32.665263892005450
 Root    159 :    33.143171332547490
 Root    160 :    33.143229260752290
 Root    161 :    33.378566599013790
 Root    162 :    33.459067798387570
 Root    163 :    33.459102751533640
 Root    164 :    33.582521428333070
 Root    165 :    33.582529298872510
 Root    166 :    33.854060656666020
 Root    167 :    33.869290201780300
 Root    168 :    33.869325575304020
 Root    169 :    33.957297062186950
 Root    170 :    34.236098853831440
 Root    171 :    34.236108119173140
 Root    172 :    34.268975574621440
 Root    173 :    34.803141646992420
 Root    174 :    34.803160769091090
 Root    175 :    34.932276335364980
 Root    176 :    35.116263152634640
 Root    177 :    35.133595618475520
 Root    178 :    35.133598900201810
 Root    179 :    35.592046569042140
 Root    180 :    35.902577383500230
 Root    181 :    35.902633441696440
 Root    182 :    36.124840269330270
 Root    183 :    36.692844122238040
 Root    184 :    36.836347992441740
 Root    185 :    36.836393852938190
 Root    186 :    37.101370589743080
 Root    187 :    37.101386764279870
 Root    188 :    37.146589438932970
 Root    189 :    37.226454145763580
 Root    190 :    37.226494996719360
 Root    191 :    37.440303187481550
 Root    192 :    37.440404159021940
 Root    193 :    37.761232653090940
 Root    194 :    38.150153260481370
 Root    195 :    38.196334955469930
 Root    196 :    38.196372144705900
 Root    197 :    38.386021245941580
 Root    198 :    38.517159127309410
 Root    199 :    38.517209721770480
 Root    200 :    38.757685271176750
 Root    201 :    38.757721034355450
 Root    202 :    38.841198372075340
 Root    203 :    38.930317548758630
 Root    204 :    38.959098591820340
 Root    205 :    38.959133917419190
 Root    206 :    39.018439583815880
 Root    207 :    39.018471854802310
 Root    208 :    40.028495838406370
 Root    209 :    40.153290368518700
 Root    210 :    40.153321650591240
 Root    211 :    40.460798670340800
 Root    212 :    40.460825207179110
 Root    213 :    41.213396114317560
 Root    214 :    41.334344869307120
 Root    215 :    41.988924656094210
 Root    216 :    41.988946439845270
 Root    217 :    42.020457937647970
 Root    218 :    42.234288976427030
 Root    219 :    42.234341331290570
 Root    220 :    42.236779099004140
 Root    221 :    42.926882310879980
 Root    222 :    42.926910608933820
 Root    223 :    43.208615017714810
 Root    224 :    43.800324466130180
 Root    225 :    44.149328262997070
 Root    226 :    44.149521119956780
 Root    227 :    44.389255832897830
 Root    228 :    44.525033656576600
 Root    229 :    45.023773395528810
 Root    230 :    45.023856613541800
 Root    231 :    45.690084162053410
 Root    232 :    45.690144577859750
 Root    233 :    48.588692846626560
 Root    234 :    49.178437431603160
 Root    235 :    49.737706293079650
 Root    236 :    49.945758690343940
 Root    237 :    49.945764233217520
 Root    238 :    50.280621952181510
 Root    239 :    50.280690600953800
 Root    240 :    50.993358643006500
 Root    241 :    51.507191009106120
 Root    242 :    51.507224766475310
 Root    243 :    52.806347753541020
 Root    244 :    52.989969799191850
 Root    245 :    52.989974138463800
 Root    246 :    53.892831609288890
 Root    247 :    53.892929610410490
 Root    248 :    54.071188051687880
 Root    249 :    54.290993215649410
 Root    250 :    54.327109550351350
 Root    251 :    54.327169459061770
 Root    252 :    54.516896296458800
 Root    253 :    54.516960886266030
 Root    254 :    55.258728083369800
 Root    255 :    55.756025702429770
 Root    256 :    55.756058742197310
 Root    257 :    55.948693727972770
 Root    258 :    56.499257772526290
 Root    259 :    56.512287617229080
 Root    260 :    56.512469748760500
 Root    261 :    57.055054312608900
 Root    262 :    57.055172190993320
 Root    263 :    57.192280128895670
 Root    264 :    57.266324948629990
 Root    265 :    57.266339137251540
 Root    266 :    57.658306149895760
 Root    267 :    57.658389531492550
 Root    268 :    58.368104032771970
 Root    269 :    58.420528484726010
 Root    270 :    58.454968219813940
 Root    271 :    58.455012596741650
 Root    272 :    59.974284066254920
 Root    273 :    59.974421474491750
 Root    274 :    60.166095611564450
 Root    275 :    60.166198318369670
 Root    276 :    60.466202711984190
 Root    277 :    60.888759673173670
 Root    278 :    60.973200257599480
 Root    279 :    60.973213186817560
 Root    280 :    61.073363194523640
 Root    281 :    61.798858931792540
 Root    282 :    61.798893589522460
 Root    283 :    62.355290673072470
 Root    284 :    63.405831337025110
 Root    285 :    63.405939071593000
 Root    286 :    63.724892477188720
 Root    287 :    64.648724740628140
 Root    288 :    64.759827356588420
 Root    289 :    64.864659672526270
 Root    290 :    64.864724964135050
 Root    291 :    65.100651147797890
 Root    292 :    65.100904686191330
 Root    293 :    65.285285800539530
 Root    294 :    65.285357682950750
 Root    295 :    66.219124312348170
 Root    296 :    66.288392950843050
 Root    297 :    66.293630857477710
 Root    298 :    66.293643563154090
 Root    299 :    67.247666673196950
 Root    300 :    68.631367182617620
 Root    301 :    68.631407728468990
 Root    302 :    68.807811977806370
 Root    303 :    70.079440628175670
 Root    304 :    70.134320365682330
 Root    305 :    70.134325699010720
 Root    306 :    70.213170595086610
 Root    307 :    70.213201026128710
 Root    308 :    70.539463091725710
 Root    309 :    70.539635646233140
 Root    310 :    70.700683331103660
 Root    311 :    70.961235439120830
 Root    312 :    70.961318910301430
 Root    313 :    72.218913238983750
 Root    314 :    72.708064145278000
 Root    315 :    72.708214608795130
 Root    316 :    72.955360175735990
 Root    317 :    72.955442451626300
 Root    318 :    73.722108749069700
 Root    319 :    74.813792605011260
 Root    320 :    74.813846061940410
 Root    321 :    75.205989573456990
 Root    322 :    75.772503915307130
 Root    323 :    75.772568115564870
 Root    324 :    76.083487688792100
 Root    325 :    76.083600319552770
 Root    326 :    76.246912428347870
 Root    327 :    76.650300459601850
 Root    328 :    76.803733097344180
 Root    329 :    76.803774490103690
 Root    330 :    77.604805424068390
 Root    331 :    79.003727755171010
 Root    332 :    79.797027719275990
 Root    333 :    80.376402996984280
 Root    334 :    80.496526225644090
 Root    335 :    80.568170019391990
 Root    336 :    80.568323051333890
 Root    337 :    80.900880436466150
 Root    338 :    80.901183236974150
 Root    339 :    81.294170941640810
 Root    340 :    83.674118776173500
 Root    341 :    83.674204936709860
 Root    342 :    83.932836641810210
 Root    343 :    83.933076415865700
 Root    344 :    84.521030193777110
 Root    345 :    86.169033215416590
 Root    346 :    86.169498821893090
 Root    347 :    87.841816078786150
 Root    348 :    87.841873195490050
 Root    349 :    88.214370427429220
 Root    350 :    89.128093185099350
 Root    351 :    89.128304138937980
 Root    352 :    90.066596166322530
 Root    353 :    90.109939217757980
 Root    354 :    90.109945342246210
 Root    355 :    90.330314731933400
 Root    356 :    92.165430698476610
 Root    357 :    93.524710572200930
 Root    358 :    94.094416360115930
 Root    359 :    94.191641446781430
 Root    360 :    94.192123747786480
 Root    361 :    94.245979717301520
 Root    362 :    94.362424685711570
 Root    363 :    94.362437653254910
 Root    364 :    94.773814925155990
 Root    365 :    99.252036669798140
 Root    366 :    99.254657654151960
 Root    367 :    99.625772779484180
 Root    368 :    99.625871489322490
 Root    369 :    99.714701530848090
 Root    370 :    99.714791943912350
 Root    371 :   101.749259498503400
 Root    372 :   101.849244129569500
 Root    373 :   101.849251704557500
 Root    374 :   102.155372932181700
 Root    375 :   102.155395931885500
 Root    376 :   102.968938311396100
 Root    377 :   102.968980143418800
 Root    378 :   104.818812530282400
 Root    379 :   104.830882306228400
 Root    380 :   105.004614274162200
 Root    381 :   105.004639275709000
 Root    382 :   105.462772795694900
 Root    383 :   107.146433820015900
 Root    384 :   107.243157616046400
 Root    385 :   107.243160393314700
 Root    386 :   107.268676190311000
 Root    387 :   108.650700511743000
 Root    388 :   109.366619424441000
 Root    389 :   109.366654047335300
 Root    390 :   111.661410153624200
 Root    391 :   111.661429430694200
 Root    392 :   113.276262459309900
 Root    393 :   113.276751729463200
 Root    394 :   113.627783207184000
 Root    395 :   113.627852754082000
 Root    396 :   114.884755420274100
 Root    397 :   114.884831074814600
 Root    398 :   117.429682328583600
 Root    399 :   117.429761388776800
 Root    400 :   119.304349726873900
 Root    401 :   122.433313052271100
 Root    402 :   122.433341833679100
 Root    403 :   124.059047681178600
 Root    404 :   125.185352520654900
 Root    405 :   125.185458394294000
 Root    406 :   135.031336996583800
 Convergence achieved for final wavefunctions.
 ***********************************************************************
 Excited states from <AA,BB:AA,BB> singles matrix:
 ***********************************************************************
 
 1PDM for each excited state written to RWF  633
 Ground to excited state transition densities written to RWF  633
 Ground to excited state transition electric dipole moments (Au):
       state          X           Y           Z        Dip. S.      Osc.
         1        -0.0000      0.0156     -0.2295      0.0529      0.0125
         2        -0.0000     -0.2295     -0.0156      0.0529      0.0125
         3         0.0000      0.0547     -0.4081      0.1696      0.0432
         4        -0.0000     -0.4081     -0.0547      0.1696      0.0432
         5         0.0000      0.3445      0.1467      0.1402      0.0409
         6         0.0000     -0.1467      0.3445      0.1402      0.0409
         7         0.0000     -0.0002      0.0000      0.0000      0.0000
         8        -0.6516      0.0000      0.0000      0.4246      0.1260
         9         0.0000      0.0001     -0.0000      0.0000      0.0000
        10        -0.0000      0.0353     -0.3750      0.1419      0.0444
        11         0.0000     -0.3750     -0.0353      0.1419      0.0444
        12         0.0001     -0.5162     -0.4531      0.4718      0.1530
        13         0.0001      0.4531     -0.5162      0.4718      0.1530
        14        -0.1328     -0.0001     -0.0007      0.0176      0.0057
        15         0.0000      0.0001     -0.0000      0.0000      0.0000
        16         0.0000     -0.0301      0.1288      0.0175      0.0059
        17         0.0000      0.1288      0.0301      0.0175      0.0059
        18         0.0001     -0.1107      0.5751      0.3429      0.1174
        19         0.0001      0.5751      0.1107      0.3430      0.1175
        20         0.4067     -0.0001     -0.0001      0.1654      0.0569
        21        -0.0000     -0.0076      0.0282      0.0009      0.0003
        22        -0.0000      0.0282      0.0076      0.0009      0.0003
        23        -0.0446      0.0000      0.0000      0.0020      0.0007
        24        -1.1456     -0.0000     -0.0000      1.3124      0.4868
        25        -0.0000      0.0155     -0.1076      0.0118      0.0045
        26        -0.0000     -0.1076     -0.0155      0.0118      0.0045
        27         0.0000     -0.4681     -0.0564      0.2223      0.0871
        28         0.0000     -0.0564      0.4681      0.2223      0.0871
        29         0.0000     -0.0033      0.0007      0.0000      0.0000
        30         0.0000      0.0343     -0.1312      0.0184      0.0073
        31        -0.0000      0.1312      0.0343      0.0184      0.0073
        32        -0.2650      0.0000      0.0000      0.0702      0.0283
        33        -0.0000     -0.0172      0.2870      0.0826      0.0338
        34         0.0000      0.2870      0.0171      0.0826      0.0338
        35         0.0000      0.0000      0.0000      0.0000      0.0000
        36         0.0010     -0.0643      0.4148      0.1762      0.0734
        37        -0.0007     -0.4148     -0.0643      0.1762      0.0734
        38         0.2715     -0.0007     -0.0016      0.0737      0.0307
        39         0.0000      0.6044      0.0416      0.3671      0.1550
        40        -0.0000     -0.0416      0.6044      0.3670      0.1549
        41        -0.0001     -0.2372      0.4908      0.2972      0.1267
        42         0.0002     -0.4908     -0.2372      0.2972      0.1267
        43         0.0000     -0.0014      0.0004      0.0000      0.0000
        44        -0.5043      0.0000      0.0001      0.2543      0.1086
        45        -0.7645     -0.0000     -0.0002      0.5845      0.2500
        46         0.0000     -0.0106      0.0526      0.0029      0.0012
        47         0.0000      0.0525      0.0106      0.0029      0.0012
        48        -0.0000     -0.0146      0.1876      0.0354      0.0156
        49        -0.0000      0.1874      0.0146      0.0353      0.0156
        50        -0.0000      0.1015     -0.1795      0.0425      0.0188
        51         0.0000     -0.1796     -0.1014      0.0426      0.0189
        52        -0.0000      0.0003     -0.0000      0.0000      0.0000
        53         0.0000      0.2549      0.0434      0.0669      0.0301
        54        -0.0000     -0.0434      0.2549      0.0669      0.0301
        55         0.0488      0.0000     -0.0000      0.0024      0.0011
        56         0.0000     -0.0376     -0.0031      0.0014      0.0007
        57         0.0000     -0.0031      0.0375      0.0014      0.0007
        58        -0.0000     -0.0001      0.0000      0.0000      0.0000
        59        -0.0001      0.1354     -0.2937      0.1046      0.0489
        60         0.0001      0.2937      0.1354      0.1046      0.0489
        61         0.3862     -0.0000     -0.0001      0.1492      0.0703
        62         0.0000     -0.0254      0.1379      0.0196      0.0094
        63        -0.0000      0.1379      0.0254      0.0197      0.0094
        64        -0.0000     -0.0001      0.0001      0.0000      0.0000
        65        -0.2459      0.0001     -0.0000      0.0605      0.0297
        66        -0.0000      0.4150      0.0889      0.1801      0.0889
        67        -0.0000      0.0889     -0.4149      0.1801      0.0889
        68         0.1712      0.0001     -0.0001      0.0293      0.0145
        69        -0.5407      0.0000      0.0000      0.2924      0.1468
        70         0.0000     -0.0292      0.2200      0.0493      0.0248
        71         0.0000      0.2199      0.0292      0.0492      0.0248
        72         0.0000      0.0129     -0.0706      0.0052      0.0026
        73         0.0000     -0.0706     -0.0129      0.0052      0.0026
        74         0.0929      0.0000      0.0000      0.0086      0.0044
        75        -0.3208     -0.0000      0.0000      0.1029      0.0538
        76         0.0000     -0.0162      0.0423      0.0020      0.0011
        77         0.0001      0.0422      0.0163      0.0020      0.0011
        78         0.0000     -0.0169      0.0360      0.0016      0.0008
        79        -0.0000     -0.0361     -0.0169      0.0016      0.0008
        80        -0.0000      0.0002     -0.0003      0.0000      0.0000
        81        -0.0001     -0.1402      0.4479      0.2203      0.1166
        82        -0.0000      0.4479      0.1402      0.2203      0.1166
        83         0.0592      0.0000      0.0011      0.0035      0.0019
        84         0.0000     -0.0158      0.0583      0.0036      0.0020
        85         0.0000     -0.0583     -0.0158      0.0036      0.0020
        86         0.0000      0.0410     -0.1750      0.0323      0.0178
        87         0.0000     -0.1750     -0.0410      0.0323      0.0178
        88         0.0287      0.0000      0.0000      0.0008      0.0005
        89        -0.0000      0.0001      0.0000      0.0000      0.0000
        90         0.0000      0.1426      0.0444      0.0223      0.0124
        91        -0.0000      0.0444     -0.1426      0.0223      0.0124
        92        -0.0000     -0.0042     -0.0027      0.0000      0.0000
        93         0.0000     -0.0026      0.0042      0.0000      0.0000
        94        -0.0000      0.0000     -0.0000      0.0000      0.0000
        95         0.0000     -0.0675     -0.0219      0.0050      0.0028
        96        -0.0000     -0.0219      0.0675      0.0050      0.0028
        97        -0.0000     -0.0000      0.0000      0.0000      0.0000
        98        -0.0000      0.0192     -0.1496      0.0227      0.0130
        99        -0.0001      0.1497      0.0192      0.0228      0.0130
       100         0.2679      0.0001      0.0001      0.0718      0.0410
       101        -0.0001     -0.1369      0.4773      0.2465      0.1416
       102         0.0000     -0.4772     -0.1369      0.2465      0.1416
       103         0.4961      0.0000      0.0000      0.2462      0.1435
       104         0.0000     -0.0001      0.0000      0.0000      0.0000
       105        -0.0001      0.1216     -0.1845      0.0488      0.0289
       106        -0.0003     -0.1844     -0.1216      0.0488      0.0289
       107        -0.8290      0.0000      0.0000      0.6873      0.4073
       108        -0.0002      0.1430      0.0605      0.0241      0.0143
       109         0.0001      0.0606     -0.1429      0.0241      0.0143
       110        -0.0000     -0.1524     -0.0021      0.0232      0.0139
       111         0.0000      0.0021     -0.1524      0.0232      0.0139
       112         0.0053      0.0000      0.0000      0.0000      0.0000
       113        -0.0000     -0.0133      0.0494      0.0026      0.0016
       114        -0.0000      0.0493      0.0133      0.0026      0.0016
       115        -0.1647      0.0000     -0.0000      0.0271      0.0166
       116        -0.0000      0.0118     -0.0542      0.0031      0.0019
       117        -0.0000     -0.0542     -0.0118      0.0031      0.0019
       118        -0.2458      0.0000      0.0000      0.0604      0.0383
       119        -0.1901      0.0000      0.0000      0.0361      0.0231
       120         0.0000      0.0038      0.0668      0.0045      0.0029
       121        -0.0000      0.0667     -0.0038      0.0045      0.0029
       122         0.0000      0.0000      0.0000      0.0000      0.0000
       123        -0.0000      0.0514     -0.0075      0.0027      0.0018
       124         0.0000      0.0075      0.0514      0.0027      0.0018
       125        -0.0000      0.1392     -0.3434      0.1373      0.0908
       126        -0.0000     -0.3434     -0.1392      0.1373      0.0908
       127         0.0947     -0.0000     -0.0000      0.0090      0.0060
       128        -0.0000      0.1499     -0.1168      0.0361      0.0245
       129         0.0000      0.1168      0.1499      0.0361      0.0245
       130         0.0000     -0.0000      0.0000      0.0000      0.0000
       131         0.1694      0.0000      0.0000      0.0287      0.0195
       132         0.0010     -0.0436      0.5293      0.2820      0.1942
       133        -0.0005     -0.5293     -0.0436      0.2820      0.1942
       134        -0.4419      0.0005      0.0013      0.1952      0.1345
       135         0.0755      0.0000      0.0000      0.0057      0.0040
       136         0.0000      0.0000      0.0000      0.0000      0.0000
       137        -0.0000      0.0049     -0.1327      0.0176      0.0125
       138        -0.0000      0.1327      0.0049      0.0176      0.0125
       139        -0.0000     -0.0000     -0.0000      0.0000      0.0000
       140        -0.0000     -0.0071      0.4773      0.2278      0.1640
       141        -0.0000     -0.4773     -0.0071      0.2279      0.1640
       142        -0.5063      0.0000     -0.0000      0.2564      0.1859
       143        -0.0000      0.0928      0.0359      0.0099      0.0073
       144         0.0000      0.0359     -0.0928      0.0099      0.0073
       145         0.1128      0.0000      0.0000      0.0127      0.0095
       146        -0.0000     -0.0940      0.3613      0.1394      0.1042
       147        -0.0000      0.3613      0.0940      0.1394      0.1042
       148        -0.3830     -0.0000     -0.0000      0.1467      0.1109
       149         0.0000     -0.0000      0.0000      0.0000      0.0000
       150         0.0000     -0.0352      0.2443      0.0609      0.0474
       151        -0.0000     -0.2443     -0.0351      0.0609      0.0474
       152         0.0001     -0.0051      0.1614      0.0261      0.0204
       153        -0.0000     -0.1614     -0.0052      0.0261      0.0204
       154        -0.0299      0.0002      0.0004      0.0009      0.0007
       155         0.0532      0.0000      0.0000      0.0028      0.0022
       156        -0.0524      0.0000      0.0000      0.0027      0.0022
       157         0.0000      0.3233     -0.1817      0.1375      0.1100
       158        -0.0000     -0.1817     -0.3232      0.1375      0.1100
       159         0.0000      0.0439     -0.2458      0.0624      0.0506
       160         0.0000     -0.2458     -0.0439      0.0624      0.0506
       161         0.0000     -0.0001      0.0000      0.0000      0.0000
       162         0.0000     -0.4218      0.0845      0.1850      0.1517
       163        -0.0000     -0.0845     -0.4218      0.1850      0.1517
       164         0.0000      0.0057     -0.0023      0.0000      0.0000
       165         0.0000      0.0024      0.0057      0.0000      0.0000
       166         0.0202      0.0001      0.0000      0.0004      0.0003
       167        -0.0000      0.0083      0.0723      0.0053      0.0044
       168        -0.0000      0.0723     -0.0083      0.0053      0.0044
       169         0.0000     -0.0001      0.0000      0.0000      0.0000
       170        -0.0002     -0.0556      0.0533      0.0059      0.0050
       171         0.0001     -0.0534     -0.0556      0.0059      0.0050
       172        -0.1099      0.0000     -0.0001      0.0121      0.0101
       173         0.0000      0.0421      0.0044      0.0018      0.0015
       174        -0.0000      0.0044     -0.0421      0.0018      0.0015
       175        -0.2569      0.0000     -0.0000      0.0660      0.0565
       176        -0.0000     -0.0002      0.0000      0.0000      0.0000
       177         0.0000      0.0258     -0.0441      0.0026      0.0023
       178        -0.0000      0.0441      0.0258      0.0026      0.0023
       179        -0.3245      0.0000      0.0000      0.1053      0.0918
       180        -0.0000     -0.0022      0.0179      0.0003      0.0003
       181         0.0000     -0.0179     -0.0022      0.0003      0.0003
       182        -0.3504      0.0000      0.0000      0.1228      0.1087
       183         0.2479     -0.0000     -0.0000      0.0615      0.0553
       184         0.0000     -0.0329      0.1193      0.0153      0.0138
       185         0.0000      0.1193      0.0329      0.0153      0.0138
       186        -0.0000      0.0197     -0.0361      0.0017      0.0015
       187        -0.0000     -0.0362     -0.0197      0.0017      0.0015
       188        -0.0054      0.0000     -0.0000      0.0000      0.0000
       189         0.0000     -0.0045      0.0358      0.0013      0.0012
       190         0.0000      0.0358      0.0045      0.0013      0.0012
       191         0.0000      0.0024      0.0467      0.0022      0.0020
       192         0.0000      0.0467     -0.0025      0.0022      0.0020
       193         0.0000     -0.0000     -0.0000      0.0000      0.0000
       194         0.0923     -0.0001      0.0004      0.0085      0.0080
       195         0.0001     -0.0005     -0.2601      0.0676      0.0633
       196        -0.0000     -0.2601      0.0005      0.0677      0.0633
       197         0.1477      0.0000      0.0000      0.0218      0.0205
       198         0.0000     -0.0602     -0.2733      0.0783      0.0739
       199        -0.0000     -0.2732      0.0602      0.0783      0.0739
       200         0.0000     -0.0170     -0.0932      0.0090      0.0085
       201        -0.0000     -0.0932      0.0170      0.0090      0.0085
       202        -0.0000     -0.0001      0.0000      0.0000      0.0000
       203         0.0566      0.0001      0.0001      0.0032      0.0031
       204        -0.0000      0.0875     -0.1768      0.0389      0.0371
       205        -0.0000      0.1768      0.0875      0.0389      0.0371
       206        -0.0000      0.0434     -0.0061      0.0019      0.0018
       207         0.0000     -0.0061     -0.0435      0.0019      0.0018
       208        -0.0659     -0.0000     -0.0000      0.0043      0.0043
       209         0.0000     -0.1368      0.0084      0.0188      0.0185
       210        -0.0000     -0.0084     -0.1368      0.0188      0.0185
       211        -0.0000      0.0417     -0.0100      0.0018      0.0018
       212        -0.0000      0.0100      0.0417      0.0018      0.0018
       213         0.0258      0.0000     -0.0000      0.0007      0.0007
       214        -0.0640      0.0000      0.0000      0.0041      0.0042
       215        -0.0000      0.0001      0.0121      0.0001      0.0002
       216         0.0000     -0.0121      0.0001      0.0001      0.0002
       217         0.0000      0.0000      0.0000      0.0000      0.0000
       218        -0.0003     -0.0222      0.0822      0.0072      0.0075
       219        -0.0002      0.0822      0.0222      0.0072      0.0075
       220        -0.0414     -0.0002     -0.0007      0.0017      0.0018
       221         0.0000      0.0315      0.0172      0.0013      0.0014
       222        -0.0000      0.0172     -0.0315      0.0013      0.0014
       223        -0.0589      0.0000      0.0000      0.0035      0.0037
       224        -0.0342     -0.0000      0.0000      0.0012      0.0013
       225        -0.0000      0.0310      0.1142      0.0140      0.0151
       226        -0.0000      0.1142     -0.0310      0.0140      0.0151
       227        -0.1168     -0.0000     -0.0000      0.0136      0.0148
       228         0.0866      0.0000      0.0000      0.0075      0.0082
       229         0.0000     -0.2699      0.0012      0.0728      0.0803
       230        -0.0000      0.0012      0.2699      0.0728      0.0803
       231         0.0000     -0.0904      0.0353      0.0094      0.0105
       232         0.0000      0.0353      0.0904      0.0094      0.0105
       233        -0.0832      0.0000      0.0000      0.0069      0.0082
       234        -0.0166      0.0000     -0.0000      0.0003      0.0003
       235        -0.0000     -0.0000      0.0000      0.0000      0.0000
       236        -0.0000      0.1505      0.1155      0.0360      0.0440
       237         0.0000      0.1155     -0.1505      0.0360      0.0440
       238         0.0000      0.0143     -0.0768      0.0061      0.0075
       239        -0.0000      0.0768      0.0143      0.0061      0.0075
       240         0.4652     -0.0000      0.0000      0.2164      0.2704
       241         0.0000     -0.0116     -0.0000      0.0001      0.0002
       242         0.0000      0.0000     -0.0116      0.0001      0.0002
       243        -0.0000     -0.0000      0.0000      0.0000      0.0000
       244        -0.0000     -0.1022      0.0142      0.0106      0.0138
       245         0.0000     -0.0142     -0.1022      0.0106      0.0138
       246        -0.0000      0.0079     -0.0448      0.0021      0.0027
       247         0.0000      0.0447      0.0079      0.0021      0.0027
       248         0.0000      0.0000     -0.0000      0.0000      0.0000
       249         0.1850     -0.0000      0.0000      0.0342      0.0455
       250         0.0001     -0.0438     -0.0036      0.0019      0.0026
       251        -0.0003     -0.0035      0.0437      0.0019      0.0026
       252        -0.0000      0.0618     -0.2885      0.0870      0.1162
       253         0.0000      0.2884      0.0618      0.0870      0.1162
       254        -0.2434      0.0000     -0.0000      0.0593      0.0802
       255         0.0000     -0.0275     -0.1410      0.0206      0.0282
       256        -0.0000     -0.1410      0.0275      0.0206      0.0282
       257        -0.0682      0.0000     -0.0000      0.0046      0.0064
       258        -0.0915      0.0004      0.0004      0.0084      0.0116
       259         0.0002      0.0390      0.1669      0.0294      0.0407
       260         0.0002      0.1669     -0.0390      0.0294      0.0407
       261        -0.0000      0.0251     -0.0282      0.0014      0.0020
       262        -0.0000     -0.0282     -0.0251      0.0014      0.0020
       263         0.0000      0.0001      0.0000      0.0000      0.0000
       264         0.0000     -0.0534      0.0719      0.0080      0.0112
       265        -0.0000     -0.0719     -0.0534      0.0080      0.0112
       266         0.0000     -0.0709      0.0008      0.0050      0.0071
       267        -0.0000      0.0008      0.0709      0.0050      0.0071
       268        -0.2331      0.0000      0.0000      0.0543      0.0777
       269         0.0000      0.0000     -0.0000      0.0000      0.0000
       270         0.0001      0.0815      0.0238      0.0072      0.0103
       271        -0.0001      0.0238     -0.0815      0.0072      0.0103
       272        -0.0000      0.0198     -0.0751      0.0060      0.0089
       273        -0.0000      0.0751      0.0198      0.0060      0.0089
       274        -0.0000      0.0003      0.0112      0.0001      0.0002
       275         0.0000      0.0112     -0.0003      0.0001      0.0002
       276        -0.0917     -0.0000      0.0000      0.0084      0.0125
       277        -0.0000     -0.0001     -0.0002      0.0000      0.0000
       278        -0.0000      0.0031     -0.0915      0.0084      0.0125
       279        -0.0000      0.0915      0.0031      0.0084      0.0125
       280         0.0181     -0.0000      0.0000      0.0003      0.0005
       281         0.0000      0.0286     -0.0511      0.0034      0.0052
       282        -0.0000     -0.0510     -0.0286      0.0034      0.0052
       283         0.1591     -0.0000      0.0000      0.0253      0.0387
       284         0.0000     -0.1006      0.0817      0.0168      0.0261
       285        -0.0000      0.0817      0.1006      0.0168      0.0261
       286        -0.0000     -0.0000      0.0000      0.0000      0.0000
       287         0.0645     -0.0000      0.0000      0.0042      0.0066
       288         0.0000      0.0000      0.0000      0.0000      0.0000
       289        -0.0000     -0.0047      0.0199      0.0004      0.0007
       290        -0.0000     -0.0200     -0.0048      0.0004      0.0007
       291         0.0000      0.0855     -0.0455      0.0094      0.0150
       292         0.0000     -0.0455     -0.0855      0.0094      0.0150
       293        -0.0000     -0.0391      0.0317      0.0025      0.0041
       294        -0.0000      0.0317      0.0392      0.0025      0.0041
       295        -0.0488     -0.0000      0.0001      0.0024      0.0039
       296        -0.0000     -0.0005     -0.0008      0.0000      0.0000
       297         0.0000     -0.0503      0.0039      0.0025      0.0041
       298        -0.0001     -0.0039     -0.0503      0.0025      0.0041
       299         0.0791      0.0000     -0.0000      0.0063      0.0103
       300         0.0000     -0.0020     -0.1403      0.0197      0.0331
       301         0.0000     -0.1403      0.0020      0.0197      0.0331
       302         0.1080      0.0000      0.0000      0.0117      0.0197
       303         0.0000      0.0001      0.0001      0.0000      0.0000
       304         0.0000     -0.0053      0.0422      0.0018      0.0031
       305        -0.0000      0.0421      0.0054      0.0018      0.0031
       306        -0.0000     -0.0144     -0.1117      0.0127      0.0218
       307        -0.0000     -0.1117      0.0143      0.0127      0.0218
       308        -0.0000      0.0031     -0.0024      0.0000      0.0000
       309        -0.0000     -0.0024     -0.0032      0.0000      0.0000
       310         0.0510      0.0000     -0.0000      0.0026      0.0045
       311         0.0000      0.0013      0.1464      0.0214      0.0373
       312        -0.0000      0.1464     -0.0013      0.0214      0.0373
       313        -0.0461     -0.0000      0.0000      0.0021      0.0038
       314         0.0000     -0.0200      0.1081      0.0121      0.0215
       315         0.0000     -0.1081     -0.0200      0.0121      0.0215
       316        -0.0000      0.0308     -0.1906      0.0373      0.0666
       317         0.0000     -0.1906     -0.0308      0.0373      0.0666
       318         0.0857      0.0000      0.0000      0.0073      0.0133
       319        -0.0000      0.0116     -0.0455      0.0022      0.0040
       320        -0.0000     -0.0455     -0.0116      0.0022      0.0040
       321        -0.0017     -0.0000     -0.0000      0.0000      0.0000
       322         0.0000      0.0538     -0.1741      0.0332      0.0617
       323        -0.0000     -0.1742     -0.0538      0.0332      0.0617
       324        -0.0000     -0.0169     -0.0659      0.0046      0.0086
       325         0.0000     -0.0658      0.0169      0.0046      0.0086
       326         0.0000      0.0000     -0.0000      0.0000      0.0000
       327         0.1326     -0.0000     -0.0001      0.0176      0.0330
       328        -0.0002     -0.0247     -0.0394      0.0022      0.0041
       329         0.0001     -0.0394      0.0247      0.0022      0.0041
       330         0.0000      0.0000     -0.0000      0.0000      0.0000
       331        -0.1734      0.0000      0.0000      0.0301      0.0582
       332        -0.0720      0.0000      0.0000      0.0052      0.0101
       333         0.0000     -0.0000     -0.0000      0.0000      0.0000
       334         0.1722     -0.0000      0.0000      0.0297      0.0585
       335         0.0002      0.0005      0.0248      0.0006      0.0012
       336        -0.0000     -0.0248      0.0005      0.0006      0.0012
       337        -0.0000     -0.0049      0.1257      0.0158      0.0313
       338         0.0000     -0.1257     -0.0049      0.0158      0.0313
       339        -0.0560      0.0000      0.0000      0.0031      0.0062
       340        -0.0000     -0.0048      0.0059      0.0001      0.0001
       341        -0.0000      0.0059      0.0048      0.0001      0.0001
       342        -0.0000     -0.0891      0.0527      0.0107      0.0220
       343        -0.0000      0.0527      0.0891      0.0107      0.0220
       344         0.0880     -0.0000      0.0000      0.0077      0.0160
       345         0.0000      0.0012     -0.0612      0.0038      0.0079
       346         0.0000      0.0612      0.0013      0.0038      0.0079
       347        -0.0000     -0.0063      0.0303      0.0010      0.0021
       348        -0.0000      0.0303      0.0063      0.0010      0.0021
       349         0.0086     -0.0000     -0.0000      0.0001      0.0002
       350         0.0000     -0.0273     -0.0675      0.0053      0.0116
       351        -0.0000     -0.0675      0.0273      0.0053      0.0116
       352        -0.0000     -0.0003     -0.0001      0.0000      0.0000
       353        -0.0000     -0.0499     -0.0092      0.0026      0.0057
       354         0.0001      0.0092     -0.0499      0.0026      0.0057
       355         0.1020     -0.0000      0.0000      0.0104      0.0230
       356         0.0342     -0.0000     -0.0000      0.0012      0.0026
       357         0.0315     -0.0000      0.0000      0.0010      0.0023
       358         0.0000      0.0001      0.0000      0.0000      0.0000
       359        -0.0000      0.0202     -0.0027      0.0004      0.0010
       360        -0.0000      0.0027      0.0202      0.0004      0.0010
       361        -0.0545     -0.0001      0.0002      0.0030      0.0069
       362        -0.0001      0.1356     -0.0215      0.0188      0.0436
       363        -0.0001     -0.0215     -0.1356      0.0188      0.0436
       364        -0.0291     -0.0000      0.0000      0.0008      0.0020
       365         0.0000      0.0000      0.0000      0.0000      0.0000
       366        -0.0014     -0.0000      0.0000      0.0000      0.0000
       367        -0.0000     -0.0550      0.0250      0.0037      0.0089
       368        -0.0000     -0.0250     -0.0548      0.0036      0.0089
       369         0.0000      0.0153     -0.0453      0.0023      0.0056
       370        -0.0000      0.0451      0.0155      0.0023      0.0055
       371         0.0000      0.0000     -0.0000      0.0000      0.0000
       372         0.0000     -0.0475     -0.0360      0.0035      0.0089
       373        -0.0000     -0.0360      0.0475      0.0035      0.0088
       374         0.0000     -0.1001      0.2384      0.0669      0.1674
       375        -0.0000     -0.2384     -0.1001      0.0669      0.1674
       376        -0.0000     -0.0101      0.0012      0.0001      0.0003
       377         0.0000      0.0012      0.0101      0.0001      0.0003
       378         0.0000      0.0000     -0.0000      0.0000      0.0000
       379        -0.0045      0.0000      0.0000      0.0000      0.0001
       380         0.0000     -0.0208      0.0465      0.0026      0.0067
       381        -0.0000     -0.0465     -0.0208      0.0026      0.0067
       382         0.2241     -0.0000     -0.0000      0.0502      0.1298
       383         0.0633      0.0000     -0.0000      0.0040      0.0105
       384         0.0000     -0.0072     -0.0040      0.0001      0.0002
       385         0.0000      0.0040     -0.0072      0.0001      0.0002
       386        -0.0000      0.0000      0.0000      0.0000      0.0000
       387        -0.2694     -0.0000     -0.0000      0.0726      0.1932
       388        -0.0000     -0.1077      0.3092      0.1072      0.2873
       389         0.0000     -0.3092     -0.1077      0.1072      0.2873
[...]
      1  -0.136404D+03 -0.136392D+03 -0.136392D+03 -0.136377D+03 -0.136290D+03
      2   0.617985D-05  0.100047D-04  0.000000D+00  0.560054D-01  0.965644D-05
      3  -0.247541D-01 -0.544275D-02 -0.125643D+00  0.161120D-05 -0.487121D-02
      4  -0.403819D-03 -0.125633D+00  0.544526D-02 -0.370510D-04 -0.590342D-02
      5  -0.171526D-04 -0.206571D-04  0.000000D+00 -0.131331D+00 -0.302888D-04
      6   0.664828D-01  0.141355D-01  0.326321D+00 -0.454143D-05  0.321659D-01
      7   0.108450D-02  0.326289D+00 -0.141427D-01  0.987574D-04  0.391564D-01
      8   0.133037D-03  0.000000D+00 -0.460460D-04  0.000000D+00 -0.424190D-05
      9  -0.149212D-02  0.272716D-01 -0.117664D-02  0.182332D-04 -0.183369D+00
     10   0.920258D-01 -0.118369D-02 -0.272009D-01  0.000000D+00  0.150237D+00
     11  -0.296661D-04  0.596262D-03 -0.655532D-04 -0.166419D+01 -0.928165D-04
     12   0.964446D-02  0.224620D+00 -0.182630D-02 -0.603199D+00 -0.393265D-01
     13  -0.966637D-02 -0.224201D+00  0.177269D-02 -0.603305D+00  0.393833D-01
     14   0.303196D+00 -0.162751D-02 -0.373270D-01  0.539057D-05  0.221290D+00
     15   0.492015D-02 -0.375637D-01  0.161756D-02 -0.586595D-04  0.270237D+00
     16   0.187221D+00  0.181635D-02  0.224566D+00 -0.650844D-05 -0.299593D-01
               341           342           343           344           345 
      1  -0.136290D+03 -0.136280D+03 -0.136280D+03 -0.136259D+03 -0.136198D+03
      2   0.752058D-05  0.195753D-04  0.623501D-05 -0.879568D-01 -0.161422D-05
      3   0.591870D-02 -0.893437D-01  0.523512D-01 -0.167317D-04  0.151491D-02
      4  -0.480823D-02 -0.523478D-01 -0.893438D-01 -0.185673D-04  0.612359D-01
      5  -0.191509D-04 -0.603162D-04 -0.193916D-04  0.271580D+00  0.463353D-05
      6  -0.391989D-01  0.255372D+00 -0.149644D+00  0.516918D-04 -0.415790D-02
      7   0.319881D-01  0.149627D+00  0.255388D+00  0.554205D-04 -0.168089D+00
      8   0.450233D-05  0.481497D-05 -0.159725D-05  0.000000D+00  0.000000D+00
      9  -0.150073D+00 -0.116238D+00 -0.198499D+00 -0.617413D-04  0.145520D+00
     10  -0.183417D+00  0.198349D+00 -0.116289D+00  0.596787D-04 -0.359656D-02
     11   0.000000D+00 -0.153096D-03 -0.762332D-04  0.692942D+00 -0.634380D-05
     12  -0.299839D-01  0.260854D-01  0.410375D-01 -0.264424D+00  0.157083D+00
     13   0.299858D-01 -0.259722D-01 -0.409879D-01 -0.264430D+00 -0.157062D+00
     14  -0.270260D+00  0.483101D-01 -0.284037D-01  0.483669D-04 -0.119894D-02
     15   0.221246D+00  0.283323D-01  0.485199D-01  0.344933D-04 -0.485636D-01
     16   0.393630D-01  0.410511D-01 -0.260247D-01  0.316356D-05 -0.164973D-02
               346           347           348           349           350 
      1  -0.136198D+03 -0.136137D+03 -0.136137D+03 -0.136123D+03 -0.136089D+03
      2   0.000000D+00  0.236769D-05  0.159472D-05 -0.862135D-02 -0.135422D-05
      3   0.612342D-01 -0.647065D-02  0.303083D-01 -0.303925D-05 -0.269599D-01
      4  -0.151599D-02 -0.303009D-01 -0.646504D-02  0.662979D-05  0.676203D-01
      5   0.000000D+00 -0.470711D-05 -0.441037D-05  0.468121D-01  0.394713D-05
      6  -0.168086D+00  0.539082D-02 -0.252325D-01  0.899771D-05  0.101582D+00
      7   0.416177D-02  0.252117D-01  0.537537D-02 -0.173736D-04 -0.254786D+00
      8   0.000000D+00  0.117435D-05 -0.377950D-05  0.000000D+00  0.000000D+00
      9  -0.360611D-02  0.851576D-01  0.181741D-01  0.115937D-04  0.351414D+00
     10  -0.145520D+00 -0.181759D-01  0.851575D-01  0.000000D+00  0.140106D+00
     11   0.000000D+00 -0.602513D-04 -0.377036D-04 -0.715294D+00  0.124290D-04
     12   0.165069D-02 -0.114498D+00 -0.202511D-01  0.152881D+00 -0.308640D-01
     13  -0.165187D-02  0.114496D+00  0.202439D-01  0.152898D+00  0.308351D-01
     14  -0.485617D-01 -0.346596D-01  0.162393D+00 -0.103483D-04  0.227485D+00
     15   0.120472D-02 -0.162382D+00 -0.346566D-01 -0.108909D-04 -0.570567D+00
     16   0.157073D+00 -0.202459D-01  0.114497D+00 -0.166274D-05  0.135765D-01
               351           352           353           354           355 
      1  -0.136089D+03 -0.136055D+03 -0.136053D+03 -0.136053D+03 -0.136045D+03
      2   0.411697D-05  0.000000D+00  0.204029D-04 -0.100249D-03 -0.102017D+00
      3  -0.676220D-01 -0.327820D-03 -0.498128D-01  0.944296D-02 -0.181973D-04
      4  -0.269616D-01  0.744231D-04  0.944465D-02  0.498144D-01 -0.467936D-04
      5  -0.126107D-04  0.000000D+00 -0.539679D-04  0.262594D-03  0.268030D+00
      6   0.254793D+00  0.960341D-03  0.146317D+00 -0.277372D-01  0.530794D-04
      7   0.101588D+00 -0.217907D-03 -0.277422D-01 -0.146322D+00  0.138006D-03
      8   0.150356D-05  0.117808D-01 -0.790408D-04 -0.146611D-05  0.000000D+00
      9  -0.140112D+00 -0.797505D-03 -0.101188D+00 -0.533757D+00  0.502237D-03
     10   0.351409D+00 -0.350214D-02 -0.533752D+00  0.101194D+00 -0.192242D-03
     11  -0.316687D-04  0.000000D+00  0.871864D-04 -0.532143D-03 -0.549092D+00
     12   0.135936D-01 -0.907612D-04 -0.108634D-01 -0.709573D-01 -0.386605D-01
     13  -0.135668D-01  0.908319D-04  0.108761D-01  0.708837D-01 -0.387836D-01
     14   0.570571D+00 -0.212784D-02 -0.323620D+00  0.613547D-01 -0.119953D-03
     15   0.227491D+00  0.485558D-03  0.613476D-01  0.323602D+00 -0.301640D-03
     16   0.308483D-01  0.465850D-03  0.709092D-01 -0.108717D-01  0.214286D-04
               356           357           358           359           360 
      1  -0.135978D+03 -0.135928D+03 -0.135907D+03 -0.135903D+03 -0.135903D+03
      2  -0.342069D-01 -0.314577D-01  0.000000D+00  0.111975D-04  0.833469D-05
      3  -0.213196D-05 -0.152181D-05  0.132090D-03  0.202539D-01  0.257350D-02
      4   0.000000D+00 -0.721974D-05 -0.280013D-04  0.256478D-02 -0.202048D-01
      5   0.182835D+00  0.855719D-01  0.000000D+00 -0.394116D-04 -0.303180D-04
      6   0.706857D-05  0.525746D-05 -0.360203D-03 -0.560314D-01 -0.711905D-02
      7  -0.319360D-05  0.196841D-04  0.754885D-04 -0.709592D-02  0.558969D-01
      8   0.000000D+00  0.000000D+00 -0.808730D-02  0.147212D-05  0.000000D+00
      9   0.000000D+00  0.102012D-04  0.213154D-04 -0.336469D-02  0.265236D-01
     10   0.829388D-05  0.000000D+00  0.941901D-04  0.265501D-01  0.337573D-02
     11   0.640797D+00 -0.314560D+00  0.000000D+00  0.265348D-04  0.298593D-04
     12  -0.892751D+00  0.115624D+00  0.181456D-04  0.161834D-01 -0.989421D-01
     13  -0.892755D+00  0.115624D+00 -0.182308D-04 -0.160925D-01  0.990194D-01
     14   0.118306D-04 -0.917868D-05  0.998430D-04  0.266955D+00  0.339082D-01
     15  -0.705099D-05 -0.960522D-05 -0.104287D-04  0.338950D-01 -0.266921D+00
     16   0.000000D+00  0.552711D-05 -0.762998D-04  0.989535D-01  0.161247D-01
               361           362           363           364           365 
      1  -0.135901D+03 -0.135897D+03 -0.135897D+03 -0.135882D+03 -0.135717D+03
      2   0.545065D-01  0.514961D-04  0.918405D-04  0.291333D-01  0.000000D+00
      3  -0.883879D-04  0.135666D+00 -0.209218D-01 -0.102853D-04  0.309203D-05
      4  -0.233326D-03  0.209224D-01  0.135674D+00 -0.221396D-04 -0.118439D-05
      5  -0.193994D+00 -0.186133D-03 -0.332801D-03 -0.136410D+00  0.000000D+00
      6   0.242487D-03 -0.372029D+00  0.573718D-01  0.277906D-04 -0.974329D-05
      7   0.637821D-03 -0.573747D-01 -0.372049D+00  0.583917D-04  0.427521D-05
      8   0.000000D+00  0.856644D-05 -0.281147D-05  0.000000D+00  0.284248D-02
      9   0.167981D-03 -0.142201D-01 -0.922072D-01  0.287448D-04 -0.348579D-05
     10  -0.641068D-04  0.921941D-01 -0.142170D-01 -0.716692D-05 -0.133906D-04
     11   0.249609D+00  0.109174D-03  0.264271D-03 -0.734101D+00  0.000000D+00
     12   0.231191D+00 -0.128655D-01 -0.683703D-01  0.535913D+00  0.000000D+00
     13   0.230915D+00  0.133711D-01  0.692920D-01  0.535890D+00  0.000000D+00
     14  -0.128600D-03  0.105175D+00 -0.162141D-01 -0.104431D-04 -0.108827D-04
     15  -0.159887D-03  0.162376D-01  0.105260D+00 -0.383277D-04  0.347947D-05
     16   0.177178D-04 -0.688694D-01  0.131156D-01  0.310311D-05  0.000000D+00
               366           367           368           369           370 
      1  -0.135717D+03 -0.135704D+03 -0.135704D+03 -0.135700D+03 -0.135700D+03
      2   0.139124D-02  0.000000D+00  0.139571D-05  0.000000D+00  0.000000D+00
      3   0.000000D+00 -0.551329D-01 -0.248039D-01  0.155294D-01  0.449946D-01
      4  -0.150017D-05 -0.247242D-01  0.548901D-01  0.452781D-01 -0.156634D-01
      5   0.394125D-02  0.000000D+00 -0.426485D-05  0.134738D-05 -0.336832D-05
      6   0.000000D+00  0.170831D+00  0.768730D-01 -0.311405D-01 -0.902829D-01
      7   0.429451D-05  0.767086D-01 -0.170340D+00 -0.911623D-01  0.315557D-01
      8   0.000000D+00  0.000000D+00  0.000000D+00  0.157507D-05  0.000000D+00
      9  -0.652906D-05  0.598582D-01 -0.132658D+00 -0.414005D+00  0.143105D+00
     10  -0.169540D-05 -0.134834D+00 -0.605577D-01  0.142767D+00  0.413311D+00
     11   0.840472D-01 -0.383349D-05 -0.624990D-05  0.405775D-05 -0.115117D-04
     12  -0.223775D-01 -0.484404D-01  0.981439D-01  0.571592D-01 -0.175770D-01
     13  -0.223822D-01  0.484402D-01 -0.981381D-01 -0.571685D-01  0.175760D-01
     14  -0.132108D-05  0.558065D-01  0.252863D-01  0.169776D+00  0.491308D+00
     15   0.357533D-05  0.261188D-01 -0.583914D-01  0.491007D+00 -0.169656D+00
     16  -0.138762D-05 -0.984460D-01 -0.485274D-01  0.173129D-01  0.566540D-01
               371           372           373           374           375 
      1  -0.135626D+03 -0.135622D+03 -0.135622D+03 -0.135611D+03 -0.135611D+03
      2   0.000000D+00 -0.389950D-05  0.144877D-05  0.000000D+00  0.330420D-05
      3   0.102663D-04 -0.473081D-01 -0.361775D-01 -0.101125D+00 -0.238010D+00
      4   0.394818D-05  0.361860D-01 -0.473003D-01 -0.238009D+00  0.101124D+00
      5   0.000000D+00  0.132341D-04 -0.438020D-05  0.182227D-05 -0.110922D-04
      6  -0.327874D-04  0.154044D+00  0.117800D+00  0.340939D+00  0.802441D+00
      7  -0.114942D-04 -0.117828D+00  0.154018D+00  0.802438D+00 -0.340935D+00
      8   0.740803D-02  0.000000D+00  0.470826D-05  0.206818D-05  0.000000D+00
      9   0.104605D-04  0.127671D+00 -0.166883D+00 -0.895513D+00  0.380480D+00
     10  -0.362791D-04  0.166915D+00  0.127642D+00  0.380485D+00  0.895519D+00
     11   0.000000D+00  0.508270D-04 -0.178368D-04 -0.203248D-05 -0.374349D-04
     12   0.255571D-04  0.382825D-01 -0.538787D-01  0.349289D-03 -0.128253D-03
     13  -0.255611D-04 -0.382788D-01  0.538781D-01 -0.348059D-03  0.134025D-03
     14  -0.546209D-04  0.208902D+00  0.159763D+00  0.303124D+00  0.713436D+00
     15  -0.468791D-04 -0.159785D+00  0.208876D+00  0.713433D+00 -0.303117D+00
     16   0.180275D-04 -0.538833D-01 -0.382785D-01  0.135627D-03  0.346222D-03
               376           377           378           379           380 
      1  -0.135581D+03 -0.135581D+03 -0.135513D+03 -0.135512D+03 -0.135506D+03
      2   0.000000D+00  0.000000D+00  0.000000D+00  0.450755D-02 -0.125235D-05
      3  -0.101278D-01  0.117879D-02  0.188578D-04  0.509232D-05 -0.210198D-01
      4  -0.119657D-02 -0.101361D-01  0.406985D-05 -0.117570D-04 -0.463632D-01
      5  -0.163529D-05  0.141662D-05  0.000000D+00 -0.797628D-02  0.341753D-05
      6   0.252927D-01 -0.293635D-02 -0.551603D-04 -0.147974D-04  0.584321D-01
      7   0.299638D-02  0.253192D-01 -0.122897D-04  0.345485D-04  0.128883D+00
      8   0.000000D+00  0.000000D+00 -0.288338D-02  0.000000D+00  0.000000D+00
      9   0.836780D-02  0.716853D-01  0.171149D-04 -0.513345D-04 -0.177061D+00
     10  -0.717001D-01  0.844071D-02 -0.675917D-04 -0.193930D-04  0.802714D-01
     11  -0.398406D-05  0.393406D-05  0.000000D+00  0.115191D+00 -0.138716D-05
     12  -0.191326D-01 -0.124949D+00  0.368112D-05  0.475744D-03 -0.207231D-01
     13   0.191326D-01  0.124950D+00 -0.369987D-05  0.478790D-03  0.207212D-01
     14  -0.114808D+00  0.134894D-01 -0.278266D-04 -0.933459D-05  0.225096D-01
     15  -0.134263D-01 -0.114799D+00 -0.711860D-05  0.229827D-04  0.496531D-01
     16  -0.124943D+00  0.191316D-01  0.862199D-05  0.000000D+00 -0.852901D-02
               381           382           383           384           385 
      1  -0.135506D+03 -0.135489D+03 -0.135427D+03 -0.135424D+03 -0.135424D+03
      2   0.442737D-05 -0.224106D+00 -0.633310D-01 -0.214998D-04 -0.118365D-04
      3  -0.463691D-01 -0.484256D-05  0.000000D+00 -0.717179D-02  0.406669D-02
      4   0.210216D-01  0.239474D-05  0.000000D+00  0.406849D-02  0.716473D-02
      5  -0.138896D-04  0.772197D+00  0.224043D+00  0.749623D-04  0.416740D-04
      6   0.128903D+00  0.160939D-04  0.000000D+00  0.309613D-01 -0.175592D-01
      7  -0.584387D-01 -0.761463D-05 -0.227103D-05 -0.175650D-01 -0.309376D-01
      8   0.000000D+00  0.000000D+00  0.000000D+00 -0.135427D-04 -0.575741D-05
      9   0.802849D-01  0.874993D-05  0.133907D-04  0.238091D-01  0.419362D-01
     10   0.177085D+00  0.102170D-04  0.616219D-05  0.419694D-01 -0.238027D-01
     11  -0.303673D-04  0.285306D+01  0.526902D+00  0.220966D-03  0.127313D-03
     12   0.852880D-02 -0.354309D-01 -0.658781D-01 -0.201787D-01 -0.386831D-01
     13  -0.852666D-02 -0.354325D-01 -0.658929D-01  0.201829D-01  0.386824D-01
     14   0.496811D-01  0.114999D-04  0.149912D-04 -0.791727D-01  0.449358D-01
     15  -0.225248D-01 -0.163606D-04 -0.297259D-04  0.449342D-01  0.792032D-01
     16  -0.207262D-01 -0.181939D-05  0.242604D-05  0.386856D-01 -0.201854D-01
               386           387           388           389           390 
      1  -0.135423D+03 -0.135372D+03 -0.135346D+03 -0.135346D+03 -0.135261D+03
      2   0.000000D+00  0.269376D+00  0.123247D-05 -0.538737D-05  0.000000D+00
      3   0.264540D-05 -0.674886D-05 -0.109009D+00 -0.308754D+00  0.130366D-01
      4  -0.115181D-04  0.552482D-05 -0.308757D+00  0.109007D+00  0.187675D-03
      5   0.000000D+00 -0.963300D+00 -0.464291D-05  0.194634D-04  0.000000D+00
      6  -0.138272D-04  0.233189D-04  0.380252D+00  0.107701D+01 -0.411469D-01
      7   0.468330D-04 -0.193550D-04  0.107702D+01 -0.380243D+00 -0.592387D-03
      8  -0.129614D-01  0.000000D+00  0.486091D-05  0.000000D+00  0.000000D+00
      9  -0.587315D-04  0.308293D-04 -0.160730D+01  0.567457D+00 -0.646917D-03
     10  -0.167663D-04  0.366006D-04  0.567471D+00  0.160729D+01  0.449626D-01
     11   0.000000D+00 -0.262125D+01 -0.894365D-05  0.557410D-04 -0.344120D-05
     12   0.436072D-04 -0.790625D-01  0.100519D-01 -0.314457D-02  0.127596D-01
     13  -0.436154D-04 -0.790600D-01 -0.100572D-01  0.315707D-02 -0.127598D-01
     14   0.722581D-04  0.277873D-04  0.620053D+00  0.175622D+01  0.379643D-01
     15  -0.698370D-04 -0.247368D-04  0.175623D+01 -0.620037D+00  0.544397D-03
     16  -0.310843D-04  0.000000D+00  0.315717D-02  0.100421D-01  0.256784D+00
               391           392           393           394           395 
      1  -0.135261D+03 -0.135202D+03 -0.135202D+03 -0.135189D+03 -0.135189D+03
      2   0.000000D+00  0.000000D+00  0.000000D+00  0.000000D+00  0.243591D-05
      3  -0.187820D-03 -0.407995D-01 -0.489504D-02 -0.789178D-01 -0.197939D+00
      4   0.130369D-01 -0.489626D-02  0.407969D-01 -0.197932D+00  0.789251D-01
      5   0.000000D+00  0.000000D+00 -0.128121D-05  0.170222D-05 -0.927971D-05
      6   0.592769D-03  0.135217D+00  0.162233D-01  0.292936D+00  0.734733D+00
      7  -0.411474D-01  0.162270D-01 -0.135209D+00  0.734706D+00 -0.292963D+00
      8   0.000000D+00  0.000000D+00  0.000000D+00  0.314369D-05  0.000000D+00
      9  -0.449632D-01  0.962652D-02 -0.802481D-01 -0.979924D+00  0.390745D+00
     10  -0.648148D-03 -0.802415D-01 -0.963170D-02  0.390706D+00  0.979958D+00
     11   0.000000D+00 -0.139021D-05  0.000000D+00  0.201282D-05 -0.183299D-04
     12   0.256784D+00 -0.275973D-01  0.177013D+00 -0.280981D-01  0.100753D-01
     13  -0.256784D+00  0.275986D-01 -0.177014D+00  0.280964D-01 -0.100711D-01
     14  -0.549085D-03 -0.126658D+00 -0.151961D-01  0.379638D+00  0.952208D+00
     15   0.379620D-01 -0.152013D-01  0.126661D+00  0.952169D+00 -0.379681D+00
     16  -0.127604D-01 -0.176997D+00 -0.275999D-01 -0.100705D-01 -0.281044D-01
               396           397           398           399           400 
      1  -0.135143D+03 -0.135143D+03 -0.135049D+03 -0.135049D+03 -0.134980D+03
      2   0.146696D-05 -0.335071D-05 -0.451645D-05 -0.343432D-05 -0.393078D+00
      3   0.111362D+00  0.328276D+00  0.414505D-01 -0.184601D+00 -0.113161D-05
      4   0.328277D+00 -0.111358D+00  0.184607D+00  0.414515D-01  0.000000D+00
      5  -0.552651D-05  0.126010D-04  0.176689D-04  0.134974D-04  0.160177D+01
      6  -0.408226D+00 -0.120338D+01 -0.158922D+00  0.707765D+00  0.432225D-05
      7  -0.120338D+01  0.408210D+00 -0.707787D+00 -0.158926D+00  0.000000D+00
      8  -0.426811D-05 -0.104093D-05 -0.313884D-05  0.000000D+00  0.000000D+00
      9   0.150046D+01 -0.508982D+00  0.114822D+01  0.257823D+00 -0.768601D-05
     10  -0.509011D+00 -0.150046D+01 -0.257816D+00  0.114820D+01  0.000000D+00
     11  -0.105604D-04  0.388467D-04  0.349586D-04  0.366295D-04  0.431545D+01
     12   0.250342D-01 -0.753037D-02 -0.514277D-01 -0.965056D-02 -0.702275D-01
     13  -0.250340D-01  0.751695D-02  0.514320D-01  0.965800D-02 -0.702273D-01
     14  -0.604978D+00 -0.178337D+01 -0.315622D+00  0.140564D+01  0.101382D-04
     15  -0.178336D+01  0.604952D+00 -0.140567D+01 -0.315628D+00  0.379801D-05
     16   0.751603D-02  0.250366D-01 -0.965999D-02  0.514217D-01  0.000000D+00
               401           402           403           404           405 
      1  -0.134865D+03 -0.134865D+03 -0.134806D+03 -0.134764D+03 -0.134764D+03
      2   0.000000D+00  0.000000D+00  0.550216D-01  0.000000D+00  0.000000D+00
      3   0.239750D-02 -0.146724D-03  0.000000D+00  0.315983D-01  0.661979D-01
      4   0.147718D-03  0.239793D-02  0.000000D+00  0.661980D-01 -0.315988D-01
      5   0.000000D+00  0.000000D+00 -0.318273D+00  0.000000D+00  0.000000D+00
      6  -0.613507D-02  0.374810D-03  0.147949D-05 -0.123884D+00 -0.259535D+00
      7  -0.378680D-03 -0.613668D-02  0.000000D+00 -0.259535D+00  0.123886D+00
      8   0.000000D+00  0.000000D+00  0.000000D+00 -0.106671D-05  0.000000D+00
      9  -0.218739D-02 -0.356772D-01 -0.211230D-05  0.353460D+00 -0.168717D+00
     10   0.356758D-01 -0.219371D-02 -0.157572D-05 -0.168719D+00 -0.353459D+00
     11   0.000000D+00  0.000000D+00 -0.230220D+01  0.279910D-05  0.000000D+00
     12  -0.685606D-01 -0.707708D+00  0.143615D+00 -0.248834D-01  0.108233D-01
     13   0.685593D-01  0.707706D+00  0.143614D+00  0.248837D-01 -0.108208D-01
     14   0.194377D-01 -0.119170D-02 -0.739213D-05  0.592176D-01  0.124059D+00
     15   0.119541D-02  0.194412D-01  0.826534D-05  0.124061D+00 -0.592183D-01
     16  -0.707710D+00  0.685590D-01 -0.145581D-05 -0.108160D-01 -0.248873D-01
               406 
      1  -0.134402D+03
      2   0.292054D-01
      3   0.000000D+00
      4   0.000000D+00
      5  -0.212117D+00
      6   0.000000D+00
      7   0.000000D+00
      8   0.000000D+00
      9   0.000000D+00
     10  -0.184211D-05
     11  -0.200686D+00
     12  -0.196787D+00
     13  -0.196787D+00
     14  -0.188198D-05
     15   0.000000D+00
     16   0.000000D+00
 Unable to Open any file for archive entry.
 1\1\GINC-HEL25\SP\RLC-BLYP TD-FC\Gen\C1H3F1\SABYASACHI\21-Mar-2022\0\\
 #P TD(Nstates=10000) lc-blyp/Gen SCF(maxcycles=100) Int(Grid=ultrafine
 )\\xGDB7_00001_tier4.com\\0,1\C,0,-0.630149,-0.000001,0.000003\F,0,0.7
 48512,0.000002,-0.000001\H,0,-0.98525,0.899676,0.505416\H,0,-0.985222,
 -0.887557,0.526417\H,0,-0.985245,-0.012128,-1.03184\\Version=EM64L-G16
 RevC.01\State=1-A\HF=-139.3647646\RMSD=7.307e-09\PG=C01 [X(C1H3F1)]\\@
 The archive entry for this job was punched.


 If your ship doesn't come in, swim out to it!
                          -- Jonathan Winters
 Job cpu time:       0 days  0 hours  2 minutes 47.1 seconds.
 Elapsed time:       0 days  0 hours  0 minutes 21.2 seconds.
 File lengths (MBytes):  RWF=    214 Int=      0 D2E=      0 Chk=     46 Scr=      1
 Normal termination of Gaussian 16 at Mon Mar 21 20:07:06 2022.
