 Entering Gaussian System, Link 0=g16
 Input=000001.com
 Output=000001.log
 Initial command:
 /home/sabyasachi/g16/l1.exe "/scratch/sabyasachi/PBS_7976201.helios/Gau-156740.inp" -scrdir="/scratch/sabyasachi/PBS_7976201.helios/"
 Entering Link 1 = /home/sabyasachi/g16/l1.exe PID=    156741.
  
 Copyright (c) 1988-2019, Gaussian, Inc.  All Rights Reserved.
  
 This is part of the Gaussian(R) 16 program.  It is based on
 the Gaussian(R) 09 system (copyright 2009, Gaussian, Inc.),
 the Gaussian(R) 03 system (copyright 2003, Gaussian, Inc.),
 the Gaussian(R) 98 system (copyright 1998, Gaussian, Inc.),
 the Gaussian(R) 94 system (copyright 1995, Gaussian, Inc.),
 the Gaussian 92(TM) system (copyright 1992, Gaussian, Inc.),
 the Gaussian 90(TM) system (copyright 1990, Gaussian, Inc.),
 the Gaussian 88(TM) system (copyright 1988, Gaussian, Inc.),
 the Gaussian 86(TM) system (copyright 1986, Carnegie Mellon
 University), and the Gaussian 82(TM) system (copyright 1983,
 Carnegie Mellon University). Gaussian is a federally registered
 trademark of Gaussian, Inc.
  
 This software contains proprietary and confidential information,
 including trade secrets, belonging to Gaussian, Inc.
  
 This software is provided under written license and may be
 used, copied, transmitted, or stored only in accord with that
 written license.
  
 The following legend is applicable only to US Government
 contracts under FAR:
  
                    RESTRICTED RIGHTS LEGEND
  
 Use, reproduction and disclosure by the US Government is
 subject to restrictions as set forth in subparagraphs (a)
 and (c) of the Commercial Computer Software - Restricted
 Rights clause in FAR 52.227-19.
  
 Gaussian, Inc.
 340 Quinnipiac St., Bldg. 40, Wallingford CT 06492
  
  
 ---------------------------------------------------------------
 Warning -- This program may not be used in any manner that
 competes with the business of Gaussian, Inc. or will provide
 assistance to any competitor of Gaussian, Inc.  The licensee
 of this program is prohibited from giving any competitor of
 Gaussian, Inc. access to this program.  By using this program,
 the user acknowledges that Gaussian, Inc. is engaged in the
 business of creating and licensing software in the field of
 computational chemistry and represents and warrants to the
 licensee that it is not a competitor of Gaussian, Inc. and that
 it will not use this program in any manner prohibited above.
 ---------------------------------------------------------------
  

 Cite this work as:
 Gaussian 16, Revision C.01,
 M. J. Frisch, G. W. Trucks, H. B. Schlegel, G. E. Scuseria, 
 M. A. Robb, J. R. Cheeseman, G. Scalmani, V. Barone, 
 G. A. Petersson, H. Nakatsuji, X. Li, M. Caricato, A. V. Marenich, 
 J. Bloino, B. G. Janesko, R. Gomperts, B. Mennucci, H. P. Hratchian, 
 J. V. Ortiz, A. F. Izmaylov, J. L. Sonnenberg, D. Williams-Young, 
 F. Ding, F. Lipparini, F. Egidi, J. Goings, B. Peng, A. Petrone, 
 T. Henderson, D. Ranasinghe, V. G. Zakrzewski, J. Gao, N. Rega, 
 G. Zheng, W. Liang, M. Hada, M. Ehara, K. Toyota, R. Fukuda, 
 J. Hasegawa, M. Ishida, T. Nakajima, Y. Honda, O. Kitao, H. Nakai, 
 T. Vreven, K. Throssell, J. A. Montgomery, Jr., J. E. Peralta, 
 F. Ogliaro, M. J. Bearpark, J. J. Heyd, E. N. Brothers, K. N. Kudin, 
 V. N. Staroverov, T. A. Keith, R. Kobayashi, J. Normand, 
 K. Raghavachari, A. P. Rendell, J. C. Burant, S. S. Iyengar, 
 J. Tomasi, M. Cossi, J. M. Millam, M. Klene, C. Adamo, R. Cammi, 
 J. W. Ochterski, R. L. Martin, K. Morokuma, O. Farkas, 
 J. B. Foresman, and D. J. Fox, Gaussian, Inc., Wallingford CT, 2019.
 
 ******************************************
 Gaussian 16:  EM64L-G16RevC.01  3-Jul-2019
                21-Mar-2022 
 ******************************************
 %mem=64gb
 %nproc=8
 Will use up to    8 processors via shared memory.
 ----------------------------------------------------------------------
 #P TD(Nstates=10000) lc-blyp/Gen SCF(maxcycles=100) Int(Grid=ultrafine
 )
 ----------------------------------------------------------------------
 1/38=1,172=1/1;
 2/12=2,17=6,18=5,40=1/2;
 3/5=7,11=9,25=1,30=1,74=1000402,75=-5/1,2,3,8;
 4//1;
 5/5=2,7=100,38=5/2;
 8/6=1,10=1,108=10000/1;
 9/41=10000,42=1,70=2/14;
 6/7=2,8=2,9=2,10=2/1;
 99/5=1,9=1/99;
 Leave Link    1 at Mon Mar 21 20:15:01 2022, MaxMem=  8589934592 cpu:               0.4 elap:               0.1
 (Enter /home/sabyasachi/g16/l101.exe)
 ---------------------
 xGDB7_00001_tier4.com
 ---------------------
 Symbolic Z-matrix:
 Charge =  0 Multiplicity = 1
 6                     0.        0.00001   0. 
 1                     0.98523   0.46299  -0.02804 
 1                    -0.05618  -0.68294   0.84631 
 1                    -0.16813  -0.55191  -0.92354 
 1                    -0.76094   0.77183   0.10527 
 
 ITRead=  0  0  0  0  0
 MicOpt= -1 -1 -1 -1 -1
 NAtoms=      5 NQM=        5 NQMF=       0 NMMI=      0 NMMIF=      0
                NMic=       0 NMicF=      0.
                    Isotopes and Nuclear Properties:
 (Nuclear quadrupole moments (NQMom) in fm**2, nuclear magnetic moments (NMagM)
  in nuclear magnetons)

  Atom         1           2           3           4           5
 IAtWgt=          12           1           1           1           1
 AtmWgt=  12.0000000   1.0078250   1.0078250   1.0078250   1.0078250
 NucSpn=           0           1           1           1           1
 AtZEff=  -0.0000000  -0.0000000  -0.0000000  -0.0000000  -0.0000000
 NQMom=    0.0000000   0.0000000   0.0000000   0.0000000   0.0000000
 NMagM=    0.0000000   2.7928460   2.7928460   2.7928460   2.7928460
 AtZNuc=   6.0000000   1.0000000   1.0000000   1.0000000   1.0000000
 Leave Link  101 at Mon Mar 21 20:15:01 2022, MaxMem=  8589934592 cpu:               0.6 elap:               0.1
 (Enter /home/sabyasachi/g16/l202.exe)
                          Input orientation:                          
 ---------------------------------------------------------------------
 Center     Atomic      Atomic             Coordinates (Angstroms)
 Number     Number       Type             X           Y           Z
 ---------------------------------------------------------------------
      1          6           0        0.000001    0.000006    0.000000
      2          1           0        0.985233    0.462990   -0.028035
      3          1           0       -0.056180   -0.682943    0.846305
      4          1           0       -0.168125   -0.551911   -0.923536
      5          1           0       -0.760937    0.771825    0.105269
 ---------------------------------------------------------------------
                    Distance matrix (angstroms):
                    1          2          3          4          5
     1  C    0.000000
     2  H    1.088955   0.000000
     3  H    1.088948   1.778250   0.000000
     4  H    1.088943   1.778252   1.778212   0.000000
     5  H    1.088950   1.778274   1.778248   1.778241   0.000000
 Stoichiometry    CH4
 Framework group  C1[X(CH4)]
 Deg. of freedom     9
 Full point group                 C1      NOp   1
 Largest Abelian subgroup         C1      NOp   1
 Largest concise Abelian subgroup C1      NOp   1
                         Standard orientation:                         
 ---------------------------------------------------------------------
 Center     Atomic      Atomic             Coordinates (Angstroms)
 Number     Number       Type             X           Y           Z
 ---------------------------------------------------------------------
      1          6           0       -0.000001    0.000006    0.000000
      2          1           0       -0.991926    0.448073    0.033817
      3          1           0        0.066172   -0.671147   -0.854975
      4          1           0        0.176250   -0.561167    0.916416
      5          1           0        0.749514    0.784204   -0.095260
 ---------------------------------------------------------------------
 Rotational constants (GHZ):         158.5824917         158.5804390         158.5768253
 Leave Link  202 at Mon Mar 21 20:15:01 2022, MaxMem=  8589934592 cpu:               0.1 elap:               0.0
 (Enter /home/sabyasachi/g16/l301.exe)
 General basis read from cards:  (5D, 7F)
 Centers:       2      3      4      5
 S 3 1.00
     Exponent=  1.3010701000D+01 Coefficients=  1.9682158000D-02
     Exponent=  1.9622572000D+00 Coefficients=  1.3796524000D-01
     Exponent=  4.4453796000D-01 Coefficients=  4.7831935000D-01
 S 1 1.00
     Exponent=  1.2194962000D-01 Coefficients=  1.0000000000D+00
 P 1 1.00
     Exponent=  8.0000000000D-01 Coefficients=  1.0000000000D+00
 P 1 1.00
     Exponent=  1.1704099050D-01 Coefficients=  1.0000000000D+00
 ****
 Centers:       1
 S 5 1.00
     Exponent=  1.2384016938D+03 Coefficients=  5.4568832082D-03
     Exponent=  1.8629004992D+02 Coefficients=  4.0638409211D-02
     Exponent=  4.2251176346D+01 Coefficients=  1.8025593888D-01
     Exponent=  1.1676557932D+01 Coefficients=  4.6315121755D-01
     Exponent=  3.5930506482D+00 Coefficients=  4.4087173314D-01
 S 1 1.00
     Exponent=  4.0245147363D-01 Coefficients=  1.0000000000D+00
 S 1 1.00
     Exponent=  1.3090182668D-01 Coefficients=  1.0000000000D+00
 S 1 1.00
     Exponent=  6.7053540256D-02 Coefficients=  1.0000000000D+00
 P 3 1.00
     Exponent=  9.4680970621D+00 Coefficients=  3.8387871728D-02
     Exponent=  2.0103545142D+00 Coefficients=  2.1117025112D-01
     Exponent=  5.4771004707D-01 Coefficients=  5.1328172114D-01
 P 1 1.00
     Exponent=  1.5268613795D-01 Coefficients=  1.0000000000D+00
 D 1 1.00
     Exponent=  8.0000000000D-01 Coefficients=  1.0000000000D+00
 D 1 1.00
     Exponent=  1.1713185140D-01 Coefficients=  1.0000000000D+00
 ****
 Ernie: Thresh=  0.10000D-02 Tol=  0.10000D-05 Strict=F.
 There are    54 symmetry adapted cartesian basis functions of A   symmetry.
 There are    52 symmetry adapted basis functions of A   symmetry.
    52 basis functions,    72 primitive gaussians,    54 cartesian basis functions
     5 alpha electrons        5 beta electrons
       nuclear repulsion energy        13.4483556150 Hartrees.
 IExCor=10402 DFT=T Ex=LC-B+HF Corr=LYP ExCW=0 ScaHFX=  1.000000
 ScaDFX=  1.000000  1.000000  1.000000  1.000000 ScalE2=  1.000000  1.000000
 IRadAn=      5 IRanWt=     -1 IRanGd=            0 ICorTp=0 IEmpDi=  4
 HFx  wShort=  0.000000 wLong=  0.470000 cFull=  0.000000 cShort=  0.000000 cLong=  1.000000
 DFx  wShort=  0.000000 wLong=  0.470000 cFull=  0.000000 cShort=  0.000000 cLong=  1.000000
 NAtoms=    5 NActive=    5 NUniq=    5 SFac= 1.00D+00 NAtFMM=   60 NAOKFM=F Big=F
 Integral buffers will be    131072 words long.
 Raffenetti 1 integral format.
 Two-electron integral symmetry is turned on.
 Leave Link  301 at Mon Mar 21 20:15:01 2022, MaxMem=  8589934592 cpu:               0.5 elap:               0.1
 (Enter /home/sabyasachi/g16/l302.exe)
 NPDir=0 NMtPBC=     1 NCelOv=     1 NCel=       1 NClECP=     1 NCelD=      1
         NCelK=      1 NCelE2=     1 NClLst=     1 CellRange=     0.0.
 One-electron integrals computed using PRISM.
 One-electron integral symmetry used in STVInt
 NBasis=    52 RedAO= T EigKep=  6.60D-04  NBF=    52
 NBsUse=    52 1.00D-06 EigRej= -1.00D+00 NBFU=    52
 Precomputing XC quadrature grid using
 IXCGrd= 4 IRadAn=           5 IRanWt=          -1 IRanGd=           0 AccXCQ= 0.00D+00.
 Generated NRdTot=       0 NPtTot=           0 NUsed=           0 NTot=          32
 NSgBfM=    54    54    54    54    54 MxSgAt=     5 MxSgA2=     5.
 Leave Link  302 at Mon Mar 21 20:15:01 2022, MaxMem=  8589934592 cpu:               0.9 elap:               0.1
 (Enter /home/sabyasachi/g16/l303.exe)
 DipDrv:  MaxL=1.
 Leave Link  303 at Mon Mar 21 20:15:01 2022, MaxMem=  8589934592 cpu:               0.2 elap:               0.0
 (Enter /home/sabyasachi/g16/l308.exe)
 Leave Link  308 at Mon Mar 21 20:15:01 2022, MaxMem=  8589934592 cpu:               0.2 elap:               0.0
 (Enter /home/sabyasachi/g16/l401.exe)
 ExpMin= 6.71D-02 ExpMax= 1.24D+03 ExpMxC= 1.86D+02 IAcc=3 IRadAn=         5 AccDes= 0.00D+00
 Harris functional with IExCor=10402 and IRadAn=       5 diagonalized for initial guess.
 HarFok:  IExCor=10402 AccDes= 0.00D+00 IRadAn=         5 IDoV= 1 UseB2=F ITyADJ=14
 ICtDFT=  3500011 ScaDFX=  1.000000  1.000000  1.000000  1.000000
 FoFCou: FMM=F IPFlag=           0 FMFlag=      100000 FMFlg1=           0
         NFxFlg=           0 DoJE=T BraDBF=F KetDBF=T FulRan=T
         wScrn=  0.000000 ICntrl=       500 IOpCl=  0 I1Cent=   200000004 NGrid=           0
         NMat0=    1 NMatS0=      1 NMatT0=    0 NMatD0=    1 NMtDS0=    0 NMtDT0=    0
 Petite list used in FoFCou.
 Harris En= -38.2150563506309    
 JPrj=0 DoOrth=F DoCkMO=F.
 Leave Link  401 at Mon Mar 21 20:15:01 2022, MaxMem=  8589934592 cpu:               1.6 elap:               0.2
 (Enter /home/sabyasachi/g16/l502.exe)
 Keep R1 ints in memory in canonical form, NReq=8990390.
 FoFCou: FMM=F IPFlag=           0 FMFlag=           0 FMFlg1=           0
         NFxFlg=           0 DoJE=F BraDBF=F KetDBF=F FulRan=T
         wScrn=  0.000000 ICntrl=       600 IOpCl=  0 I1Cent=           0 NGrid=           0
         NMat0=    1 NMatS0=   1378 NMatT0=    0 NMatD0=    1 NMtDS0=    0 NMtDT0=    0
 Symmetry not used in FoFCou.
 Two-electron integral symmetry not used.
 Closed shell SCF:
 Using DIIS extrapolation, IDIIS=  1040.
 NGot=  8589934592 LenX=  8588027230 LenY=  8588023873
 Requested convergence on RMS density matrix=1.00D-08 within 100 cycles.
 Requested convergence on MAX density matrix=1.00D-06.
 Requested convergence on             energy=1.00D-06.
 No special actions if energy rises.
 Integral accuracy reduced to 1.0D-05 until final iterations.

 Cycle   1  Pass 0  IDiag  1:
 E= -40.3005986806698    
 DIIS: error= 3.32D-02 at cycle   1 NSaved=   1.
 NSaved= 1 IEnMin= 1 EnMin= -40.3005986806698     IErMin= 1 ErrMin= 3.32D-02
 ErrMax= 3.32D-02  0.00D+00 EMaxC= 1.00D-01 BMatC= 4.12D-02 BMatP= 4.12D-02
 IDIUse=3 WtCom= 6.68D-01 WtEn= 3.32D-01
 Coeff-Com:  0.100D+01
 Coeff-En:   0.100D+01
 Coeff:      0.100D+01
 Gap=     0.539 Goal=   None    Shift=    0.000
 GapD=    0.539 DampG=2.000 DampE=0.500 DampFc=1.0000 IDamp=-1.
 RMSDP=7.24D-03 MaxDP=1.41D-01              OVMax= 9.18D-02

 Cycle   2  Pass 0  IDiag  1:
 E= -40.3260001928672     Delta-E=       -0.025401512197 Rises=F Damp=F
 DIIS: error= 2.06D-02 at cycle   2 NSaved=   2.
 NSaved= 2 IEnMin= 2 EnMin= -40.3260001928672     IErMin= 2 ErrMin= 2.06D-02
 ErrMax= 2.06D-02  0.00D+00 EMaxC= 1.00D-01 BMatC= 1.68D-02 BMatP= 4.12D-02
 IDIUse=3 WtCom= 7.94D-01 WtEn= 2.06D-01
 Coeff-Com:  0.388D+00 0.612D+00
 Coeff-En:   0.196D+00 0.804D+00
 Coeff:      0.348D+00 0.652D+00
 Gap=     0.612 Goal=   None    Shift=    0.000
 RMSDP=3.40D-03 MaxDP=5.88D-02 DE=-2.54D-02 OVMax= 3.96D-02

 Cycle   3  Pass 0  IDiag  1:
 E= -40.3426553056845     Delta-E=       -0.016655112817 Rises=F Damp=F
 DIIS: error= 1.70D-03 at cycle   3 NSaved=   3.
 NSaved= 3 IEnMin= 3 EnMin= -40.3426553056845     IErMin= 3 ErrMin= 1.70D-03
 ErrMax= 1.70D-03  0.00D+00 EMaxC= 1.00D-01 BMatC= 9.87D-05 BMatP= 1.68D-02
 IDIUse=3 WtCom= 9.83D-01 WtEn= 1.70D-02
 Coeff-Com: -0.634D-01-0.226D-01 0.109D+01
 Coeff-En:   0.000D+00 0.000D+00 0.100D+01
 Coeff:     -0.623D-01-0.222D-01 0.108D+01
 Gap=     0.608 Goal=   None    Shift=    0.000
 RMSDP=3.78D-04 MaxDP=3.65D-03 DE=-1.67D-02 OVMax= 3.99D-03

 Cycle   4  Pass 0  IDiag  1:
 E= -40.3427934056512     Delta-E=       -0.000138099967 Rises=F Damp=F
 DIIS: error= 1.91D-04 at cycle   4 NSaved=   4.
 NSaved= 4 IEnMin= 4 EnMin= -40.3427934056512     IErMin= 4 ErrMin= 1.91D-04
 ErrMax= 1.91D-04  0.00D+00 EMaxC= 1.00D-01 BMatC= 7.22D-07 BMatP= 9.87D-05
 IDIUse=3 WtCom= 9.98D-01 WtEn= 1.91D-03
 Coeff-Com:  0.493D-02-0.954D-02-0.226D+00 0.123D+01
 Coeff-En:   0.000D+00 0.000D+00 0.000D+00 0.100D+01
 Coeff:      0.492D-02-0.952D-02-0.225D+00 0.123D+01
 Gap=     0.608 Goal=   None    Shift=    0.000
 RMSDP=9.38D-05 MaxDP=8.93D-04 DE=-1.38D-04 OVMax= 7.81D-04

 Cycle   5  Pass 0  IDiag  1:
 E= -40.3427957532158     Delta-E=       -0.000002347565 Rises=F Damp=F
 DIIS: error= 2.15D-05 at cycle   5 NSaved=   5.
 NSaved= 5 IEnMin= 5 EnMin= -40.3427957532158     IErMin= 5 ErrMin= 2.15D-05
 ErrMax= 2.15D-05  0.00D+00 EMaxC= 1.00D-01 BMatC= 9.21D-09 BMatP= 7.22D-07
 IDIUse=1 WtCom= 1.00D+00 WtEn= 0.00D+00
 Coeff-Com: -0.570D-03 0.237D-02 0.485D-01-0.327D+00 0.128D+01
 Coeff:     -0.570D-03 0.237D-02 0.485D-01-0.327D+00 0.128D+01
 Gap=     0.608 Goal=   None    Shift=    0.000
 RMSDP=4.04D-06 MaxDP=5.33D-05 DE=-2.35D-06 OVMax= 6.98D-05

 Initial convergence to 1.0D-05 achieved.  Increase integral accuracy.
 Cycle   6  Pass 1  IDiag  1:
 E= -40.3427954154371     Delta-E=        0.000000337779 Rises=F Damp=F
 DIIS: error= 2.15D-06 at cycle   1 NSaved=   1.
 NSaved= 1 IEnMin= 1 EnMin= -40.3427954154371     IErMin= 1 ErrMin= 2.15D-06
 ErrMax= 2.15D-06  0.00D+00 EMaxC= 1.00D-01 BMatC= 6.14D-11 BMatP= 6.14D-11
 IDIUse=1 WtCom= 1.00D+00 WtEn= 0.00D+00
 Coeff-Com:  0.100D+01
 Coeff:      0.100D+01
 Gap=     0.608 Goal=   None    Shift=    0.000
 RMSDP=4.04D-06 MaxDP=5.33D-05 DE= 3.38D-07 OVMax= 5.00D-06

 Cycle   7  Pass 1  IDiag  1:
 E= -40.3427954155593     Delta-E=       -0.000000000122 Rises=F Damp=F
 DIIS: error= 3.30D-07 at cycle   2 NSaved=   2.
 NSaved= 2 IEnMin= 2 EnMin= -40.3427954155593     IErMin= 2 ErrMin= 3.30D-07
 ErrMax= 3.30D-07  0.00D+00 EMaxC= 1.00D-01 BMatC= 4.34D-12 BMatP= 6.14D-11
 IDIUse=1 WtCom= 1.00D+00 WtEn= 0.00D+00
 Coeff-Com: -0.128D+00 0.113D+01
 Coeff:     -0.128D+00 0.113D+01
 Gap=     0.608 Goal=   None    Shift=    0.000
 RMSDP=2.86D-07 MaxDP=3.43D-06 DE=-1.22D-10 OVMax= 1.43D-06

 Cycle   8  Pass 1  IDiag  1:
 E= -40.3427954155689     Delta-E=       -0.000000000010 Rises=F Damp=F
 DIIS: error= 2.27D-07 at cycle   3 NSaved=   3.
 NSaved= 3 IEnMin= 3 EnMin= -40.3427954155689     IErMin= 3 ErrMin= 2.27D-07
 ErrMax= 2.27D-07  0.00D+00 EMaxC= 1.00D-01 BMatC= 1.35D-12 BMatP= 4.34D-12
 IDIUse=1 WtCom= 1.00D+00 WtEn= 0.00D+00
 Coeff-Com: -0.132D+00 0.398D+00 0.735D+00
 Coeff:     -0.132D+00 0.398D+00 0.735D+00
 Gap=     0.608 Goal=   None    Shift=    0.000
 RMSDP=3.71D-08 MaxDP=7.18D-07 DE=-9.55D-12 OVMax= 4.88D-07

 Cycle   9  Pass 1  IDiag  1:
 E= -40.3427954155703     Delta-E=       -0.000000000001 Rises=F Damp=F
 DIIS: error= 1.51D-08 at cycle   4 NSaved=   4.
 NSaved= 4 IEnMin= 4 EnMin= -40.3427954155703     IErMin= 4 ErrMin= 1.51D-08
 ErrMax= 1.51D-08  0.00D+00 EMaxC= 1.00D-01 BMatC= 4.39D-15 BMatP= 1.35D-12
 IDIUse=1 WtCom= 1.00D+00 WtEn= 0.00D+00
 Coeff-Com:  0.258D-01-0.911D-01-0.129D+00 0.119D+01
 Coeff:      0.258D-01-0.911D-01-0.129D+00 0.119D+01
 Gap=     0.608 Goal=   None    Shift=    0.000
 RMSDP=5.94D-09 MaxDP=5.67D-08 DE=-1.46D-12 OVMax= 5.54D-08

 SCF Done:  E(RLC-B+HF-LYP) =  -40.3427954156     A.U. after    9 cycles
            NFock=  9  Conv=0.59D-08     -V/T= 2.0141
 KE= 3.978217153282D+01 PE=-1.195491132795D+02 EE= 2.597579071615D+01
 Leave Link  502 at Mon Mar 21 20:15:02 2022, MaxMem=  8589934592 cpu:               5.4 elap:               0.7
 (Enter /home/sabyasachi/g16/l801.exe)
 DoSCS=F DFT=T ScalE2(SS,OS)=  1.000000  1.000000
 ExpMin= 6.71D-02 ExpMax= 1.24D+03 ExpMxC= 1.86D+02 IAcc=3 IRadAn=         5 AccDes= 0.00D+00
 HarFok:  IExCor=  205 AccDes= 0.00D+00 IRadAn=         5 IDoV=-2 UseB2=F ITyADJ=14
 ICtDFT= 12500011 ScaDFX=  1.000000  1.000000  1.000000  1.000000
 Largest valence mixing into a core orbital is  6.19D-05
 Largest core mixing into a valence orbital is  3.56D-06
 Range of M.O.s used for correlation:     2    52
 NBasis=    52 NAE=     5 NBE=     5 NFC=     1 NFV=     0
 NROrb=     51 NOA=     4 NOB=     4 NVA=    47 NVB=    47

 **** Warning!!: The largest alpha MO coefficient is  0.25294398D+02

 Leave Link  801 at Mon Mar 21 20:15:02 2022, MaxMem=  8589934592 cpu:               0.4 elap:               0.1
 (Enter /home/sabyasachi/g16/l914.exe)
 RHF ground state
 Keep R1, R2, and R3 ints in memory in canonical form, NReq=68884910.
 FoFCou: FMM=F IPFlag=           0 FMFlag=           0 FMFlg1=           0
         NFxFlg=           0 DoJE=F BraDBF=F KetDBF=F FulRan=T
         wScrn=  0.000000 ICntrl=       600 IOpCl=  0 I1Cent=           0 NGrid=           0
         NMat0=    1 NMatS0=   1378 NMatT0=    0 NMatD0=    1 NMtDS0=    0 NMtDT0=    0
 Symmetry not used in FoFCou.
 Two-electron integral symmetry not used.
 MDV=  8589934592 DFT=T DoStab=F Mixed=T DoRPA=T DoScal=F NonHer=T
 Making orbital integer symmetry assigments:
 Orbital symmetries:
       Occupied  (A) (A) (A) (A) (A)
       Virtual   (A) (A) (A) (A) (A) (A) (A) (A) (A) (A) (A) (A)
                 (A) (A) (A) (A) (A) (A) (A) (A) (A) (A) (A) (A)
                 (A) (A) (A) (A) (A) (A) (A) (A) (A) (A) (A) (A)
                 (A) (A) (A) (A) (A) (A) (A) (A) (A) (A) (A)
   188 initial guesses have been made.
 Convergence on wavefunction:    0.001000000000000
 Davidson Disk Diagonalization:  ConvIn= 1.00D-03 SkipCon=T Conv= 1.00D-03.
 Max sub-space:  1128 roots to seek:   376 dimension of matrix:          376
 *** WARNING: Number of orthogonal guesses is          188
 Iteration     1 Dimension   188 NMult     0 NNew    188
 CISAX will form   188 AO SS matrices at one time.
 NMat=   188 NSing=   188 JSym2X= 0.
 New state      4 was old state      5
 New state      5 was old state      6
 New state      6 was old state     11
 New state      7 was old state      9
 New state      8 was old state     12
 New state      9 was old state      7
 New state     10 was old state      4
 New state     11 was old state      8
 New state     12 was old state     15
 New state     13 was old state     14
 New state     14 was old state     21
 New state     15 was old state     13
 New state     16 was old state     18
 New state     17 was old state     20
 New state     18 was old state     27
 New state     19 was old state     24
 New state     20 was old state     23
 New state     21 was old state     22
 New state     22 was old state     25
 New state     23 was old state     26
 New state     24 was old state     16
 New state     25 was old state     19
 New state     26 was old state     17
 New state     27 was old state     10
 New state     34 was old state     37
 New state     35 was old state     39
 New state     37 was old state     40
 New state     38 was old state     41
 New state     39 was old state     34
 New state     40 was old state     38
 New state     41 was old state     43
 New state     43 was old state     35
 New state     44 was old state     49
 New state     45 was old state     48
 New state     46 was old state     47
 New state     47 was old state     46
 New state     48 was old state     50
 New state     49 was old state     45
 New state     50 was old state     52
 New state     52 was old state     44
 New state     53 was old state     54
 New state     54 was old state     56
 New state     55 was old state     60
 New state     56 was old state     57
 New state     57 was old state     58
 New state     58 was old state     55
 New state     59 was old state     61
 New state     60 was old state     59
 New state     61 was old state     64
 New state     62 was old state     63
 New state     63 was old state     62
 New state     64 was old state     53
 New state     66 was old state     67
 New state     67 was old state     66
 New state     69 was old state     73
 New state     70 was old state     71
 New state     71 was old state     74
 New state     72 was old state     75
 New state     73 was old state     69
 New state     74 was old state     70
 New state     75 was old state     72
 New state     87 was old state     90
 New state     88 was old state     91
 New state     89 was old state     96
 New state     90 was old state     93
 New state     91 was old state     94
 New state     92 was old state     89
 New state     93 was old state     87
 New state     94 was old state     88
 New state     95 was old state     92
 New state     96 was old state     97
 New state     97 was old state     95
 New state     98 was old state    100
 New state     99 was old state     98
 New state    100 was old state     99
 New state    101 was old state    107
 New state    102 was old state    109
 New state    103 was old state    102
 New state    104 was old state    101
 New state    105 was old state    106
 New state    106 was old state    104
 New state    107 was old state    103
 New state    108 was old state    105
 New state    109 was old state    116
 New state    116 was old state    117
 New state    117 was old state    118
 New state    118 was old state    119
 New state    119 was old state    120
 No map to state    120
 New state    121 was old state    122
 New state    122 was old state    123
 New state    123 was old state    126
 New state    124 was old state    121
 New state    125 was old state    124
 New state    126 was old state    125
 New state    127 was old state    128
 New state    128 was old state    127
 New state    129 was old state    134
 New state    130 was old state    133
 New state    132 was old state    135
 New state    133 was old state    129
 New state    134 was old state    130
 New state    135 was old state    132
 New state    138 was old state    140
 New state    139 was old state    138
 New state    140 was old state    142
 New state    141 was old state    143
 New state    142 was old state    146
 New state    143 was old state    141
 New state    144 was old state    139
 New state    145 was old state    144
 New state    146 was old state    145
 New state    153 was old state    154
 New state    154 was old state    155
 New state    155 was old state    160
 New state    156 was old state    157
 New state    157 was old state    159
 New state    158 was old state    153
 New state    159 was old state    156
 New state    160 was old state    161
 New state    161 was old state    158
 New state    165 was old state    166
 New state    166 was old state    168
 New state    167 was old state    170
 New state    168 was old state    167
 New state    169 was old state    165
 New state    170 was old state    169
 New state    176 was old state    182
 New state    178 was old state    180
 New state    179 was old state    181
 New state    180 was old state    185
 New state    181 was old state    178
 New state    182 was old state    183
 New state    183 was old state    184
 New state    184 was old state    176
 New state    185 was old state    179
 Excitation Energies [eV] at current iteration:
 Root      1 :    10.940089813917570
 Root      2 :    10.940221487488560
 Root      3 :    10.940268198518630
 Root      4 :    13.365596750733990
 Root      5 :    13.365623695918450
 Root      6 :    13.365672671453840
 Root      7 :    13.386933077759280
 Root      8 :    13.386956894326370
 Root      9 :    13.387045525400990
 Root     10 :    13.543893992562950
 Root     11 :    13.543943615933080
 Root     12 :    13.756246970878950
 Root     13 :    13.756264331744880
 Root     14 :    13.756311614925210
 Root     15 :    13.820355233770120
 Root     16 :    13.820388487492380
 Root     17 :    13.982459725784200
 Root     18 :    14.724426956991260
 Root     19 :    14.724448491914710
 Root     20 :    14.724489098952360
 Root     21 :    14.893924364855210
 Root     22 :    14.894016345704400
 Root     23 :    14.894031313454560
 Root     24 :    15.264806072133020
 Root     25 :    15.264840549700590
 Root     26 :    15.264855306852300
 Root     27 :    15.361443177160070
 Root     28 :    18.300475747033400
 Root     29 :    18.300607144363600
 Root     30 :    18.300657351576150
 Root     31 :    19.479083156811530
 Root     32 :    19.479205481455590
 Root     33 :    19.479246743702530
 Root     34 :    19.771817824728720
 Root     35 :    19.771842429841320
 Root     36 :    19.811047741975030
 Root     37 :    19.811087402971940
 Root     38 :    19.811162835651900
 Root     39 :    19.909715331619730
 Root     40 :    19.998929809139850
 Root     41 :    19.998979608304990
 Root     42 :    19.999064613659850
 Root     43 :    20.134472161019670
 Root     44 :    20.274978318699240
 Root     45 :    20.275019218377690
 Root     46 :    20.307269147420720
 Root     47 :    20.307299919260360
 Root     48 :    20.307388928113810
 Root     49 :    20.768248437115960
 Root     50 :    20.768289373042310
 Root     51 :    20.768366029400210
 Root     52 :    20.953787337516640
 Root     53 :    21.512108447151330
 Root     54 :    21.512181577141490
 Root     55 :    21.512273305042630
 Root     56 :    21.601545019719380
 Root     57 :    21.601558278483640
 Root     58 :    21.694918879419200
 Root     59 :    21.694997532075820
 Root     60 :    21.695080774072470
 Root     61 :    22.595976015574500
 Root     62 :    22.595999962440220
 Root     63 :    22.596008806185830
 Root     64 :    23.136326237564410
 Root     65 :    23.151558839188750
 Root     66 :    23.151586656666330
 Root     67 :    23.151594768012330
 Root     68 :    23.169365485201910
 Root     69 :    23.169414064082600
 Root     70 :    23.169445703487560
 Root     71 :    23.928520935066470
 Root     72 :    23.928537589758400
 Root     73 :    24.039219742012090
 Root     74 :    24.039274283301630
 Root     75 :    24.039285275202110
 Root     76 :    27.385537952911220
 Root     77 :    28.720471326943090
 Root     78 :    28.743170044482690
 Root     79 :    28.743188588254030
 Root     80 :    28.743218586551110
 Root     81 :    29.381236080594800
 Root     82 :    29.381281076650680
 Root     83 :    29.381297273786020
 Root     84 :    30.591081302088860
 Root     85 :    30.591129805675330
 Root     86 :    30.591222221900300
 Root     87 :    31.506418222216670
 Root     88 :    31.506493621867440
 Root     89 :    31.506668824993860
 Root     90 :    31.652899444137250
 Root     91 :    31.652976389941870
 Root     92 :    32.113182494218740
 Root     93 :    32.397003967832750
 Root     94 :    32.397010879168010
 Root     95 :    32.778060066088510
 Root     96 :    32.778150154936600
 Root     97 :    32.778348202791770
 Root     98 :    34.702681652537880
 Root     99 :    34.702705767537860
 Root    100 :    34.702712292585710
 Root    101 :    34.743639632866770
 Root    102 :    34.743659848020810
 Root    103 :    34.743686323861130
 Root    104 :    34.776464663499850
 Root    105 :    34.776476842214800
 Root    106 :    34.975465204204950
 Root    107 :    34.975510985620900
 Root    108 :    34.975542900160310
 Root    109 :    39.144886166956040
 Root    110 :    40.142906229649360
 Root    111 :    40.143031396529890
 Root    112 :    40.143072202994330
 Root    113 :    40.677642572809260
 Root    114 :    40.677815326338670
 Root    115 :    40.677859754252490
 Root    116 :    43.769892052996840
 Root    117 :    43.769986829570030
 Root    118 :    43.770118358886460
 Root    119 :    44.168714234114380
 Root    120 :    49.556931776576940
 Root    121 :    50.714614985140880
 Root    122 :    50.714660124484900
 Root    123 :    50.714705045189550
 Root    124 :    51.863861850079200
 Root    125 :    51.863946612460370
 Root    126 :    51.863984945003810
 Root    127 :    55.503414104063080
 Root    128 :    55.503562382120240
 Root    129 :    55.503718519772290
 Root    130 :    55.612998897896650
 Root    131 :    55.613000022373890
 Root    132 :    55.642753988104770
 Root    133 :    55.710416899397390
 Root    134 :    55.710535697508210
 Root    135 :    55.710675085380050
 Root    136 :    59.944221198306240
 Root    137 :    59.944289979902810
 Root    138 :    60.589353629355640
 Root    139 :    60.817224516469050
 Root    140 :    60.817283930289530
 Root    141 :    60.981030687833130
 Root    142 :    60.981125132115150
 Root    143 :    60.981280919086290
 Root    144 :    61.593853229791290
 Root    145 :    61.593969874159210
 Root    146 :    61.594142793568050
 Root    147 :    64.151365379393650
 Root    148 :    64.151509641861840
 Root    149 :    64.151723882457930
 Root    150 :    69.643634186437000
 Root    151 :    69.644002619166940
 Root    152 :    69.644283474958140
 Root    153 :    70.915500083222970
 Root    154 :    70.915849351357660
 Root    155 :    70.916186679798130
 Root    156 :    71.044757225504110
 Root    157 :    71.044767148269540
 Root    158 :    71.457517309549690
 Root    159 :    71.651831369240140
 Root    160 :    71.652179713466860
 Root    161 :    71.652513111528990
 Root    162 :    79.614307312372860
 Root    163 :    79.614790807193810
 Root    164 :    79.615303606492790
 Root    165 :    80.057116169366170
 Root    166 :    80.057125195410780
 Root    167 :    80.057255835409850
 Root    168 :    80.905956422408050
 Root    169 :    80.906092612309920
 Root    170 :    80.906125355722000
 Root    171 :    82.862625328817000
 Root    172 :    82.862780950314260
 Root    173 :    82.862849463113320
 Root    174 :    88.961894412673400
 Root    175 :    88.962072076711610
 Root    176 :    91.167324138528730
 Root    177 :    91.167563796518910
 Root    178 :    91.167779672364260
 Root    179 :    91.217160888230770
 Root    180 :    91.217213853127520
 Root    181 :    91.376112410523480
 Root    182 :    91.376348828175320
 Root    183 :    91.376528692562560
 Root    184 :    91.677293348883850
 Root    185 :    91.854759301996280
 Root    186 :    99.933083489860420
 Root    187 :    99.933530779551180
 Root    188 :    99.934125034470480
 Convergence achieved for final wavefunctions.
 ***********************************************************************
 Excited states from <AA,BB:AA,BB> singles matrix:
 ***********************************************************************
 
 1PDM for each excited state written to RWF  633
 Ground to excited state transition densities written to RWF  633
 Ground to excited state transition electric dipole moments (Au):
       state          X           Y           Z        Dip. S.      Osc.
         1         0.0423     -0.1109     -0.7507      0.5776      0.1548
         2         0.1284     -0.7400      0.1165      0.5776      0.1548
         3        -0.7479     -0.1333     -0.0224      0.5776      0.1548
         4        -0.0355     -0.2447     -0.5330      0.3452      0.1131
         5         0.1787     -0.5132      0.2236      0.3453      0.1131
         6         0.5586      0.1486     -0.1054      0.3453      0.1131
         7        -0.0002     -0.0001     -0.0016      0.0000      0.0000
         8         0.0002     -0.0003      0.0000      0.0000      0.0000
         9         0.0008      0.0003     -0.0001      0.0000      0.0000
        10        -0.0000     -0.0001      0.0000      0.0000      0.0000
        11         0.0000     -0.0002      0.0000      0.0000      0.0000
        12         0.0000     -0.0000      0.0001      0.0000      0.0000
        13        -0.0000      0.0000      0.0000      0.0000      0.0000
        14         0.0001      0.0000     -0.0000      0.0000      0.0000
        15        -0.0000     -0.0000     -0.0000      0.0000      0.0000
        16         0.0000     -0.0000      0.0000      0.0000      0.0000
        17        -0.0000      0.0001      0.0000      0.0000      0.0000
        18         0.0411      0.0527      0.3516      0.1281      0.0462
        19        -0.0589      0.3500     -0.0456      0.1280      0.0462
        20        -0.3504     -0.0526      0.0488      0.1279      0.0461
        21         0.0001     -0.0000      0.0003      0.0000      0.0000
        22         0.0002      0.0000     -0.0001      0.0000      0.0000
        23        -0.0002     -0.0001      0.0001      0.0000      0.0000
        24         1.3769      0.2224     -0.2259      1.9964      0.7466
        25         0.2671     -1.3563      0.2925      1.9963      0.7466
        26         0.1708      0.3277      1.3637      1.9963      0.7466
        27         0.0000      0.0000      0.0000      0.0000      0.0000
        28        -0.0203      0.0575      0.4280      0.1869      0.0838
        29        -0.0638      0.4233     -0.0599      0.1869      0.0838
        30         0.4271      0.0660      0.0114      0.1869      0.0838
        31        -0.0300      0.0796      0.4632      0.2218      0.1059
        32        -0.0994      0.4526     -0.0842      0.2218      0.1059
        33         0.4594      0.1031      0.0120      0.2218      0.1059
        34         0.0000     -0.0001      0.0000      0.0000      0.0000
        35        -0.0000     -0.0000      0.0000      0.0000      0.0000
        36        -0.0912     -0.0133     -0.0000      0.0085      0.0041
        37         0.0132     -0.0905      0.0121      0.0085      0.0041
        38        -0.0017      0.0119      0.0914      0.0085      0.0041
        39         0.0000     -0.0000      0.0000      0.0000      0.0000
        40         0.0000      0.0000      0.0000      0.0000      0.0000
        41        -0.0000     -0.0000      0.0000      0.0000      0.0000
        42        -0.0000     -0.0000      0.0000      0.0000      0.0000
        43        -0.0000     -0.0000     -0.0000      0.0000      0.0000
        44         0.0000      0.0000      0.0000      0.0000      0.0000
        45         0.0000     -0.0000      0.0000      0.0000      0.0000
        46         0.0000      0.0000      0.0001      0.0000      0.0000
        47        -0.0000      0.0000     -0.0000      0.0000      0.0000
        48        -0.0000     -0.0000      0.0000      0.0000      0.0000
        49        -0.0461     -0.1638     -0.4998      0.2788      0.1418
        50         0.1268     -0.4904      0.1490      0.2788      0.1418
        51        -0.5104     -0.1070      0.0822      0.2787      0.1418
        52        -0.0000      0.0002      0.0000      0.0000      0.0000
        53        -0.0000     -0.0000      0.0000      0.0000      0.0000
        54         0.0000      0.0000      0.0000      0.0000      0.0000
        55         0.0001      0.0000      0.0000      0.0000      0.0000
        56        -0.0000     -0.0000      0.0000      0.0000      0.0000
        57        -0.0000      0.0000     -0.0000      0.0000      0.0000
        58        -0.0058     -0.0194     -0.1116      0.0129      0.0068
        59         0.0216     -0.1099      0.0180      0.0129      0.0068
        60        -0.1112     -0.0203      0.0093      0.0129      0.0068
        61        -0.0120      0.0380      0.1009      0.0118      0.0065
        62        -0.0555      0.0848     -0.0386      0.0118      0.0065
        63        -0.0924     -0.0559      0.0101      0.0118      0.0065
        64         0.0001     -0.0004     -0.0000      0.0000      0.0000
        65         0.2468      0.0352     -0.0482      0.0645      0.0366
        66        -0.0443      0.2454     -0.0474      0.0645      0.0366
        67         0.0400      0.0545      0.2447      0.0645      0.0366
        68        -0.0002     -0.0001     -0.0001      0.0000      0.0000
        69        -0.0002     -0.0000      0.0002      0.0000      0.0000
        70         0.0000     -0.0000     -0.0000      0.0000      0.0000
        71         0.0000     -0.0001      0.0000      0.0000      0.0000
        72        -0.0000      0.0000     -0.0000      0.0000      0.0000
        73        -0.7088     -0.1508      0.1984      0.5645      0.3325
        74        -0.2402      0.5727     -0.4229      0.5645      0.3325
        75        -0.0663     -0.4624     -0.5885      0.5645      0.3325
        76         0.0000     -0.0000      0.0000      0.0000      0.0000
        77         0.0000     -0.0000      0.0000      0.0000      0.0000
        78        -0.0000     -0.0000      0.0000      0.0000      0.0000
        79        -0.0000      0.0000     -0.0000      0.0000      0.0000
        80         0.0000      0.0000      0.0000      0.0000      0.0000
        81         0.0003     -0.0009     -0.0044      0.0000      0.0000
        82        -0.0011      0.0042     -0.0009      0.0000      0.0000
        83         0.0043      0.0011      0.0000      0.0000      0.0000
        84         0.0090      0.0260      0.0912      0.0091      0.0068
        85        -0.0212      0.0899     -0.0235      0.0091      0.0068
        86        -0.0925     -0.0180      0.0143      0.0091      0.0068
        87        -0.0000     -0.0000      0.0000      0.0000      0.0000
        88        -0.0000     -0.0000      0.0000      0.0000      0.0000
        89        -0.0000     -0.0000     -0.0000      0.0000      0.0000
        90        -0.0000      0.0000     -0.0000      0.0000      0.0000
        91        -0.0000      0.0000     -0.0000      0.0000      0.0000
        92         0.0000     -0.0001     -0.0000      0.0000      0.0000
        93        -0.0000      0.0001     -0.0000      0.0000      0.0000
        94         0.0000     -0.0000      0.0000      0.0000      0.0000
        95        -0.0554     -0.0630     -0.4174      0.1812      0.1455
        96         0.0639     -0.4173      0.0546      0.1812      0.1455
        97        -0.4172     -0.0556      0.0637      0.1812      0.1455
        98        -0.1456     -0.0333      0.0605      0.0260      0.0221
        99        -0.0685      0.0528     -0.1361      0.0260      0.0221
       100         0.0083     -0.1486     -0.0619      0.0260      0.0221
       101        -0.0001     -0.0000     -0.0000      0.0000      0.0000
       102         0.0001      0.0001     -0.0002      0.0000      0.0000
       103        -0.0001     -0.0001     -0.0003      0.0000      0.0000
       104         0.0000      0.0000      0.0000      0.0000      0.0000
       105        -0.0000      0.0000     -0.0000      0.0000      0.0000
       106         0.1157     -0.1715     -0.2096      0.0867      0.0743
       107        -0.2577      0.0002     -0.1425      0.0867      0.0743
       108        -0.0830     -0.2394      0.1500      0.0867      0.0743
       109         0.0000      0.0000      0.0000      0.0000      0.0000
       110         0.0042     -0.0099     -0.0664      0.0045      0.0044
       111         0.0117     -0.0654      0.0105      0.0045      0.0044
       112        -0.0661     -0.0122     -0.0024      0.0045      0.0045
       113         0.0117     -0.0006     -0.1539      0.0238      0.0237
       114        -0.0161     -0.1535     -0.0006      0.0238      0.0237
       115         0.1531     -0.0161      0.0117      0.0238      0.0237
       116        -0.2822      0.0040      0.0084      0.0797      0.0855
       117         0.0044      0.2821      0.0110      0.0797      0.0855
       118         0.0083     -0.0111      0.2820      0.0797      0.0855
       119        -0.0000     -0.0000     -0.0000      0.0000      0.0000
       120        -0.0000      0.0000     -0.0000      0.0000      0.0000
       121        -0.0000     -0.0000      0.0000      0.0000      0.0000
       122         0.0000      0.0000      0.0000      0.0000      0.0000
       123        -0.0000     -0.0000      0.0000      0.0000      0.0000
       124         0.3836      0.0821     -0.2417      0.2123      0.2697
       125         0.2447      0.0058      0.3904      0.2123      0.2697
       126         0.0726     -0.4533     -0.0388      0.2123      0.2697
       127        -0.0000     -0.0000      0.0000      0.0000      0.0000
       128        -0.0000     -0.0000      0.0000      0.0000      0.0000
       129        -0.0000     -0.0000     -0.0001      0.0000      0.0000
       130        -0.0000      0.0003      0.0000      0.0000      0.0000
       131        -0.0001      0.0001     -0.0001      0.0000      0.0000
       132        -0.0000     -0.0000      0.0000      0.0000      0.0000
       133        -0.2873     -0.0326      0.0139      0.0838      0.1143
       134         0.0338     -0.2861      0.0280      0.0838      0.1143
       135         0.0106      0.0294      0.2878      0.0838      0.1144
       136         0.0000     -0.0000      0.0000      0.0000      0.0000
       137        -0.0000      0.0000     -0.0000      0.0000      0.0000
       138         0.0000     -0.0000      0.0000      0.0000      0.0000
       139        -0.0000      0.0000     -0.0000      0.0000      0.0000
       140         0.0000      0.0000      0.0000      0.0000      0.0000
       141         0.0001      0.0000     -0.0000      0.0000      0.0000
       142         0.0000      0.0000     -0.0000      0.0000      0.0000
       143         0.0000      0.0000      0.0001      0.0000      0.0000
       144        -0.2024      0.0289      0.0087      0.0419      0.0632
       145        -0.0300     -0.1997     -0.0328      0.0419      0.0632
       146        -0.0039      0.0337     -0.2018      0.0419      0.0632
       147         0.0000      0.0000      0.0000      0.0000      0.0000
       148        -0.0000      0.0000      0.0000      0.0000      0.0000
       149         0.0000     -0.0000      0.0000      0.0000      0.0000
       150         0.0553     -0.0011     -0.0058      0.0031      0.0053
       151         0.0019      0.0551      0.0074      0.0031      0.0053
       152        -0.0056      0.0076     -0.0548      0.0031      0.0053
       153         0.0000     -0.0000     -0.0000      0.0000      0.0000
       154        -0.0000      0.0000      0.0000      0.0000      0.0000
       155        -0.0000     -0.0000      0.0000      0.0000      0.0000
       156         0.0000     -0.0000      0.0000      0.0000      0.0000
       157        -0.0000      0.0000     -0.0000      0.0000      0.0000
       158        -0.0000      0.0001     -0.0000      0.0000      0.0000
       159        -0.0015     -0.0027     -0.0282      0.0008      0.0014
       160        -0.0032      0.0281     -0.0025      0.0008      0.0014
       161         0.0282      0.0031     -0.0017      0.0008      0.0014
       162         0.0019      0.0022      0.0294      0.0009      0.0017
       163         0.0030     -0.0293      0.0020      0.0009      0.0017
       164         0.0293      0.0028     -0.0021      0.0009      0.0017
       165        -0.0000     -0.0000      0.0000      0.0000      0.0000
       166         0.0000     -0.0000     -0.0000      0.0000      0.0000
       167         0.0000      0.0000      0.0000      0.0000      0.0000
       168         0.0253      0.0034     -0.0925      0.0092      0.0183
       169        -0.0852     -0.0368     -0.0247      0.0092      0.0183
       170        -0.0364      0.0886     -0.0067      0.0092      0.0183
       171         0.0010     -0.0042     -0.0273      0.0008      0.0016
       172         0.0047     -0.0269      0.0043      0.0008      0.0016
       173        -0.0272     -0.0048     -0.0003      0.0008      0.0016
       174         0.0000      0.0000      0.0000      0.0000      0.0000
       175         0.0000     -0.0000      0.0000      0.0000      0.0000
       176        -0.0002     -0.0001      0.0000      0.0000      0.0000
       177         0.0000      0.0000     -0.0001      0.0000      0.0000
       178        -0.0000     -0.0001     -0.0003      0.0000      0.0000
       179        -0.0000     -0.0002     -0.0000      0.0000      0.0000
       180         0.0000     -0.0000      0.0000      0.0000      0.0000
       181        -0.1641      0.0023      0.0172      0.0272      0.0610
       182        -0.0044     -0.1637     -0.0201      0.0272      0.0610
       183        -0.0168      0.0205     -0.1629      0.0272      0.0610
       184        -0.0001      0.0001     -0.0000      0.0000      0.0000
       185         0.0000     -0.0001      0.0000      0.0000      0.0000
       186         0.1116     -0.0025     -0.0039      0.0125      0.0305
       187        -0.0027     -0.1115     -0.0060      0.0125      0.0305
       188        -0.0037      0.0060     -0.1114      0.0125      0.0305
 Ground to excited state transition velocity dipole moments (Au):
       state          X           Y           Z        Dip. S.      Osc.
         1        -0.0176      0.0461      0.3119      0.0997      0.1653
         2        -0.0533      0.3075     -0.0484      0.0997      0.1654
         3         0.3108      0.0554      0.0093      0.0997      0.1654
         4         0.0177      0.1222      0.2661      0.0860      0.1168
         5        -0.0892      0.2562     -0.1116      0.0861      0.1168
         6        -0.2789     -0.0742      0.0526      0.0861      0.1168
         7         0.0001      0.0000      0.0008      0.0000      0.0000
         8        -0.0001      0.0001     -0.0000      0.0000      0.0000
         9        -0.0004     -0.0002      0.0000      0.0000      0.0000
        10         0.0000      0.0000     -0.0000      0.0000      0.0000
        11        -0.0000      0.0001     -0.0000      0.0000      0.0000
        12        -0.0000      0.0000     -0.0001      0.0000      0.0000
        13         0.0000     -0.0000     -0.0000      0.0000      0.0000
        14        -0.0000     -0.0000      0.0000      0.0000      0.0000
        15         0.0000      0.0000      0.0000      0.0000      0.0000
        16        -0.0000      0.0000     -0.0000      0.0000      0.0000
        17         0.0000     -0.0000     -0.0000      0.0000      0.0000
        18        -0.0200     -0.0257     -0.1716      0.0305      0.0376
        19         0.0287     -0.1708      0.0223      0.0305      0.0376
        20         0.1710      0.0257     -0.0238      0.0305      0.0375
        21        -0.0000      0.0000     -0.0002      0.0000      0.0000
        22        -0.0001     -0.0000      0.0000      0.0000      0.0000
        23         0.0001      0.0000     -0.0000      0.0000      0.0000
        24        -0.7672     -0.1239      0.1259      0.6198      0.7366
        25        -0.1488      0.7557     -0.1630      0.6198      0.7366
        26        -0.0952     -0.1826     -0.7599      0.6198      0.7365
        27        -0.0000     -0.0000     -0.0000      0.0000      0.0000
        28         0.0138     -0.0389     -0.2901      0.0859      0.0851
        29         0.0433     -0.2869      0.0406      0.0859      0.0851
        30        -0.2895     -0.0447     -0.0078      0.0859      0.0851
        31         0.0219     -0.0582     -0.3388      0.1187      0.1105
        32         0.0727     -0.3311      0.0616      0.1187      0.1105
        33        -0.3361     -0.0754     -0.0088      0.1187      0.1105
        34        -0.0000      0.0001     -0.0000      0.0000      0.0000
        35         0.0000      0.0000      0.0000      0.0000      0.0000
        36         0.1088      0.0159      0.0000      0.0121      0.0111
        37        -0.0157      0.1079     -0.0144      0.0121      0.0111
        38         0.0021     -0.0142     -0.1090      0.0121      0.0111
        39        -0.0000      0.0000     -0.0000      0.0000      0.0000
        40        -0.0000     -0.0000     -0.0000      0.0000      0.0000
        41         0.0000      0.0000     -0.0000      0.0000      0.0000
        42         0.0000      0.0000     -0.0000      0.0000      0.0000
        43         0.0000      0.0000      0.0000      0.0000      0.0000
        44        -0.0000     -0.0000     -0.0000      0.0000      0.0000
        45        -0.0000      0.0000     -0.0000      0.0000      0.0000
        46        -0.0000     -0.0000     -0.0000      0.0000      0.0000
        47         0.0000     -0.0000      0.0000      0.0000      0.0000
        48         0.0000      0.0000     -0.0000      0.0000      0.0000
        49         0.0342      0.1214      0.3704      0.1531      0.1337
        50        -0.0939      0.3634     -0.1104      0.1531      0.1337
        51         0.3783      0.0793     -0.0609      0.1531      0.1337
        52         0.0000     -0.0002     -0.0000      0.0000      0.0000
        53         0.0000      0.0000     -0.0000      0.0000      0.0000
        54        -0.0000     -0.0000     -0.0000      0.0000      0.0000
        55        -0.0000     -0.0000     -0.0000      0.0000      0.0000
        56         0.0000      0.0000      0.0000      0.0000      0.0000
        57         0.0000     -0.0000      0.0000      0.0000      0.0000
        58         0.0045      0.0151      0.0868      0.0078      0.0065
        59        -0.0168      0.0855     -0.0140      0.0078      0.0065
        60         0.0865      0.0158     -0.0073      0.0078      0.0065
        61         0.0114     -0.0363     -0.0963      0.0107      0.0086
        62         0.0530     -0.0810      0.0368      0.0107      0.0086
        63         0.0883      0.0534     -0.0097      0.0107      0.0086
        64        -0.0001      0.0003      0.0000      0.0000      0.0000
        65        -0.2073     -0.0296      0.0405      0.0455      0.0356
        66         0.0372     -0.2062      0.0398      0.0455      0.0356
        67        -0.0336     -0.0458     -0.2056      0.0455      0.0356
        68         0.0001      0.0000      0.0001      0.0000      0.0000
        69         0.0001      0.0000     -0.0001      0.0000      0.0000
        70        -0.0000      0.0000      0.0000      0.0000      0.0000
        71        -0.0000      0.0001     -0.0000      0.0000      0.0000
        72         0.0000     -0.0000      0.0000      0.0000      0.0000
        73         0.6547      0.1393     -0.1832      0.4816      0.3634
        74         0.2218     -0.5289      0.3906      0.4816      0.3634
        75         0.0612      0.4271      0.5435      0.4816      0.3634
        76        -0.0000      0.0000     -0.0000      0.0000      0.0000
        77        -0.0000      0.0000     -0.0000      0.0000      0.0000
        78         0.0000      0.0000     -0.0000      0.0000      0.0000
        79         0.0000     -0.0000      0.0000      0.0000      0.0000
        80        -0.0000     -0.0000     -0.0000      0.0000      0.0000
        81        -0.0029      0.0089      0.0455      0.0022      0.0013
        82         0.0116     -0.0440      0.0093      0.0022      0.0013
        83        -0.0449     -0.0119     -0.0005      0.0022      0.0013
        84        -0.0075     -0.0218     -0.0764      0.0064      0.0038
        85         0.0177     -0.0753      0.0197      0.0064      0.0038
        86         0.0774      0.0151     -0.0119      0.0064      0.0038
        87         0.0000      0.0000     -0.0000      0.0000      0.0000
        88         0.0000      0.0000     -0.0000      0.0000      0.0000
        89         0.0000      0.0000      0.0000      0.0000      0.0000
        90         0.0000     -0.0000      0.0000      0.0000      0.0000
        91         0.0000     -0.0001      0.0000      0.0000      0.0000
        92        -0.0000      0.0001      0.0000      0.0000      0.0000
        93         0.0000     -0.0001      0.0000      0.0000      0.0000
        94        -0.0000      0.0000     -0.0000      0.0000      0.0000
        95         0.0666      0.0758      0.5020      0.2622      0.1451
        96        -0.0769      0.5020     -0.0656      0.2622      0.1451
        97         0.5019      0.0668     -0.0767      0.2622      0.1451
        98         0.2181      0.0500     -0.0906      0.0583      0.0305
        99         0.1027     -0.0790      0.2038      0.0583      0.0305
       100        -0.0125      0.2226      0.0927      0.0583      0.0305
       101         0.0001     -0.0000      0.0000      0.0000      0.0000
       102        -0.0001     -0.0001      0.0003      0.0000      0.0000
       103         0.0001      0.0002      0.0004      0.0000      0.0000
       104        -0.0000     -0.0000     -0.0000      0.0000      0.0000
       105         0.0000     -0.0000      0.0000      0.0000      0.0000
       106        -0.1391      0.2060      0.2518      0.1252      0.0649
       107         0.3097     -0.0002      0.1712      0.1252      0.0649
       108         0.0998      0.2877     -0.1802      0.1252      0.0649
       109        -0.0000     -0.0000     -0.0000      0.0000      0.0000
       110        -0.0101      0.0235      0.1575      0.0255      0.0115
       111        -0.0277      0.1552     -0.0249      0.0255      0.0115
       112         0.1569      0.0289      0.0057      0.0255      0.0115
       113        -0.0172      0.0009      0.2255      0.0512      0.0228
       114         0.0236      0.2249      0.0009      0.0512      0.0228
       115        -0.2243      0.0236     -0.0172      0.0512      0.0228
       116         0.4995     -0.0071     -0.0149      0.2497      0.1035
       117        -0.0077     -0.4993     -0.0194      0.2497      0.1035
       118        -0.0146      0.0196     -0.4991      0.2497      0.1035
       119         0.0000      0.0001      0.0000      0.0000      0.0000
       120         0.0000     -0.0000      0.0000      0.0000      0.0000
       121         0.0000      0.0000     -0.0001      0.0000      0.0000
       122        -0.0000     -0.0000     -0.0000      0.0000      0.0000
       123         0.0001      0.0000     -0.0000      0.0000      0.0000
       124        -0.6007     -0.1286      0.3785      0.5206      0.1821
       125        -0.3832     -0.0091     -0.6113      0.5206      0.1821
       126        -0.1137      0.7099      0.0607      0.5206      0.1821
       127         0.0000      0.0000     -0.0000      0.0000      0.0000
       128         0.0000      0.0001     -0.0000      0.0000      0.0000
       129         0.0000      0.0000      0.0002      0.0000      0.0000
       130         0.0000     -0.0005     -0.0000      0.0000      0.0000
       131         0.0001     -0.0001      0.0001      0.0000      0.0000
       132         0.0000      0.0000     -0.0000      0.0000      0.0000
       133         0.4772      0.0541     -0.0231      0.2312      0.0753
       134        -0.0561      0.4752     -0.0465      0.2312      0.0753
       135        -0.0176     -0.0489     -0.4780      0.2312      0.0753
       136        -0.0000      0.0000     -0.0000      0.0000      0.0000
       137         0.0000     -0.0000      0.0000      0.0000      0.0000
       138        -0.0000      0.0001     -0.0000      0.0000      0.0000
       139         0.0000     -0.0000      0.0000      0.0000      0.0000
       140        -0.0000     -0.0001     -0.0000      0.0000      0.0000
       141        -0.0001     -0.0001      0.0000      0.0000      0.0000
       142        -0.0001     -0.0000      0.0001      0.0000      0.0000
       143        -0.0000     -0.0000     -0.0001      0.0000      0.0000
       144         0.4012     -0.0573     -0.0173      0.1646      0.0485
       145         0.0594      0.3960      0.0650      0.1646      0.0485
       146         0.0077     -0.0668      0.4001      0.1646      0.0485
       147        -0.0000     -0.0000      0.0000      0.0000      0.0000
       148         0.0000     -0.0000     -0.0000      0.0000      0.0000
       149        -0.0000      0.0000      0.0000      0.0000      0.0000
       150        -0.0621      0.0013      0.0065      0.0039      0.0010
       151        -0.0021     -0.0619     -0.0084      0.0039      0.0010
       152         0.0063     -0.0085      0.0615      0.0039      0.0010
       153        -0.0000      0.0000      0.0000      0.0000      0.0000
       154         0.0000     -0.0000     -0.0000      0.0000      0.0000
       155         0.0000      0.0000     -0.0000      0.0000      0.0000
       156        -0.0000      0.0001     -0.0000      0.0000      0.0000
       157         0.0000     -0.0000      0.0000      0.0000      0.0000
       158         0.0001     -0.0003      0.0000      0.0000      0.0000
       159         0.0052      0.0096      0.1002      0.0102      0.0026
       160         0.0113     -0.0997      0.0090      0.0101      0.0026
       161        -0.1000     -0.0108      0.0062      0.0101      0.0026
       162        -0.0024     -0.0029     -0.0378      0.0014      0.0003
       163        -0.0038      0.0377     -0.0026      0.0014      0.0003
       164        -0.0376     -0.0036      0.0027      0.0014      0.0003
       165         0.0000      0.0000     -0.0000      0.0000      0.0000
       166        -0.0000      0.0000      0.0000      0.0000      0.0000
       167        -0.0001     -0.0000     -0.0000      0.0000      0.0000
       168        -0.0714     -0.0097      0.2611      0.0734      0.0165
       169         0.2403      0.1039      0.0696      0.0734      0.0165
       170         0.1026     -0.2500      0.0188      0.0734      0.0165
       171        -0.0006      0.0024      0.0160      0.0003      0.0001
       172        -0.0027      0.0158     -0.0025      0.0003      0.0001
       173         0.0160      0.0028      0.0002      0.0003      0.0001
       174        -0.0000     -0.0000     -0.0000      0.0000      0.0000
       175        -0.0000      0.0000     -0.0000      0.0000      0.0000
       176         0.0005      0.0002     -0.0001      0.0000      0.0000
       177        -0.0001     -0.0001      0.0003      0.0000      0.0000
       178         0.0001      0.0001      0.0008      0.0000      0.0000
       179        -0.0000      0.0006      0.0001      0.0000      0.0000
       180        -0.0001      0.0001     -0.0001      0.0000      0.0000
       181         0.4524     -0.0063     -0.0475      0.2070      0.0411
       182         0.0122      0.4514      0.0555      0.2070      0.0411
       183         0.0464     -0.0565      0.4490      0.2070      0.0411
       184         0.0002     -0.0004      0.0001      0.0000      0.0000
       185        -0.0001      0.0003     -0.0000      0.0000      0.0000
       186        -0.3209      0.0072      0.0111      0.1031      0.0187
       187         0.0078      0.3206      0.0171      0.1031      0.0187
       188         0.0107     -0.0174      0.3205      0.1031      0.0187
 Ground to excited state transition magnetic dipole moments (Au):
       state          X           Y           Z
         1         0.0000      0.0000      0.0000
         2         0.0000     -0.0000     -0.0000
         3         0.0000     -0.0000     -0.0000
         4        -0.0019     -0.0004      0.0001
         5         0.0007      0.0006      0.0000
         6        -0.0001     -0.0001     -0.0012
         7         0.7630      0.2153      0.0243
         8         0.2062     -0.7488      0.1613
         9        -0.0667      0.1488      0.7763
        10         0.0001     -0.0004      0.0000
        11        -0.0000      0.0001     -0.0000
        12         0.6073      0.1309      0.0110
        13         0.1270     -0.5985      0.1079
        14         0.0333     -0.1033     -0.6118
        15        -0.0002      0.0008     -0.0001
        16        -0.0001     -0.0003      0.0000
        17         0.0000      0.0000     -0.0000
        18        -0.0002     -0.0000      0.0000
        19         0.0000      0.0000      0.0000
        20        -0.0000      0.0000     -0.0002
        21         0.3431      0.0649     -0.0945
        22        -0.1064      0.2911     -0.1866
        23         0.0426      0.2048      0.2951
        24         0.0000     -0.0000      0.0000
        25        -0.0000     -0.0000      0.0000
        26        -0.0000     -0.0000      0.0000
        27         0.0000     -0.0000     -0.0000
        28         0.0000      0.0000      0.0000
        29        -0.0000     -0.0000     -0.0000
        30         0.0000      0.0000     -0.0000
        31        -0.0000     -0.0000     -0.0000
        32         0.0000      0.0000      0.0000
        33        -0.0000      0.0000      0.0000
        34         0.0000      0.0000     -0.0000
        35         0.0000     -0.0000      0.0000
        36         0.0000     -0.0000      0.0000
        37         0.0000     -0.0000      0.0000
        38         0.0000      0.0000     -0.0000
        39        -0.0000     -0.0000     -0.0000
        40         0.0122      0.0213      0.1196
        41        -0.0208      0.1187     -0.0190
        42        -0.1196     -0.0185      0.0155
        43        -0.0000      0.0000      0.0000
        44        -0.0002      0.0008     -0.0001
        45         0.0000      0.0003     -0.0001
        46         0.3798      0.0718      0.0116
        47         0.0690     -0.3753      0.0625
        48        -0.0228      0.0593      0.3814
        49         0.0000      0.0000      0.0000
        50        -0.0000     -0.0000      0.0000
        51         0.0000      0.0000     -0.0000
        52         0.0000     -0.0000      0.0000
        53        -0.2278     -0.0410      0.0122
        54         0.0425     -0.2242      0.0407
        55         0.0046      0.0422      0.2279
        56        -0.0000      0.0001     -0.0000
        57         0.0000      0.0000     -0.0000
        58         0.0001      0.0000      0.0000
        59        -0.0000     -0.0000     -0.0000
        60         0.0000      0.0000     -0.0000
        61         0.0000      0.0000      0.0000
        62        -0.0000     -0.0000      0.0000
        63         0.0000     -0.0000      0.0000
        64         0.0000     -0.0000     -0.0000
        65         0.0001      0.0001      0.0004
        66         0.0000     -0.0000      0.0001
        67        -0.0003     -0.0001      0.0001
        68        -0.3124     -0.0891      0.3465
        69         0.3431      0.0557      0.3236
        70         0.1013     -0.4632     -0.0277
        71        -0.0000      0.0000     -0.0000
        72        -0.0000      0.0000     -0.0000
        73        -0.0000      0.0000     -0.0000
        74         0.0000      0.0000     -0.0000
        75         0.0000      0.0000     -0.0000
        76        -0.0000      0.0000      0.0000
        77         0.0000     -0.0000     -0.0000
        78        -0.0134     -0.0034     -0.1205
        79        -0.0089      0.1209     -0.0025
        80        -0.1202     -0.0086      0.0136
        81         0.0000      0.0000      0.0000
        82         0.0000      0.0000     -0.0000
        83        -0.0000     -0.0000      0.0000
        84         0.0000     -0.0000      0.0000
        85        -0.0000     -0.0000      0.0000
        86         0.0000     -0.0000      0.0000
        87         0.5113      0.0270      0.0139
        88         0.0260     -0.5105      0.0323
        89        -0.0156      0.0315      0.5110
        90         0.0000      0.0001      0.0000
        91         0.0000     -0.0000      0.0000
        92        -0.0000     -0.0000      0.0000
        93         0.0000     -0.0000      0.0000
        94        -0.0000     -0.0000     -0.0000
        95        -0.0000     -0.0000     -0.0000
        96        -0.0000      0.0000      0.0000
        97        -0.0000      0.0000      0.0000
        98         0.0000      0.0000      0.0001
        99        -0.0001     -0.0001     -0.0000
       100        -0.0001      0.0000      0.0000
       101        -0.0098      0.0655     -0.0915
       102         0.0359      0.0889      0.0597
       103         0.1066     -0.0239     -0.0286
       104        -0.0001      0.0006     -0.0000
       105         0.0000     -0.0002      0.0001
       106        -0.0001     -0.0000     -0.0000
       107        -0.0000     -0.0000      0.0001
       108         0.0000      0.0000      0.0000
       109         0.0000     -0.0000     -0.0000
       110         0.0000      0.0000      0.0000
       111        -0.0000     -0.0000     -0.0000
       112         0.0000     -0.0000     -0.0000
       113        -0.0000     -0.0000     -0.0000
       114        -0.0000     -0.0000      0.0000
       115        -0.0000     -0.0000     -0.0000
       116         0.0000     -0.0000     -0.0000
       117        -0.0000      0.0000      0.0000
       118        -0.0000     -0.0000     -0.0000
       119        -0.0000      0.0000      0.0000
       120        -0.0000      0.0000      0.0000
       121         0.5343      0.1020     -0.0435
       122        -0.1088      0.5235     -0.1088
       123         0.0214      0.1152      0.5329
       124         0.0000      0.0000      0.0000
       125        -0.0000     -0.0000      0.0000
       126        -0.0000      0.0000     -0.0000
       127        -0.0295     -0.0440     -0.4880
       128         0.0544     -0.4862      0.0405
       129         0.4869      0.0516     -0.0341
       130         0.0000     -0.0002      0.0001
       131        -0.0001      0.0007     -0.0000
       132         0.0002     -0.0008      0.0000
       133        -0.0000      0.0000      0.0000
       134        -0.0000      0.0001      0.0000
       135         0.0002      0.0001      0.0000
       136         0.0000     -0.0000     -0.0000
       137         0.0000     -0.0000      0.0000
       138         0.0000      0.0000      0.0000
       139         0.0001     -0.0011     -0.0000
       140        -0.0001      0.0003     -0.0002
       141        -0.0563      0.1345     -0.3968
       142        -0.0518     -0.3995     -0.1281
       143         0.4157     -0.0315     -0.0697
       144        -0.0000     -0.0000     -0.0001
       145         0.0000      0.0000     -0.0001
       146         0.0001      0.0001      0.0000
       147        -0.0498     -0.0270     -0.4841
       148        -0.0459      0.4847     -0.0224
       149        -0.4827     -0.0433      0.0520
       150         0.0000      0.0000     -0.0000
       151         0.0000     -0.0000     -0.0000
       152        -0.0000     -0.0000     -0.0000
       153        -0.4230     -0.0472      0.0301
       154        -0.0498      0.4220     -0.0389
       155         0.0254      0.0421      0.4239
       156         0.0001     -0.0004      0.0002
       157         0.0002     -0.0017      0.0000
       158        -0.0000     -0.0000      0.0000
       159         0.0001      0.0000     -0.0000
       160         0.0000     -0.0000      0.0000
       161         0.0000      0.0000      0.0002
       162         0.0000      0.0000     -0.0000
       163         0.0000     -0.0000      0.0000
       164        -0.0000     -0.0000     -0.0000
       165        -0.2082      0.1323     -0.0396
       166         0.1321      0.2117      0.0127
       167        -0.0403      0.0103      0.2463
       168         0.0000      0.0000     -0.0000
       169         0.0000     -0.0000      0.0000
       170        -0.0000      0.0000      0.0000
       171        -0.0000     -0.0000     -0.0000
       172         0.0000      0.0000     -0.0000
       173        -0.0000     -0.0000     -0.0000
       174        -0.0000      0.0000     -0.0000
       175         0.0000      0.0000      0.0000
       176         0.0004     -0.0009      0.0085
       177        -0.0004     -0.0085     -0.0008
       178        -0.0086      0.0003      0.0005
       179        -0.0000      0.0000     -0.0000
       180         0.0000     -0.0001     -0.0000
       181        -0.0000     -0.0000     -0.0000
       182         0.0000     -0.0000     -0.0000
       183         0.0000      0.0000      0.0000
       184         0.0000     -0.0000     -0.0000
       185        -0.0000      0.0000      0.0000
       186         0.0000     -0.0000      0.0000
       187        -0.0000     -0.0000     -0.0000
       188         0.0000      0.0000     -0.0000
 Ground to excited state transition velocity quadrupole moments (Au):
       state          XX          YY          ZZ          XY          XZ          YZ
         1         0.0550     -0.0521     -0.0029     -0.0409      0.0620     -0.3276
         2         0.3184      0.0188     -0.3372      0.0724     -0.0521      0.0078
         3        -0.1332      0.1210      0.0122      0.3095     -0.0039     -0.0602
         4         0.3274     -0.0743     -0.2531      0.0838      0.1312     -0.9291
         5         0.9115      0.0321     -0.9437      0.0878     -0.1851      0.2696
         6         0.3033     -0.3778      0.0745     -0.9228      0.0629     -0.0160
         7        -0.0001     -0.0003      0.0004     -0.0000      0.0006     -0.0027
         8         0.0006     -0.0001     -0.0005     -0.0001     -0.0001     -0.0000
         9         0.0003     -0.0005      0.0003     -0.0014      0.0001      0.0002
        10        -0.0119      0.0913     -0.0793     -0.0088      0.2295      0.0366
        11        -0.1298      0.2534     -0.1236     -0.0826     -0.0728     -0.0340
        12         0.0001     -0.0002      0.0001      0.0001     -0.0000      0.0002
        13        -0.0002     -0.0000      0.0003     -0.0001     -0.0015     -0.0003
        14         0.0000     -0.0000      0.0000     -0.0001     -0.0000     -0.0000
        15         0.0489     -0.3746      0.3256      0.0361     -0.9447     -0.1509
        16         0.5356     -1.0433      0.5076      0.3400      0.2989      0.1398
        17         0.3678      0.3676      0.3677      0.0000     -0.0001     -0.0000
        18         0.0083     -0.0113      0.0029      0.0035      0.0221     -0.1189
        19         0.1138      0.0063     -0.1204      0.0261     -0.0180     -0.0004
        20         0.0503     -0.0457     -0.0046     -0.1113      0.0051      0.0016
        21        -0.0000     -0.0000      0.0000      0.0000      0.0000     -0.0000
        22        -0.0000      0.0000      0.0000      0.0000      0.0000      0.0000
        23         0.0000     -0.0000      0.0000     -0.0000      0.0000     -0.0000
        24        -0.0736      0.0692      0.0044      0.1679     -0.0087      0.0016
        25        -0.1708     -0.0101      0.1808     -0.0360      0.0297     -0.0144
        26         0.0253     -0.0146     -0.0107      0.0120      0.0307     -0.1783
        27        -1.3520     -1.3520     -1.3519      0.0000     -0.0000      0.0000
        28        -0.1189      0.1238     -0.0050      0.0960     -0.1506      0.7873
        29        -0.7586     -0.0498      0.8084     -0.1888      0.1230     -0.0043
        30         0.3375     -0.2901     -0.0474     -0.7395      0.0075      0.1397
        31         0.0945     -0.0778     -0.0167     -0.0602      0.0907     -0.4885
        32         0.4818      0.0219     -0.5036      0.0890     -0.0797      0.0277
        33        -0.1774      0.1815     -0.0042      0.4665     -0.0090     -0.0907
        34         0.7746     -1.5077      0.7331      0.4925      0.4465      0.2046
        35         0.0779     -0.5576      0.4796      0.0566     -1.3658     -0.2168
        36         0.5279     -0.4495     -0.0784     -1.1355      0.0173      0.1812
        37        -1.1623     -0.0753      1.2377     -0.2946      0.1869      0.0035
        38         0.1590     -0.1780      0.0191     -0.1184      0.2317     -1.2123
        39         0.4696      0.4696      0.4696     -0.0000     -0.0000      0.0000
        40        -0.0001      0.0001      0.0000      0.0003     -0.0000     -0.0001
        41        -0.0001     -0.0000      0.0002     -0.0001     -0.0004     -0.0001
        42        -0.0000     -0.0001      0.0001     -0.0000      0.0000     -0.0000
        43         0.0000     -0.0001      0.0000      0.0000      0.0001      0.0000
        44         0.0298     -0.2315      0.2017      0.0221     -0.5868     -0.0939
        45        -0.3325      0.6481     -0.3156     -0.2111     -0.1846     -0.0867
        46         0.0000     -0.0001      0.0001      0.0000      0.0000      0.0000
        47        -0.0002     -0.0000      0.0002     -0.0001     -0.0013     -0.0003
        48        -0.0000      0.0001     -0.0001      0.0000      0.0001     -0.0000
        49        -0.0354      0.0128      0.0225     -0.0104     -0.0243      0.1521
        50        -0.1474     -0.0075      0.1544     -0.0238      0.0274     -0.0255
        51         0.0565     -0.0598      0.0032     -0.1460      0.0082      0.0002
        52        -0.4036     -0.4037     -0.4036      0.0000     -0.0000     -0.0000
        53        -0.0001      0.0000      0.0000      0.0001      0.0001     -0.0003
        54        -0.0002     -0.0000      0.0002     -0.0000     -0.0001     -0.0000
        55         0.0001     -0.0001     -0.0000     -0.0001     -0.0000      0.0001
        56         0.0433     -0.3294      0.2861      0.0320     -0.8308     -0.1327
        57        -0.4719      0.9174     -0.4455     -0.2991     -0.2627     -0.1230
        58         0.1451     -0.1318     -0.0134     -0.0214      0.2089     -1.1399
        59         1.1010      0.0569     -1.1582      0.2253     -0.1793      0.0365
        60        -0.4515      0.4335      0.0180      1.0762     -0.0403     -0.0815
        61        -0.1611      0.0631      0.0980      0.0388     -0.0633      0.4070
        62        -0.4188      0.0229      0.3959      0.0550      0.0751     -0.1259
        63        -0.0109      0.1571     -0.1462      0.4061     -0.0346     -0.0408
        64        -0.9488     -0.9482     -0.9475     -0.0001      0.0001      0.0002
        65        -0.1813      0.1652      0.0161      0.3967     -0.0223      0.0175
        66         0.4039      0.0240     -0.4309      0.0910     -0.0690      0.0246
        67         0.0444     -0.0302     -0.0154      0.0397      0.0737     -0.4240
        68         0.0000     -0.0001      0.0000     -0.0002     -0.0000      0.0002
        69         0.0001     -0.0001      0.0000     -0.0002      0.0000     -0.0001
        70        -0.0000      0.0000      0.0000      0.0000      0.0000      0.0000
        71        -0.3785      0.7362     -0.3577     -0.2403     -0.2150     -0.0994
        72         0.0367     -0.2689      0.2323      0.0269     -0.6668     -0.1062
        73         0.0216     -0.0240      0.0024     -0.0570      0.0046     -0.0066
        74         0.0516      0.0027     -0.0545      0.0036     -0.0130      0.0289
        75        -0.0301      0.0017      0.0285     -0.0120     -0.0051      0.0530
        76        -0.6723     -0.6723     -0.6723     -0.0000     -0.0000      0.0000
        77        -0.6387     -0.6386     -0.6386      0.0000      0.0000     -0.0000
        78        -0.0000      0.0000     -0.0000      0.0000     -0.0000     -0.0000
        79        -0.0000     -0.0000     -0.0000     -0.0000      0.0000     -0.0000
        80        -0.0000     -0.0000     -0.0000      0.0000     -0.0000      0.0000
        81        -0.1132      0.0828      0.0304      0.0600     -0.0967      0.5315
        82         0.5292      0.0176     -0.5470      0.0776     -0.0884      0.0458
        83        -0.1725      0.1990     -0.0265      0.5116     -0.0140     -0.0934
        84        -0.0161      0.0073      0.0089     -0.0050     -0.0138      0.0833
        85        -0.0805     -0.0039      0.0845     -0.0144      0.0144     -0.0106
        86        -0.0319      0.0325     -0.0005      0.0793     -0.0043     -0.0005
        87         0.0001     -0.0001      0.0001      0.0000     -0.0000     -0.0000
        88         0.0000      0.0000     -0.0000      0.0000      0.0002      0.0000
        89         0.0000     -0.0001      0.0001      0.0000     -0.0001     -0.0000
        90        -0.0560      0.4277     -0.3719     -0.0413      1.0786      0.1723
        91        -0.6115      1.1911     -0.5797     -0.3882     -0.3413     -0.1596
        92         0.7118      0.7121      0.7118     -0.0000      0.0001      0.0000
        93         0.2948     -0.5730      0.2782      0.1871      0.1690      0.0777
        94        -0.0295      0.2112     -0.1818     -0.0215      0.5191      0.0825
        95         0.0121     -0.0174      0.0052      0.0085      0.0362     -0.1956
        96         0.1860      0.0115     -0.1980      0.0456     -0.0297     -0.0009
[...]
      6  -0.146581D-01 -0.499320D+00  0.134612D-01  0.602228D-04 -0.150214D-04
      7   0.147910D-01  0.130251D-01  0.499321D+00 -0.262392D-04 -0.100164D-05
      8   0.000000D+00  0.000000D+00  0.575284D-05  0.000000D+00  0.000000D+00
      9   0.000000D+00  0.000000D+00 -0.167484D-05  0.000000D+00  0.000000D+00
     10   0.469976D-05 -0.154653D-05  0.000000D+00  0.000000D+00  0.000000D+00
     11   0.592131D-01  0.953761D-01 -0.534524D-02  0.730625D+00  0.771745D+00
     12  -0.356021D-01  0.864405D-02 -0.179433D-01  0.730671D+00  0.771727D+00
     13  -0.236104D-01 -0.103720D+00  0.233832D-01  0.730715D+00  0.771711D+00
     14   0.963787D-01 -0.378349D-01  0.122686D-01  0.420135D-05 -0.114734D-05
     15   0.135052D-02 -0.135969D-01  0.214659D-01  0.592864D-05 -0.274308D-05
     16  -0.104513D-01  0.219442D-01  0.104881D+00 -0.561753D-05  0.107575D-05
               121           122           123           124           125 
      1  -0.384791D+02 -0.384791D+02 -0.384791D+02 -0.384368D+02 -0.384368D+02
      2   0.000000D+00 -0.111248D-04  0.496413D-04 -0.384717D+00 -0.244804D+00
      3  -0.289677D-05  0.100760D-04 -0.899556D-05  0.733693D-01  0.722430D-02
      4  -0.341914D-04  0.000000D+00  0.000000D+00  0.242688D+00 -0.390266D+00
      5   0.000000D+00  0.167687D-04 -0.748645D-04  0.602467D+00  0.383364D+00
      6   0.454707D-05 -0.155799D-04  0.134153D-04 -0.114896D+00 -0.113131D-01
      7   0.506283D-04  0.000000D+00  0.000000D+00 -0.380048D+00  0.611154D+00
      8  -0.535698D+00  0.101123D+00 -0.231833D-01 -0.263231D-04  0.316973D-04
      9   0.935732D-01  0.523611D+00  0.121724D+00  0.000000D+00 -0.619415D-05
     10   0.448041D-01  0.115529D+00 -0.531406D+00 -0.482585D-04 -0.328060D-04
     11   0.000000D+00  0.736499D-05 -0.360651D-05 -0.346883D-01 -0.328509D-01
     12   0.697172D-05 -0.125571D-05  0.793517D-05  0.453830D-01  0.331239D-02
     13  -0.702237D-05 -0.611637D-05 -0.445925D-05 -0.106914D-01  0.295446D-01
     14   0.275683D-05  0.304758D-05 -0.179000D-04 -0.105065D+00 -0.448478D-01
     15  -0.626006D-05 -0.125623D-04 -0.243304D-05 -0.159925D-01  0.190524D-01
     16  -0.368654D-04  0.000000D+00 -0.259343D-05 -0.452493D-01  0.108016D+00
               126           127           128           129           130 
      1  -0.384368D+02 -0.383031D+02 -0.383031D+02 -0.383031D+02 -0.382991D+02
      2  -0.659510D-01  0.373193D-05  0.327428D-05  0.253883D-04  0.748807D-05
      3  -0.454809D+00 -0.165591D-04 -0.401740D-04 -0.289477D-04  0.316862D-03
      4   0.329523D-01 -0.234653D-04 -0.275322D-04  0.100067D-03 -0.183370D-04
      5   0.103279D+00 -0.615930D-05 -0.545515D-05 -0.419599D-04 -0.126416D-04
      6   0.712231D+00  0.273977D-04  0.664019D-04  0.478877D-04 -0.526496D-03
      7  -0.516030D-01  0.387844D-04  0.455383D-04 -0.165385D-03  0.302704D-04
      8   0.387918D-05  0.302506D-01 -0.472246D-01 -0.487630D+00  0.000000D+00
      9   0.713900D-05 -0.498068D-01 -0.486346D+00  0.440073D-01 -0.167727D-03
     10   0.205663D-05  0.487409D+00 -0.467680D-01  0.347571D-01 -0.588950D-04
     11  -0.115834D+00  0.185649D-04 -0.411252D-03 -0.920749D-05  0.821022D+00
     12  -0.168753D-02 -0.172605D-03 -0.760555D-04 -0.689284D-04 -0.160904D+01
     13   0.117603D+00  0.154042D-03  0.487295D-03  0.781492D-04  0.788007D+00
     14   0.222466D-01  0.550649D-04  0.250297D-03  0.609992D-04 -0.481036D+00
     15   0.136937D-01  0.290389D-04 -0.190753D-02 -0.178822D-03  0.337426D+00
     16  -0.268400D-01  0.705274D-04  0.426686D-03 -0.500157D-03 -0.217337D+00
               131           132           133           134           135 
      1  -0.382991D+02 -0.382980D+02 -0.382955D+02 -0.382955D+02 -0.382955D+02
      2   0.530329D-04  0.000000D+00  0.287707D+00 -0.295765D-01 -0.110513D-01
      3   0.671816D-04  0.000000D+00 -0.281538D-01 -0.286175D+00  0.329471D-01
      4   0.559365D-04  0.000000D+00 -0.142973D-01 -0.316753D-01 -0.287360D+00
      5  -0.878647D-04  0.000000D+00 -0.477927D+00  0.491312D-01  0.183577D-01
      6  -0.111696D-03  0.000000D+00  0.467677D-01  0.475382D+00 -0.547305D-01
      7  -0.928100D-04  0.000000D+00  0.237503D-01  0.526175D-01  0.477351D+00
      8   0.101436D-03 -0.220639D-03  0.389634D-04  0.257079D-04 -0.181823D-03
      9   0.653911D-03 -0.836185D-03  0.791782D-05  0.726631D-04  0.567562D-04
     10   0.468532D-04 -0.167312D-04 -0.208748D-04 -0.243154D-04 -0.195690D-04
     11   0.136182D-01 -0.138909D-03  0.531660D+00 -0.116117D+01  0.884136D-01
     12  -0.448887D+00  0.215021D-03 -0.419818D+00 -0.742761D-01 -0.186855D+00
     13   0.435257D+00 -0.761122D-04 -0.111839D+00  0.123540D+01  0.984499D-01
     14   0.935268D-02  0.836665D-04  0.114774D+01  0.302157D+00  0.719237D-01
     15  -0.144757D+01 -0.246908D-03  0.407390D-01  0.184333D+00  0.220205D+00
     16   0.208318D+00  0.643599D-04 -0.121860D+00 -0.645156D-01  0.122048D+01
               136           137           138           139           140 
      1  -0.381399D+02 -0.381399D+02 -0.381162D+02 -0.381078D+02 -0.381078D+02
      2   0.000000D+00  0.000000D+00 -0.200717D-04  0.981847D-05 -0.448897D-05
      3  -0.101689D-05  0.304321D-05 -0.327743D-04  0.618399D-05  0.267202D-04
      4   0.000000D+00  0.000000D+00 -0.141052D-04  0.722747D-05 -0.649121D-05
      5   0.000000D+00 -0.113638D-05  0.389804D-04 -0.191316D-04  0.847840D-05
      6   0.236139D-05 -0.702471D-05  0.628860D-04 -0.125837D-04 -0.536488D-04
      7   0.000000D+00  0.000000D+00  0.276175D-04 -0.142267D-04  0.125258D-04
      8   0.000000D+00 -0.537857D-05  0.000000D+00 -0.568271D-04  0.136544D-03
      9  -0.300834D-04 -0.876019D-05  0.000000D+00 -0.107539D-02  0.322478D-03
     10   0.235886D-05 -0.534549D-05  0.000000D+00  0.355029D-04  0.163829D-03
     11   0.347100D-01 -0.377344D+00 -0.489966D+00  0.404712D-02  0.473754D-01
     12  -0.262939D+00  0.725827D+00 -0.489814D+00 -0.325431D-01 -0.912418D-01
     13   0.228257D+00 -0.348502D+00 -0.489719D+00  0.282399D-01  0.436892D-01
     14  -0.124857D-01  0.221811D+00 -0.211885D-04 -0.138830D-02 -0.278702D-01
     15  -0.655235D+00 -0.206030D+00  0.316482D-04 -0.822828D-01  0.253649D-01
     16   0.884975D-01  0.107555D+00  0.445949D-04  0.111386D-01 -0.133772D-01
               141           142           143           144           145 
      1  -0.381018D+02 -0.381018D+02 -0.381018D+02 -0.380793D+02 -0.380793D+02
      2  -0.666887D-04 -0.322327D-04 -0.139238D-04  0.201928D+00  0.328905D-01
      3   0.246872D-04  0.757938D-05  0.165671D-04  0.319980D-01 -0.199682D+00
      4   0.140002D-05  0.379262D-04 -0.730500D-04 -0.834350D-02  0.302226D-01
      5   0.129491D-03  0.629191D-04  0.269633D-04 -0.400353D+00 -0.652104D-01
      6  -0.481802D-04 -0.145879D-04 -0.323524D-04 -0.634407D-01  0.395900D+00
      7  -0.257845D-05 -0.736799D-04  0.141496D-03  0.165423D-01 -0.599206D-01
      8   0.543605D-01  0.576519D-01 -0.415222D+00  0.801763D-05 -0.463338D-04
      9   0.130195D+00 -0.400297D+00 -0.385308D-01 -0.244203D-04  0.182103D-05
     10   0.398458D+00  0.122930D+00  0.692447D-01  0.128607D-03  0.753751D-04
     11  -0.738555D-04 -0.213863D-04  0.466595D-04  0.553764D+00 -0.668326D+00
     12   0.129175D-03  0.993949D-04 -0.485772D-04 -0.268656D+00 -0.837529D-01
     13  -0.554826D-04 -0.776180D-04  0.196999D-05 -0.285292D+00  0.752308D+00
     14  -0.229886D-03 -0.150603D-03 -0.426505D-04  0.710390D+00  0.375046D+00
     15  -0.957046D-04  0.203134D-03  0.838041D-04 -0.173801D-02  0.848056D-01
     16   0.631911D-04 -0.154125D-03  0.264440D-03 -0.525096D-01 -0.282530D+00
               146           147           148           149           150 
      1  -0.380793D+02 -0.379853D+02 -0.379853D+02 -0.379853D+02 -0.377834D+02
      2   0.341812D-02  0.000000D+00  0.116690D-05  0.000000D+00 -0.552481D-01
      3   0.311670D-01  0.000000D+00  0.000000D+00  0.000000D+00 -0.201037D-02
      4   0.202195D+00  0.000000D+00  0.000000D+00  0.000000D+00  0.580938D-02
      5  -0.677685D-02  0.510059D-05 -0.214980D-05  0.000000D+00  0.620877D-01
      6  -0.617935D-01 -0.284049D-05  0.000000D+00  0.233388D-05  0.225893D-02
      7  -0.400882D+00  0.000000D+00  0.244479D-05 -0.356754D-05 -0.652876D-02
      8  -0.140295D-03  0.502167D-01  0.387306D-01  0.483276D+00 -0.142663D-05
      9   0.556236D-04 -0.324969D-01  0.485039D+00 -0.354951D-01  0.259535D-05
     10  -0.697637D-05  0.483739D+00  0.285637D-01 -0.525537D-01  0.988505D-05
     11   0.131730D+00  0.000000D+00  0.526304D-05 -0.294657D-05  0.644555D-02
     12   0.150116D+00  0.000000D+00 -0.139889D-05 -0.150560D-05 -0.399528D-02
     13  -0.281983D+00 -0.159487D-05 -0.387957D-05  0.444721D-05 -0.245843D-02
     14  -0.138497D+00 -0.569691D-05  0.309448D-05  0.000000D+00  0.104617D-01
     15  -0.179965D+00  0.000000D+00 -0.115024D-05  0.000000D+00  0.309501D-03
     16  -0.791296D+00  0.283568D-05  0.244863D-05  0.337998D-05 -0.256501D-03
               151           152           153           154           155 
      1  -0.377834D+02 -0.377834D+02 -0.377367D+02 -0.377367D+02 -0.377367D+02
      2  -0.271458D-02  0.551476D-02  0.000000D+00  0.000000D+00  0.159624D-04
      3   0.551070D-01  0.698151D-02 -0.114168D-05  0.280850D-05 -0.481106D-05
      4  -0.673873D-02  0.548637D-01  0.104439D-04 -0.271324D-05  0.000000D+00
      5   0.305062D-02 -0.619631D-02  0.120923D-05  0.000000D+00 -0.496334D-04
      6  -0.619234D-01 -0.784488D-02  0.313816D-05 -0.782071D-05  0.145558D-04
      7   0.757198D-02 -0.616465D-01 -0.347128D-04  0.819981D-05  0.107884D-05
      8  -0.524299D-05  0.249544D-04  0.423640D+00  0.436368D-01 -0.261188D-01
      9  -0.551095D-05 -0.685919D-05 -0.405760D-01  0.422135D+00  0.471412D-01
     10   0.207335D-05  0.150865D-05 -0.306592D-01  0.443237D-01 -0.423294D+00
     11  -0.101644D-01 -0.206097D-02 -0.403132D-04 -0.579419D-03  0.254041D-03
     12  -0.721575D-03 -0.173001D-02  0.545198D-04 -0.109069D-03 -0.561704D-03
     13   0.109084D-01  0.379681D-02 -0.141680D-04  0.688292D-03  0.307879D-03
     14   0.414694D-02  0.957079D-03  0.773611D-05  0.400369D-03 -0.790480D-05
     15   0.124871D-02  0.245667D-02 -0.119872D-03 -0.467228D-02 -0.199000D-03
     16  -0.347945D-02  0.111934D-01 -0.472640D-04  0.825530D-03 -0.372946D-04
               156           157           158           159           160 
      1  -0.377319D+02 -0.377319D+02 -0.377168D+02 -0.377096D+02 -0.377096D+02
      2  -0.367948D-05  0.000000D+00  0.238200D-04  0.149867D-02  0.278670D-02
      3  -0.236717D-04  0.592980D-05  0.875919D-04 -0.304653D-02  0.281182D-01
      4  -0.172396D-05  0.212181D-05  0.264705D-05  0.282077D-01  0.288989D-02
      5   0.110729D-04  0.000000D+00 -0.809977D-04 -0.531441D-02 -0.988449D-02
      6   0.734811D-04 -0.182925D-04 -0.298975D-03  0.108047D-01 -0.997288D-01
      7   0.500409D-05 -0.681536D-05 -0.867220D-05 -0.100030D+00 -0.102486D-01
      8  -0.790103D-04 -0.202015D-03  0.000000D+00 -0.112190D-03 -0.108927D-04
      9  -0.406738D-03 -0.170304D-02  0.000000D+00  0.356139D-04 -0.194377D-04
     10  -0.193170D-03 -0.610925D-04  0.000000D+00  0.214284D-04 -0.301383D-04
     11  -0.616441D+00  0.686014D-02 -0.292233D+00 -0.168276D-01  0.271396D+00
     12   0.121105D+01 -0.331134D+00 -0.293106D+00  0.423740D-01  0.186295D-01
     13  -0.594619D+00  0.324283D+00 -0.293934D+00 -0.257263D-01 -0.287456D+00
     14   0.361243D+00  0.880176D-02 -0.778095D-04 -0.136350D-01 -0.712968D-01
     15  -0.248094D+00 -0.108917D+01 -0.116519D-03 -0.516330D-01 -0.426426D-01
     16   0.162739D+00  0.157542D+00  0.992004D-04 -0.285159D+00  0.174682D-01
               161           162           163           164           165 
      1  -0.377096D+02 -0.374170D+02 -0.374170D+02 -0.374170D+02 -0.374008D+02
      2  -0.282194D-01 -0.190847D-02 -0.254152D-02 -0.293481D-01  0.626206D-05
      3   0.261441D-02  0.259478D-02 -0.293348D-01  0.236642D-02 -0.673114D-05
      4   0.178175D-02 -0.293797D-01 -0.242413D-02  0.210964D-02 -0.621462D-05
      5   0.100104D+00  0.245766D-02  0.326748D-02  0.376831D-01 -0.159308D-04
      6  -0.927340D-02 -0.333764D-02  0.377026D-01 -0.303777D-02  0.177750D-04
      7  -0.632040D-02  0.377785D-01  0.311478D-02 -0.270503D-02  0.132361D-04
      8  -0.210505D-04 -0.116057D-04 -0.410283D-05  0.842567D-05  0.206248D+00
      9   0.162040D-04  0.432907D-05 -0.113105D-04 -0.436202D-05  0.134805D+00
     10  -0.168366D-03  0.742314D-05 -0.666198D-05  0.398130D-04  0.412656D-01
     11  -0.125469D+00  0.121202D-01 -0.327659D+00 -0.156050D+00 -0.267402D-05
     12   0.983311D-01 -0.507814D-01 -0.209279D-01  0.119949D+00 -0.916089D-05
     13   0.267095D-01  0.386642D-01  0.348559D+00  0.360972D-01  0.118383D-04
     14  -0.267857D+00  0.151521D-01  0.900936D-01 -0.324580D+00  0.147473D-04
     15  -0.998743D-02  0.636836D-01  0.506450D-01 -0.122212D-01 -0.504406D-05
     16   0.244208D-01  0.346002D+00 -0.285372D-01  0.259672D-01  0.186499D-04
               166           167           168           169           170 
      1  -0.374008D+02 -0.374007D+02 -0.373696D+02 -0.373696D+02 -0.373696D+02
      2  -0.436277D-05 -0.225490D-04 -0.253572D-01  0.857038D-01  0.350687D-01
      3  -0.317219D-05  0.426467D-05  0.187280D-02 -0.358772D-01  0.890303D-01
      4   0.602128D-05 -0.346741D-05  0.925835D-01  0.241952D-01  0.780267D-02
      5   0.117696D-04  0.559117D-04  0.715382D-01 -0.241803D+00 -0.989436D-01
      6   0.872274D-05 -0.105281D-04 -0.528304D-02  0.101227D+00 -0.251200D+00
      7  -0.126772D-04  0.860969D-05 -0.261222D+00 -0.682705D-01 -0.220160D-01
      8  -0.135167D+00  0.400861D-01 -0.483835D-05 -0.120823D-04  0.279751D-05
      9   0.209860D+00  0.140422D-01  0.283361D-05 -0.114930D-05  0.136385D-04
     10  -0.100360D-01 -0.246177D+00  0.191517D-05 -0.242000D-04 -0.497465D-05
     11  -0.101739D-04 -0.138510D-04  0.197205D-01 -0.238162D-01 -0.183303D+00
     12   0.748753D-05  0.147694D-04 -0.457077D-01  0.492930D-01  0.641686D-02
     13   0.267337D-05  0.000000D+00  0.259892D-01 -0.254713D-01  0.176856D+00
     14  -0.732419D-05 -0.460604D-04  0.661155D-01 -0.159367D+00 -0.261337D-02
     15  -0.144421D-04  0.000000D+00  0.346996D-01 -0.160013D-02  0.238439D-01
     16  -0.207858D-04  0.150515D-04  0.161032D+00  0.763765D-01 -0.618886D-02
               171           172           173           174           175 
      1  -0.372976D+02 -0.372976D+02 -0.372976D+02 -0.370735D+02 -0.370735D+02
      2  -0.961830D-03 -0.427910D-02  0.273129D-01  0.000000D+00  0.000000D+00
      3  -0.452978D-02 -0.269380D-01 -0.437595D-02  0.000000D+00 -0.121856D-05
      4   0.272662D-01 -0.461960D-02  0.240121D-03  0.000000D+00  0.000000D+00
      5   0.560219D-03  0.251378D-02 -0.160129D-01  0.000000D+00  0.155493D-05
      6   0.266104D-02  0.157976D-01  0.256209D-02 -0.182136D-05  0.452141D-05
      7  -0.159702D-01  0.270198D-02 -0.145766D-03  0.000000D+00  0.113121D-05
      8   0.102129D-04  0.000000D+00  0.344193D-05  0.000000D+00  0.000000D+00
      9  -0.147928D-05  0.544152D-05 -0.136917D-05  0.100796D-05  0.000000D+00
     10   0.173500D-05  0.000000D+00  0.146163D-05  0.000000D+00  0.000000D+00
     11   0.210649D-01  0.130276D+00 -0.508424D-01  0.111930D-01 -0.121873D+00
     12  -0.232340D-01  0.690855D-02  0.452855D-01 -0.848949D-01  0.234412D+00
     13   0.216490D-02 -0.137196D+00  0.555594D-02  0.736878D-01 -0.112530D+00
     14   0.145132D-01 -0.273637D-01 -0.127574D+00 -0.402911D-02  0.716332D-01
     15   0.233813D-01 -0.215502D-01 -0.400404D-02 -0.211608D+00 -0.665104D-01
     16   0.133740D+00 -0.181188D-02  0.224567D-01  0.285841D-01  0.347322D-01
               176           177           178           179           180 
      1  -0.369925D+02 -0.369924D+02 -0.369924D+02 -0.369906D+02 -0.369906D+02
      2   0.182681D-03 -0.300772D-04  0.384480D-04  0.339946D-05 -0.441849D-04
      3  -0.668296D-04  0.461294D-04 -0.558949D-04 -0.206119D-03 -0.478723D-04
      4  -0.199244D-04  0.118167D-03  0.282367D-03  0.208353D-04 -0.388561D-04
      5  -0.501824D-03  0.822761D-04 -0.105663D-03 -0.833639D-05  0.121236D-03
      6   0.183328D-03 -0.126816D-03  0.153267D-03  0.571710D-03  0.133157D-03
      7   0.547986D-04 -0.324423D-03 -0.775892D-03 -0.567171D-04  0.107161D-03
      8  -0.404346D-03  0.511648D-03  0.854720D-02  0.107800D-04 -0.781424D-05
      9  -0.760591D-03 -0.851383D-02  0.471389D-03  0.277073D-04 -0.104226D-03
     10  -0.850991D-02  0.732910D-03 -0.449922D-03  0.146271D-04  0.107468D-05
     11   0.407672D-03  0.478002D-03 -0.261557D-03  0.203256D+00  0.100300D-01
     12  -0.691684D-03  0.320746D-03  0.348485D-03 -0.395459D+00 -0.124583D+00
     13   0.283929D-03 -0.798710D-03 -0.869845D-04  0.192194D+00  0.114541D+00
     14  -0.218203D-03 -0.334560D-03  0.159574D-03 -0.119299D+00 -0.165947D-02
     15   0.532287D-03  0.449318D-02 -0.679598D-03  0.956350D-01 -0.356260D+00
     16  -0.162400D-03 -0.763940D-03  0.121603D-03 -0.557034D-01  0.499347D-01
               181           182           183           184           185 
      1  -0.369848D+02 -0.369848D+02 -0.369848D+02 -0.369737D+02 -0.369672D+02
      2   0.164068D+00  0.681763D-02  0.165505D-01  0.654986D-04 -0.355353D-04
      3   0.493006D-02 -0.163909D+00  0.186461D-01  0.145546D-03 -0.911392D-04
      4  -0.172076D-01  0.180416D-01  0.163144D+00  0.353202D-04 -0.154811D-04
      5  -0.452285D+00 -0.187940D-01 -0.456245D-01 -0.180530D-03  0.991318D-04
      6  -0.135907D-01  0.451845D+00 -0.514011D-01 -0.403096D-03  0.254661D-03
      7   0.474358D-01 -0.497348D-01 -0.449735D+00 -0.967910D-04  0.430637D-04
      8   0.000000D+00 -0.385164D-05 -0.150541D-04  0.000000D+00  0.000000D+00
      9   0.000000D+00 -0.178844D-05  0.498778D-05  0.000000D+00  0.000000D+00
     10   0.967117D-05  0.367430D-05  0.000000D+00  0.000000D+00  0.000000D+00
     11   0.817230D-02 -0.132711D-01  0.244715D-02  0.105262D+00  0.490187D-01
     12  -0.519883D-02 -0.452140D-03  0.215737D-02  0.105218D+00  0.490289D-01
     13  -0.307912D-02  0.139439D-01 -0.469794D-02  0.105242D+00  0.490277D-01
     14   0.134907D-01  0.537187D-02 -0.114712D-02 -0.265890D-05  0.100637D-05
     15   0.319970D-03  0.161020D-02 -0.322528D-02 -0.173447D-04  0.326972D-05
     16  -0.339040D-03 -0.423518D-02 -0.143879D-01 -0.367937D-05  0.000000D+00
               186           187           188 
      1  -0.366703D+02 -0.366703D+02 -0.366703D+02
      2  -0.111528D+00  0.434888D-02  0.364904D-02
      3  -0.419431D-02 -0.111495D+00  0.467445D-02
      4   0.382506D-02  0.453059D-02  0.111512D+00
      5   0.320743D+00 -0.125072D-01 -0.104943D-01
      6   0.120621D-01  0.320647D+00 -0.134438D-01
      7  -0.110004D-01 -0.130290D-01 -0.320697D+00
      8   0.000000D+00  0.000000D+00 -0.194152D-05
      9   0.000000D+00  0.000000D+00  0.000000D+00
     10  -0.185414D-05  0.000000D+00  0.000000D+00
     11  -0.118911D+00 -0.187716D+00  0.139655D-01
     12   0.705862D-01 -0.170567D-01  0.355941D-01
     13   0.483269D-01  0.204779D+00 -0.495600D-01
     14  -0.190549D+00  0.762442D-01 -0.246072D-01
     15  -0.263720D-02  0.263492D-01 -0.429489D-01
     16   0.194333D-01 -0.467553D-01 -0.207407D+00
 Unable to Open any file for archive entry.
 1\1\GINC-HEL24\SP\RLC-BLYP TD-FC\Gen\C1H4\SABYASACHI\21-Mar-2022\0\\#P
  TD(Nstates=10000) lc-blyp/Gen SCF(maxcycles=100) Int(Grid=ultrafine)\
 \xGDB7_00001_tier4.com\\0,1\C,0,0.000001,0.000006,0.\H,0,0.985233,0.46
 299,-0.028035\H,0,-0.05618,-0.682943,0.846305\H,0,-0.168125,-0.551911,
 -0.923536\H,0,-0.760937,0.771825,0.105269\\Version=EM64L-G16RevC.01\St
 ate=1-A\HF=-40.3427954\RMSD=5.937e-09\PG=C01 [X(C1H4)]\\@
 The archive entry for this job was punched.


 PICNIC:  A SNACK IN THE GRASS.
 Job cpu time:       0 days  0 hours  0 minutes 54.0 seconds.
 Elapsed time:       0 days  0 hours  0 minutes  7.0 seconds.
 File lengths (MBytes):  RWF=     49 Int=      0 D2E=      0 Chk=     13 Scr=      1
 Normal termination of Gaussian 16 at Mon Mar 21 20:15:08 2022.
