 Entering Gaussian System, Link 0=g16
 Input=000010.com
 Output=000010.log
 Initial command:
 /home/sabyasachi/g16/l1.exe "/scratch/sabyasachi/PBS_7976210.helios/Gau-156869.inp" -scrdir="/scratch/sabyasachi/PBS_7976210.helios/"
 Entering Link 1 = /home/sabyasachi/g16/l1.exe PID=    156870.
  
 Copyright (c) 1988-2019, Gaussian, Inc.  All Rights Reserved.
  
 This is part of the Gaussian(R) 16 program.  It is based on
 the Gaussian(R) 09 system (copyright 2009, Gaussian, Inc.),
 the Gaussian(R) 03 system (copyright 2003, Gaussian, Inc.),
 the Gaussian(R) 98 system (copyright 1998, Gaussian, Inc.),
 the Gaussian(R) 94 system (copyright 1995, Gaussian, Inc.),
 the Gaussian 92(TM) system (copyright 1992, Gaussian, Inc.),
 the Gaussian 90(TM) system (copyright 1990, Gaussian, Inc.),
 the Gaussian 88(TM) system (copyright 1988, Gaussian, Inc.),
 the Gaussian 86(TM) system (copyright 1986, Carnegie Mellon
 University), and the Gaussian 82(TM) system (copyright 1983,
 Carnegie Mellon University). Gaussian is a federally registered
 trademark of Gaussian, Inc.
  
 This software contains proprietary and confidential information,
 including trade secrets, belonging to Gaussian, Inc.
  
 This software is provided under written license and may be
 used, copied, transmitted, or stored only in accord with that
 written license.
  
 The following legend is applicable only to US Government
 contracts under FAR:
  
                    RESTRICTED RIGHTS LEGEND
  
 Use, reproduction and disclosure by the US Government is
 subject to restrictions as set forth in subparagraphs (a)
 and (c) of the Commercial Computer Software - Restricted
 Rights clause in FAR 52.227-19.
  
 Gaussian, Inc.
 340 Quinnipiac St., Bldg. 40, Wallingford CT 06492
  
  
 ---------------------------------------------------------------
 Warning -- This program may not be used in any manner that
 competes with the business of Gaussian, Inc. or will provide
 assistance to any competitor of Gaussian, Inc.  The licensee
 of this program is prohibited from giving any competitor of
 Gaussian, Inc. access to this program.  By using this program,
 the user acknowledges that Gaussian, Inc. is engaged in the
 business of creating and licensing software in the field of
 computational chemistry and represents and warrants to the
 licensee that it is not a competitor of Gaussian, Inc. and that
 it will not use this program in any manner prohibited above.
 ---------------------------------------------------------------
  

 Cite this work as:
 Gaussian 16, Revision C.01,
 M. J. Frisch, G. W. Trucks, H. B. Schlegel, G. E. Scuseria, 
 M. A. Robb, J. R. Cheeseman, G. Scalmani, V. Barone, 
 G. A. Petersson, H. Nakatsuji, X. Li, M. Caricato, A. V. Marenich, 
 J. Bloino, B. G. Janesko, R. Gomperts, B. Mennucci, H. P. Hratchian, 
 J. V. Ortiz, A. F. Izmaylov, J. L. Sonnenberg, D. Williams-Young, 
 F. Ding, F. Lipparini, F. Egidi, J. Goings, B. Peng, A. Petrone, 
 T. Henderson, D. Ranasinghe, V. G. Zakrzewski, J. Gao, N. Rega, 
 G. Zheng, W. Liang, M. Hada, M. Ehara, K. Toyota, R. Fukuda, 
 J. Hasegawa, M. Ishida, T. Nakajima, Y. Honda, O. Kitao, H. Nakai, 
 T. Vreven, K. Throssell, J. A. Montgomery, Jr., J. E. Peralta, 
 F. Ogliaro, M. J. Bearpark, J. J. Heyd, E. N. Brothers, K. N. Kudin, 
 V. N. Staroverov, T. A. Keith, R. Kobayashi, J. Normand, 
 K. Raghavachari, A. P. Rendell, J. C. Burant, S. S. Iyengar, 
 J. Tomasi, M. Cossi, J. M. Millam, M. Klene, C. Adamo, R. Cammi, 
 J. W. Ochterski, R. L. Martin, K. Morokuma, O. Farkas, 
 J. B. Foresman, and D. J. Fox, Gaussian, Inc., Wallingford CT, 2019.
 
 ******************************************
 Gaussian 16:  EM64L-G16RevC.01  3-Jul-2019
                21-Mar-2022 
 ******************************************
 %mem=64gb
 %nproc=8
 Will use up to    8 processors via shared memory.
 ----------------------------------------------------------------------
 #P TD(Nstates=10000) lc-blyp/Gen SCF(maxcycles=100) Int(Grid=ultrafine
 )
 ----------------------------------------------------------------------
 1/38=1,172=1/1;
 2/12=2,17=6,18=5,40=1/2;
 3/5=7,11=9,25=1,30=1,74=1000402,75=-5/1,2,3,8;
 4//1;
 5/5=2,7=100,38=5/2;
 8/6=1,10=1,108=10000/1;
 9/41=10000,42=1,70=2/14;
 6/7=2,8=2,9=2,10=2/1;
 99/5=1,9=1/99;
 Leave Link    1 at Mon Mar 21 20:15:10 2022, MaxMem=  8589934592 cpu:               0.4 elap:               0.1
 (Enter /home/sabyasachi/g16/l101.exe)
 ---------------------
 xGDB7_00001_tier4.com
 ---------------------
 Symbolic Z-matrix:
 Charge =  0 Multiplicity = 1
 6                     0.        0.        0.66087 
 6                     0.        0.       -0.66087 
 1                     0.        0.92259   1.22926 
 1                     0.       -0.92259   1.22926 
 1                     0.        0.92259  -1.22926 
 1                     0.       -0.92259  -1.22926 
 
 ITRead=  0  0  0  0  0  0
 MicOpt= -1 -1 -1 -1 -1 -1
 NAtoms=      6 NQM=        6 NQMF=       0 NMMI=      0 NMMIF=      0
                NMic=       0 NMicF=      0.
                    Isotopes and Nuclear Properties:
 (Nuclear quadrupole moments (NQMom) in fm**2, nuclear magnetic moments (NMagM)
  in nuclear magnetons)

  Atom         1           2           3           4           5           6
 IAtWgt=          12          12           1           1           1           1
 AtmWgt=  12.0000000  12.0000000   1.0078250   1.0078250   1.0078250   1.0078250
 NucSpn=           0           0           1           1           1           1
 AtZEff=  -0.0000000  -0.0000000  -0.0000000  -0.0000000  -0.0000000  -0.0000000
 NQMom=    0.0000000   0.0000000   0.0000000   0.0000000   0.0000000   0.0000000
 NMagM=    0.0000000   0.0000000   2.7928460   2.7928460   2.7928460   2.7928460
 AtZNuc=   6.0000000   6.0000000   1.0000000   1.0000000   1.0000000   1.0000000
 Leave Link  101 at Mon Mar 21 20:15:11 2022, MaxMem=  8589934592 cpu:               0.6 elap:               0.1
 (Enter /home/sabyasachi/g16/l202.exe)
                          Input orientation:                          
 ---------------------------------------------------------------------
 Center     Atomic      Atomic             Coordinates (Angstroms)
 Number     Number       Type             X           Y           Z
 ---------------------------------------------------------------------
      1          6           0        0.000000    0.000000    0.660866
      2          6           0        0.000000    0.000000   -0.660866
      3          1           0        0.000000    0.922586    1.229258
      4          1           0        0.000000   -0.922586    1.229258
      5          1           0        0.000000    0.922586   -1.229258
      6          1           0        0.000000   -0.922586   -1.229258
 ---------------------------------------------------------------------
                    Distance matrix (angstroms):
                    1          2          3          4          5
     1  C    0.000000
     2  C    1.321732   0.000000
     3  H    1.083621   2.103267   0.000000
     4  H    1.083621   2.103267   1.845172   0.000000
     5  H    2.103267   1.083621   2.458516   3.073916   0.000000
     6  H    2.103267   1.083621   3.073916   2.458516   1.845172
                    6
     6  H    0.000000
 Stoichiometry    C2H4
 Framework group  D2H[C2"(C.C),SG(H4)]
 Deg. of freedom     3
 Full point group                 D2H     NOp   8
 Largest Abelian subgroup         D2H     NOp   8
 Largest concise Abelian subgroup D2      NOp   4
                         Standard orientation:                         
 ---------------------------------------------------------------------
 Center     Atomic      Atomic             Coordinates (Angstroms)
 Number     Number       Type             X           Y           Z
 ---------------------------------------------------------------------
      1          6           0        0.000000    0.000000    0.660866
      2          6           0        0.000000    0.000000   -0.660866
      3          1           0        0.000000    0.922586    1.229258
      4          1           0       -0.000000   -0.922586    1.229258
      5          1           0        0.000000    0.922586   -1.229258
      6          1           0       -0.000000   -0.922586   -1.229258
 ---------------------------------------------------------------------
 Rotational constants (GHZ):         147.2849410          30.4932883          25.2629480
 Leave Link  202 at Mon Mar 21 20:15:11 2022, MaxMem=  8589934592 cpu:               0.1 elap:               0.0
 (Enter /home/sabyasachi/g16/l301.exe)
 General basis read from cards:  (5D, 7F)
 Centers:       3      4      5      6
 S 3 1.00
     Exponent=  1.3010701000D+01 Coefficients=  1.9682158000D-02
     Exponent=  1.9622572000D+00 Coefficients=  1.3796524000D-01
     Exponent=  4.4453796000D-01 Coefficients=  4.7831935000D-01
 S 1 1.00
     Exponent=  1.2194962000D-01 Coefficients=  1.0000000000D+00
 P 1 1.00
     Exponent=  8.0000000000D-01 Coefficients=  1.0000000000D+00
 P 1 1.00
     Exponent=  1.1704099050D-01 Coefficients=  1.0000000000D+00
 ****
 Centers:       1      2
 S 5 1.00
     Exponent=  1.2384016938D+03 Coefficients=  5.4568832082D-03
     Exponent=  1.8629004992D+02 Coefficients=  4.0638409211D-02
     Exponent=  4.2251176346D+01 Coefficients=  1.8025593888D-01
     Exponent=  1.1676557932D+01 Coefficients=  4.6315121755D-01
     Exponent=  3.5930506482D+00 Coefficients=  4.4087173314D-01
 S 1 1.00
     Exponent=  4.0245147363D-01 Coefficients=  1.0000000000D+00
 S 1 1.00
     Exponent=  1.3090182668D-01 Coefficients=  1.0000000000D+00
 S 1 1.00
     Exponent=  6.7053540256D-02 Coefficients=  1.0000000000D+00
 P 3 1.00
     Exponent=  9.4680970621D+00 Coefficients=  3.8387871728D-02
     Exponent=  2.0103545142D+00 Coefficients=  2.1117025112D-01
     Exponent=  5.4771004707D-01 Coefficients=  5.1328172114D-01
 P 1 1.00
     Exponent=  1.5268613795D-01 Coefficients=  1.0000000000D+00
 D 1 1.00
     Exponent=  8.0000000000D-01 Coefficients=  1.0000000000D+00
 D 1 1.00
     Exponent=  1.1713185140D-01 Coefficients=  1.0000000000D+00
 ****
 Ernie: Thresh=  0.10000D-02 Tol=  0.10000D-05 Strict=F.
 There are    18 symmetry adapted cartesian basis functions of AG  symmetry.
 There are     4 symmetry adapted cartesian basis functions of B1G symmetry.
 There are     6 symmetry adapted cartesian basis functions of B2G symmetry.
 There are    10 symmetry adapted cartesian basis functions of B3G symmetry.
 There are     4 symmetry adapted cartesian basis functions of AU  symmetry.
 There are    18 symmetry adapted cartesian basis functions of B1U symmetry.
 There are    10 symmetry adapted cartesian basis functions of B2U symmetry.
 There are     6 symmetry adapted cartesian basis functions of B3U symmetry.
 There are    16 symmetry adapted basis functions of AG  symmetry.
 There are     4 symmetry adapted basis functions of B1G symmetry.
 There are     6 symmetry adapted basis functions of B2G symmetry.
 There are    10 symmetry adapted basis functions of B3G symmetry.
 There are     4 symmetry adapted basis functions of AU  symmetry.
 There are    16 symmetry adapted basis functions of B1U symmetry.
 There are    10 symmetry adapted basis functions of B2U symmetry.
 There are     6 symmetry adapted basis functions of B3U symmetry.
    72 basis functions,   104 primitive gaussians,    76 cartesian basis functions
     8 alpha electrons        8 beta electrons
       nuclear repulsion energy        33.5201042511 Hartrees.
 IExCor=10402 DFT=T Ex=LC-B+HF Corr=LYP ExCW=0 ScaHFX=  1.000000
 ScaDFX=  1.000000  1.000000  1.000000  1.000000 ScalE2=  1.000000  1.000000
 IRadAn=      5 IRanWt=     -1 IRanGd=            0 ICorTp=0 IEmpDi=  4
 HFx  wShort=  0.000000 wLong=  0.470000 cFull=  0.000000 cShort=  0.000000 cLong=  1.000000
 DFx  wShort=  0.000000 wLong=  0.470000 cFull=  0.000000 cShort=  0.000000 cLong=  1.000000
 NAtoms=    6 NActive=    6 NUniq=    2 SFac= 4.00D+00 NAtFMM=   60 NAOKFM=F Big=F
 Integral buffers will be    131072 words long.
 Raffenetti 1 integral format.
 Two-electron integral symmetry is turned on.
 Leave Link  301 at Mon Mar 21 20:15:11 2022, MaxMem=  8589934592 cpu:               0.5 elap:               0.1
 (Enter /home/sabyasachi/g16/l302.exe)
 NPDir=0 NMtPBC=     1 NCelOv=     1 NCel=       1 NClECP=     1 NCelD=      1
         NCelK=      1 NCelE2=     1 NClLst=     1 CellRange=     0.0.
 One-electron integrals computed using PRISM.
 One-electron integral symmetry used in STVInt
 NBasis=    72 RedAO= T EigKep=  8.68D-05  NBF=    16     4     6    10     4    16    10     6
 NBsUse=    72 1.00D-06 EigRej= -1.00D+00 NBFU=    16     4     6    10     4    16    10     6
 Precomputing XC quadrature grid using
 IXCGrd= 4 IRadAn=           5 IRanWt=          -1 IRanGd=           0 AccXCQ= 0.00D+00.
 Generated NRdTot=       0 NPtTot=           0 NUsed=           0 NTot=          32
 NSgBfM=    76    76    76    76    76 MxSgAt=     6 MxSgA2=     6.
 Leave Link  302 at Mon Mar 21 20:15:11 2022, MaxMem=  8589934592 cpu:               1.0 elap:               0.1
 (Enter /home/sabyasachi/g16/l303.exe)
 DipDrv:  MaxL=1.
 Leave Link  303 at Mon Mar 21 20:15:11 2022, MaxMem=  8589934592 cpu:               0.2 elap:               0.0
 (Enter /home/sabyasachi/g16/l308.exe)
 Leave Link  308 at Mon Mar 21 20:15:11 2022, MaxMem=  8589934592 cpu:               0.2 elap:               0.0
 (Enter /home/sabyasachi/g16/l401.exe)
 ExpMin= 6.71D-02 ExpMax= 1.24D+03 ExpMxC= 1.86D+02 IAcc=3 IRadAn=         5 AccDes= 0.00D+00
 Harris functional with IExCor=10402 and IRadAn=       5 diagonalized for initial guess.
 HarFok:  IExCor=10402 AccDes= 0.00D+00 IRadAn=         5 IDoV= 1 UseB2=F ITyADJ=14
 ICtDFT=  3500011 ScaDFX=  1.000000  1.000000  1.000000  1.000000
 FoFCou: FMM=F IPFlag=           0 FMFlag=      100000 FMFlg1=           0
         NFxFlg=           0 DoJE=T BraDBF=F KetDBF=T FulRan=T
         wScrn=  0.000000 ICntrl=       500 IOpCl=  0 I1Cent=   200000004 NGrid=           0
         NMat0=    1 NMatS0=      1 NMatT0=    0 NMatD0=    1 NMtDS0=    0 NMtDT0=    0
 Petite list used in FoFCou.
 Harris En= -74.7929592168247    
 JPrj=0 DoOrth=F DoCkMO=F.
 Initial guess orbital symmetries:
       Occupied  (AG) (B1U) (AG) (B1U) (B2U) (AG) (B3G) (B3U)
       Virtual   (B2G) (AG) (B1U) (B2U) (AG) (B3G) (AG) (B3U) (B1G)
                 (B1U) (B2U) (B2G) (B1U) (AU) (AG) (B2U) (B1U)
                 (B3G) (B3U) (AG) (B2U) (B3G) (AG) (B1U) (B1G)
                 (B2G) (B1U) (B1U) (AU) (B3G) (AG) (B3U) (B2G)
                 (B3G) (B2U) (AG) (B1U) (B1U) (AG) (B2U) (B1U)
                 (B3G) (B3U) (B1G) (AU) (B2U) (AG) (B2G) (AG) (B2U)
                 (B3G) (B1U) (B3U) (B1G) (B3G) (B1U) (AU) (AG)
                 (B2G) (AG) (B2U) (B1U) (B1U) (B3G)
 The electronic state of the initial guess is 1-AG.
 Leave Link  401 at Mon Mar 21 20:15:11 2022, MaxMem=  8589934592 cpu:               1.2 elap:               0.2
 (Enter /home/sabyasachi/g16/l502.exe)
 Keep R1 ints in memory in symmetry-blocked form, NReq=14327284.
 FoFCou: FMM=F IPFlag=           0 FMFlag=           0 FMFlg1=           0
         NFxFlg=           0 DoJE=F BraDBF=F KetDBF=F FulRan=T
         wScrn=  0.000000 ICntrl=       600 IOpCl=  0 I1Cent=           0 NGrid=           0
         NMat0=    1 NMatS0=   2628 NMatT0=    0 NMatD0=    1 NMtDS0=    0 NMtDT0=    0
 Petite list used in FoFCou.
 Closed shell SCF:
 Using DIIS extrapolation, IDIIS=  1040.
 NGot=  8589934592 LenX=  8589457632 LenY=  8589451415
 Requested convergence on RMS density matrix=1.00D-08 within 100 cycles.
 Requested convergence on MAX density matrix=1.00D-06.
 Requested convergence on             energy=1.00D-06.
 No special actions if energy rises.
 Integral accuracy reduced to 1.0D-05 until final iterations.

 Cycle   1  Pass 0  IDiag  1:
 E= -78.2371327865905    
 DIIS: error= 2.42D-02 at cycle   1 NSaved=   1.
 NSaved= 1 IEnMin= 1 EnMin= -78.2371327865905     IErMin= 1 ErrMin= 2.42D-02
 ErrMax= 2.42D-02  0.00D+00 EMaxC= 1.00D-01 BMatC= 3.04D-02 BMatP= 3.04D-02
 IDIUse=3 WtCom= 7.58D-01 WtEn= 2.42D-01
 Coeff-Com:  0.100D+01
 Coeff-En:   0.100D+01
 Coeff:      0.100D+01
 Gap=     0.431 Goal=   None    Shift=    0.000
 GapD=    0.431 DampG=2.000 DampE=0.500 DampFc=1.0000 IDamp=-1.
 RMSDP=7.52D-03 MaxDP=8.17D-02              OVMax= 8.07D-02

 Cycle   2  Pass 0  IDiag  1:
 E= -78.2593932873932     Delta-E=       -0.022260500803 Rises=F Damp=F
 DIIS: error= 1.43D-02 at cycle   2 NSaved=   2.
 NSaved= 2 IEnMin= 2 EnMin= -78.2593932873932     IErMin= 2 ErrMin= 1.43D-02
 ErrMax= 1.43D-02  0.00D+00 EMaxC= 1.00D-01 BMatC= 9.95D-03 BMatP= 3.04D-02
 IDIUse=3 WtCom= 8.57D-01 WtEn= 1.43D-01
 Coeff-Com:  0.358D+00 0.642D+00
 Coeff-En:   0.837D-01 0.916D+00
 Coeff:      0.319D+00 0.681D+00
 Gap=     0.497 Goal=   None    Shift=    0.000
 RMSDP=2.28D-03 MaxDP=2.82D-02 DE=-2.23D-02 OVMax= 3.58D-02

 Cycle   3  Pass 0  IDiag  1:
 E= -78.2699388129977     Delta-E=       -0.010545525604 Rises=F Damp=F
 DIIS: error= 2.14D-03 at cycle   3 NSaved=   3.
 NSaved= 3 IEnMin= 3 EnMin= -78.2699388129977     IErMin= 3 ErrMin= 2.14D-03
 ErrMax= 2.14D-03  0.00D+00 EMaxC= 1.00D-01 BMatC= 1.18D-04 BMatP= 9.95D-03
 IDIUse=3 WtCom= 9.79D-01 WtEn= 2.14D-02
 Coeff-Com: -0.698D-01-0.126D-01 0.108D+01
 Coeff-En:   0.000D+00 0.000D+00 0.100D+01
 Coeff:     -0.683D-01-0.124D-01 0.108D+01
 Gap=     0.493 Goal=   None    Shift=    0.000
 RMSDP=6.03D-04 MaxDP=4.97D-03 DE=-1.05D-02 OVMax= 5.34D-03

 Cycle   4  Pass 0  IDiag  1:
 E= -78.2701013356046     Delta-E=       -0.000162522607 Rises=F Damp=F
 DIIS: error= 2.06D-04 at cycle   4 NSaved=   4.
 NSaved= 4 IEnMin= 4 EnMin= -78.2701013356046     IErMin= 4 ErrMin= 2.06D-04
 ErrMax= 2.06D-04  0.00D+00 EMaxC= 1.00D-01 BMatC= 9.02D-07 BMatP= 1.18D-04
 IDIUse=3 WtCom= 9.98D-01 WtEn= 2.06D-03
 Coeff-Com:  0.574D-02-0.899D-02-0.215D+00 0.122D+01
 Coeff-En:   0.000D+00 0.000D+00 0.000D+00 0.100D+01
 Coeff:      0.573D-02-0.897D-02-0.215D+00 0.122D+01
 Gap=     0.493 Goal=   None    Shift=    0.000
 RMSDP=8.72D-05 MaxDP=9.35D-04 DE=-1.63D-04 OVMax= 1.24D-03

 Cycle   5  Pass 0  IDiag  1:
 E= -78.2701044889388     Delta-E=       -0.000003153334 Rises=F Damp=F
 DIIS: error= 4.20D-05 at cycle   5 NSaved=   5.
 NSaved= 5 IEnMin= 5 EnMin= -78.2701044889388     IErMin= 5 ErrMin= 4.20D-05
 ErrMax= 4.20D-05  0.00D+00 EMaxC= 1.00D-01 BMatC= 1.78D-08 BMatP= 9.02D-07
 IDIUse=1 WtCom= 1.00D+00 WtEn= 0.00D+00
 Coeff-Com:  0.573D-03 0.109D-02 0.696D-02-0.148D+00 0.114D+01
 Coeff:      0.573D-03 0.109D-02 0.696D-02-0.148D+00 0.114D+01
 Gap=     0.493 Goal=   None    Shift=    0.000
 RMSDP=1.38D-05 MaxDP=1.53D-04 DE=-3.15D-06 OVMax= 1.69D-04

 Cycle   6  Pass 0  IDiag  1:
 E= -78.2701045466280     Delta-E=       -0.000000057689 Rises=F Damp=F
 DIIS: error= 5.65D-06 at cycle   6 NSaved=   6.
 NSaved= 6 IEnMin= 6 EnMin= -78.2701045466280     IErMin= 6 ErrMin= 5.65D-06
 ErrMax= 5.65D-06  0.00D+00 EMaxC= 1.00D-01 BMatC= 5.38D-10 BMatP= 1.78D-08
 IDIUse=1 WtCom= 1.00D+00 WtEn= 0.00D+00
 Coeff-Com: -0.201D-03 0.349D-03 0.777D-02-0.414D-01-0.588D-01 0.109D+01
 Coeff:     -0.201D-03 0.349D-03 0.777D-02-0.414D-01-0.588D-01 0.109D+01
 Gap=     0.493 Goal=   None    Shift=    0.000
 RMSDP=3.79D-06 MaxDP=3.60D-05 DE=-5.77D-08 OVMax= 2.77D-05

 Initial convergence to 1.0D-05 achieved.  Increase integral accuracy.
 Cycle   7  Pass 1  IDiag  1:
 E= -78.2701043560564     Delta-E=        0.000000190572 Rises=F Damp=F
 DIIS: error= 4.12D-07 at cycle   1 NSaved=   1.
 NSaved= 1 IEnMin= 1 EnMin= -78.2701043560564     IErMin= 1 ErrMin= 4.12D-07
 ErrMax= 4.12D-07  0.00D+00 EMaxC= 1.00D-01 BMatC= 9.47D-12 BMatP= 9.47D-12
 IDIUse=1 WtCom= 1.00D+00 WtEn= 0.00D+00
 Coeff-Com:  0.100D+01
 Coeff:      0.100D+01
 Gap=     0.493 Goal=   None    Shift=    0.000
 RMSDP=3.79D-06 MaxDP=3.60D-05 DE= 1.91D-07 OVMax= 1.61D-06

 Cycle   8  Pass 1  IDiag  1:
 E= -78.2701043560759     Delta-E=       -0.000000000020 Rises=F Damp=F
 DIIS: error= 1.56D-07 at cycle   2 NSaved=   2.
 NSaved= 2 IEnMin= 2 EnMin= -78.2701043560759     IErMin= 2 ErrMin= 1.56D-07
 ErrMax= 1.56D-07  0.00D+00 EMaxC= 1.00D-01 BMatC= 5.42D-13 BMatP= 9.47D-12
 IDIUse=1 WtCom= 1.00D+00 WtEn= 0.00D+00
 Coeff-Com: -0.209D+00 0.121D+01
 Coeff:     -0.209D+00 0.121D+01
 Gap=     0.493 Goal=   None    Shift=    0.000
 RMSDP=1.74D-07 MaxDP=1.69D-06 DE=-1.96D-11 OVMax= 5.98D-07

 Cycle   9  Pass 1  IDiag  1:
 E= -78.2701043560770     Delta-E=       -0.000000000001 Rises=F Damp=F
 DIIS: error= 4.21D-08 at cycle   3 NSaved=   3.
 NSaved= 3 IEnMin= 3 EnMin= -78.2701043560770     IErMin= 3 ErrMin= 4.21D-08
 ErrMax= 4.21D-08  0.00D+00 EMaxC= 1.00D-01 BMatC= 6.62D-14 BMatP= 5.42D-13
 IDIUse=1 WtCom= 1.00D+00 WtEn= 0.00D+00
 Coeff-Com: -0.859D-01 0.350D+00 0.736D+00
 Coeff:     -0.859D-01 0.350D+00 0.736D+00
 Gap=     0.493 Goal=   None    Shift=    0.000
 RMSDP=1.21D-08 MaxDP=1.08D-07 DE=-1.08D-12 OVMax= 1.12D-07

 Cycle  10  Pass 1  IDiag  1:
 E= -78.2701043560763     Delta-E=        0.000000000001 Rises=F Damp=F
 DIIS: error= 1.41D-08 at cycle   4 NSaved=   4.
 NSaved= 4 IEnMin= 3 EnMin= -78.2701043560770     IErMin= 4 ErrMin= 1.41D-08
 ErrMax= 1.41D-08  0.00D+00 EMaxC= 1.00D-01 BMatC= 2.22D-15 BMatP= 6.62D-14
 IDIUse=1 WtCom= 1.00D+00 WtEn= 0.00D+00
 Coeff-Com:  0.202D-01-0.118D+00-0.483D-01 0.115D+01
 Coeff:      0.202D-01-0.118D+00-0.483D-01 0.115D+01
 Gap=     0.493 Goal=   None    Shift=    0.000
 RMSDP=2.54D-09 MaxDP=2.66D-08 DE= 7.11D-13 OVMax= 5.88D-08

 SCF Done:  E(RLC-B+HF-LYP) =  -78.2701043561     A.U. after   10 cycles
            NFock= 10  Conv=0.25D-08     -V/T= 2.0114
 KE= 7.738762448435D+01 PE=-2.478263965688D+02 EE= 5.864856347725D+01
 Leave Link  502 at Mon Mar 21 20:15:12 2022, MaxMem=  8589934592 cpu:               3.4 elap:               0.5
 (Enter /home/sabyasachi/g16/l801.exe)
 DoSCS=F DFT=T ScalE2(SS,OS)=  1.000000  1.000000
 ExpMin= 6.71D-02 ExpMax= 1.24D+03 ExpMxC= 1.86D+02 IAcc=3 IRadAn=         5 AccDes= 0.00D+00
 HarFok:  IExCor=  205 AccDes= 0.00D+00 IRadAn=         5 IDoV=-2 UseB2=F ITyADJ=14
 ICtDFT= 12500011 ScaDFX=  1.000000  1.000000  1.000000  1.000000
 Largest valence mixing into a core orbital is  6.47D-05
 Largest core mixing into a valence orbital is  6.53D-06
 Range of M.O.s used for correlation:     3    72
 NBasis=    72 NAE=     8 NBE=     8 NFC=     2 NFV=     0
 NROrb=     70 NOA=     6 NOB=     6 NVA=    64 NVB=    64

 **** Warning!!: The largest alpha MO coefficient is  0.34412748D+02

 Leave Link  801 at Mon Mar 21 20:15:12 2022, MaxMem=  8589934592 cpu:               0.5 elap:               0.1
 (Enter /home/sabyasachi/g16/l914.exe)
 RHF ground state
 Keep R1, R2, and R3 ints in memory in symmetry-blocked form, NReq=209359776.
 FoFCou: FMM=F IPFlag=           0 FMFlag=           0 FMFlg1=           0
         NFxFlg=           0 DoJE=F BraDBF=F KetDBF=F FulRan=T
         wScrn=  0.000000 ICntrl=       600 IOpCl=  0 I1Cent=           0 NGrid=           0
         NMat0=    1 NMatS0=   2628 NMatT0=    0 NMatD0=    1 NMtDS0=    0 NMtDT0=    0
 Petite list used in FoFCou.
 MDV=  8589934592 DFT=T DoStab=F Mixed=T DoRPA=T DoScal=F NonHer=T
 Making orbital integer symmetry assigments:
 Orbital symmetries:
       Occupied  (AG) (B1U) (AG) (B1U) (B2U) (AG) (B3G) (B3U)
       Virtual   (AG) (B2G) (B1U) (B2U) (AG) (B3G) (AG) (B3U) (B1G)
                 (B1U) (B2U) (AU) (B1U) (B2G) (AG) (B3G) (B2U)
                 (B1U) (B3U) (AG) (B2U) (AG) (B1G) (B3G) (B2G)
                 (B1U) (B1U) (AU) (B1U) (B3G) (AG) (B3U) (B2G)
                 (B3G) (B2U) (AG) (B1U) (AG) (B2U) (B1U) (B1U)
                 (B3G) (B1G) (B3U) (AU) (B2U) (B2G) (AG) (B3G)
                 (B1U) (AG) (B2U) (B3U) (B1G) (B3G) (B1U) (AU)
                 (AG) (B2G) (AG) (B2U) (B1U) (B1U) (B3G)
   384 initial guesses have been made.
 Convergence on wavefunction:    0.001000000000000
 Davidson Disk Diagonalization:  ConvIn= 1.00D-03 SkipCon=T Conv= 1.00D-03.
 Max sub-space:  2304 roots to seek:   768 dimension of matrix:          768
 *** WARNING: Number of orthogonal guesses is          384
 Iteration     1 Dimension   384 NMult     0 NNew    384
 CISAX will form   384 AO SS matrices at one time.
 NMat=   384 NSing=   384 JSym2X=-1.
 New state      1 was old state      2
 New state      2 was old state      1
 New state      3 was old state      6
 New state      4 was old state      3
 New state      5 was old state      4
 New state      6 was old state     14
 New state      7 was old state      5
 New state      9 was old state      7
 New state     10 was old state      9
 New state     11 was old state     22
 New state     12 was old state     10
 New state     13 was old state     11
 New state     14 was old state     15
 New state     15 was old state     12
 New state     16 was old state     13
 New state     17 was old state     19
 New state     18 was old state     17
 New state     19 was old state     18
 New state     20 was old state     16
 New state     21 was old state     23
 New state     22 was old state     25
 New state     23 was old state     26
 New state     24 was old state     29
 New state     25 was old state     21
 New state     26 was old state     20
 New state     27 was old state     28
 New state     28 was old state     30
 New state     29 was old state     32
 New state     30 was old state     27
 New state     32 was old state     24
 New state     35 was old state     36
 New state     36 was old state     44
 New state     37 was old state     47
 New state     39 was old state     42
 New state     40 was old state     37
 New state     42 was old state     35
 New state     43 was old state     39
 New state     44 was old state     49
 New state     45 was old state     40
 New state     46 was old state     52
 New state     47 was old state     48
 New state     48 was old state     50
 New state     49 was old state     53
 New state     50 was old state     43
 New state     51 was old state     46
 New state     52 was old state     45
 New state     53 was old state     54
 New state     54 was old state     64
 New state     57 was old state     51
 New state     58 was old state     59
 New state     59 was old state     63
 New state     60 was old state     61
 New state     61 was old state     58
 New state     62 was old state     57
 New state     63 was old state     60
 New state     64 was old state     62
 New state     65 was old state     72
 New state     67 was old state     73
 New state     68 was old state     76
 New state     69 was old state     68
 New state     70 was old state     69
 New state     71 was old state     67
 New state     72 was old state     70
 New state     73 was old state     71
 New state     74 was old state     65
 New state     76 was old state     78
 New state     77 was old state     99
 New state     78 was old state     80
 New state     79 was old state     77
 New state     80 was old state     81
 New state     81 was old state     79
 New state     83 was old state     74
 New state     84 was old state     83
 New state     85 was old state     93
 New state     86 was old state     87
 New state     87 was old state     85
 New state     88 was old state     91
 New state     89 was old state     88
 New state     90 was old state     84
 New state     91 was old state     90
 New state     92 was old state     86
 New state     93 was old state     89
 New state     94 was old state     96
 New state     95 was old state     92
 New state     96 was old state     97
 New state     97 was old state     94
 New state     98 was old state     95
 New state     99 was old state    100
 New state    100 was old state     98
 New state    102 was old state    107
 New state    103 was old state    104
 New state    104 was old state    116
 New state    105 was old state    109
 New state    106 was old state    113
 New state    107 was old state    115
 New state    108 was old state    103
 New state    109 was old state    105
 New state    112 was old state    108
 New state    113 was old state    112
 New state    114 was old state    102
 New state    115 was old state    114
 New state    116 was old state    120
 New state    117 was old state    106
 New state    120 was old state    121
 New state    121 was old state    117
 New state    122 was old state    123
 New state    123 was old state    122
 New state    124 was old state    127
 New state    125 was old state    128
 New state    126 was old state    125
 New state    127 was old state    124
 New state    128 was old state    132
 New state    129 was old state    130
 New state    130 was old state    126
 New state    131 was old state    138
 New state    132 was old state    134
 New state    133 was old state    135
 New state    134 was old state    133
 New state    135 was old state    137
 New state    136 was old state    131
 New state    137 was old state    139
 New state    138 was old state    140
 New state    139 was old state    129
 New state    140 was old state    136
 New state    141 was old state    146
 New state    142 was old state    141
 New state    143 was old state    142
 New state    145 was old state    148
 New state    146 was old state    145
 New state    147 was old state    143
 New state    148 was old state    152
 New state    149 was old state    147
 New state    150 was old state    149
 New state    152 was old state    150
 New state    154 was old state    157
 New state    155 was old state    159
 New state    156 was old state    162
 New state    157 was old state    155
 New state    158 was old state    156
 New state    159 was old state    158
 New state    160 was old state    165
 New state    161 was old state    154
 New state    162 was old state    161
 New state    163 was old state    160
 New state    164 was old state    163
 New state    165 was old state    164
 New state    167 was old state    177
 New state    168 was old state    170
 New state    169 was old state    176
 New state    170 was old state    172
 New state    172 was old state    168
 New state    173 was old state    180
 New state    174 was old state    186
 New state    175 was old state    169
 New state    176 was old state    167
 New state    177 was old state    175
 New state    178 was old state    181
 New state    179 was old state    174
 New state    180 was old state    173
 New state    181 was old state    179
 New state    182 was old state    178
 New state    183 was old state    189
 New state    184 was old state    183
 New state    185 was old state    184
 New state    186 was old state    187
 New state    187 was old state    182
 New state    189 was old state    185
 New state    190 was old state    193
 New state    192 was old state    195
 New state    193 was old state    190
 New state    195 was old state    196
 New state    196 was old state    192
 New state    197 was old state    199
 New state    198 was old state    197
 New state    199 was old state    198
 New state    200 was old state    205
 New state    201 was old state    207
 New state    205 was old state    201
 New state    206 was old state    200
 New state    207 was old state    206
 New state    208 was old state    209
 New state    209 was old state    208
 New state    211 was old state    212
 New state    212 was old state    215
 New state    214 was old state    217
 New state    215 was old state    214
 New state    217 was old state    225
 New state    218 was old state    220
 New state    219 was old state    218
 New state    220 was old state    219
 New state    222 was old state    224
 New state    224 was old state    222
 New state    225 was old state    227
 New state    227 was old state    230
 New state    228 was old state    231
 New state    230 was old state    233
 New state    231 was old state    228
 New state    233 was old state    236
 New state    234 was old state    235
 New state    235 was old state    237
 New state    236 was old state    234
 New state    237 was old state    240
 New state    238 was old state    241
 New state    239 was old state    243
 New state    240 was old state    239
 New state    241 was old state    250
 New state    243 was old state    238
 New state    245 was old state    247
 New state    246 was old state    245
 New state    247 was old state    246
 No map to state    249
 New state    250 was old state    251
 New state    251 was old state    249
 New state    254 was old state    259
 New state    256 was old state    254
 New state    257 was old state    256
 New state    258 was old state    257
 New state    259 was old state    258
 New state    260 was old state    263
 New state    261 was old state    260
 New state    262 was old state    261
 New state    263 was old state    264
 New state    264 was old state    265
 New state    265 was old state    267
 New state    267 was old state    262
 New state    271 was old state    272
 New state    272 was old state    271
 New state    273 was old state    281
 New state    274 was old state    273
 New state    275 was old state    280
 New state    276 was old state    277
 New state    277 was old state    282
 New state    278 was old state    275
 New state    279 was old state    276
 New state    280 was old state    278
 New state    281 was old state    283
 New state    282 was old state    279
 New state    283 was old state    274
 New state    287 was old state    289
 New state    288 was old state    290
 New state    289 was old state    288
 New state    290 was old state    291
 New state    291 was old state    292
 New state    292 was old state    287
 New state    293 was old state    294
 New state    294 was old state    295
 New state    295 was old state    299
 New state    297 was old state    300
 New state    298 was old state    303
 New state    299 was old state    293
 New state    300 was old state    298
 New state    301 was old state    297
 New state    302 was old state    304
 New state    303 was old state    305
 New state    304 was old state    301
 New state    305 was old state    302
 New state    312 was old state    313
 New state    313 was old state    316
 New state    314 was old state    312
 New state    316 was old state    314
 New state    320 was old state    324
 New state    321 was old state    326
 New state    322 was old state    320
 New state    323 was old state    321
 New state    324 was old state    325
 New state    325 was old state    322
 New state    326 was old state    323
 New state    327 was old state    328
 New state    328 was old state    330
 New state    329 was old state    327
 New state    330 was old state    329
 New state    332 was old state    333
 New state    333 was old state    332
 New state    334 was old state    336
 New state    335 was old state    334
 New state    336 was old state    335
 New state    340 was old state    341
 New state    341 was old state    343
 New state    342 was old state    340
 New state    343 was old state    345
 New state    345 was old state    342
 New state    347 was old state    348
 New state    348 was old state    347
 New state    351 was old state    354
 New state    353 was old state    351
 New state    354 was old state    353
 New state    357 was old state    358
 New state    358 was old state    357
 New state    359 was old state    360
 New state    360 was old state    359
 New state    361 was old state    362
 New state    362 was old state    363
 New state    363 was old state    361
 New state    364 was old state    365
 New state    365 was old state    364
 New state    368 was old state    369
 New state    369 was old state    368
 New state    375 was old state    376
 New state    376 was old state    375
 Excitation Energies [eV] at current iteration:
 Root      1 :     7.892433542888855
 Root      2 :     8.096446786326240
 Root      3 :     8.242673691653232
 Root      4 :     9.056530972879459
 Root      5 :     9.499444138331349
 Root      6 :     9.719743218485998
 Root      7 :    10.236079136504320
 Root      8 :    10.594627259460780
 Root      9 :    11.041638947054910
 Root     10 :    11.428150309411140
 Root     11 :    11.599348528271150
 Root     12 :    11.670005574257980
 Root     13 :    11.891342438953100
 Root     14 :    11.960882394486140
 Root     15 :    12.042856348470690
 Root     16 :    12.558070586280800
 Root     17 :    12.585854638537790
 Root     18 :    12.676746255658220
 Root     19 :    12.685687399428330
 Root     20 :    13.165289855353280
 Root     21 :    13.493796864977400
 Root     22 :    13.769056172311780
 Root     23 :    13.858046976706680
 Root     24 :    13.992820226351840
 Root     25 :    14.070800564541660
 Root     26 :    14.082529119901780
 Root     27 :    14.442350319436470
 Root     28 :    14.584652761074190
 Root     29 :    14.675049892627330
 Root     30 :    14.682124136794980
 Root     31 :    15.115386027169550
 Root     32 :    15.170238437718520
 Root     33 :    15.228897882173470
 Root     34 :    15.526725363795440
 Root     35 :    15.546474671801290
 Root     36 :    15.565877743140600
 Root     37 :    15.659080803773250
 Root     38 :    15.913531894703460
 Root     39 :    16.090128260815940
 Root     40 :    16.109106106904470
 Root     41 :    16.169708652085980
 Root     42 :    16.539646694251080
 Root     43 :    16.585110163876000
 Root     44 :    16.635874944541940
 Root     45 :    16.656280340920480
 Root     46 :    16.770392158429110
 Root     47 :    16.915297792605450
 Root     48 :    17.086308909817940
 Root     49 :    17.256326666752520
 Root     50 :    17.349372640421400
 Root     51 :    17.459120595747880
 Root     52 :    17.624760707496770
 Root     53 :    17.708610840721210
 Root     54 :    17.923405311614330
 Root     55 :    17.947692209336130
 Root     56 :    18.084439746539470
 Root     57 :    18.138327263168150
 Root     58 :    18.256817039831590
 Root     59 :    18.453744723867370
 Root     60 :    18.509891406554420
 Root     61 :    18.523446238586920
 Root     62 :    18.618559767091600
 Root     63 :    18.619975125047290
 Root     64 :    18.722113161972970
 Root     65 :    18.768269224844190
 Root     66 :    18.811424529599470
 Root     67 :    19.104602512587850
 Root     68 :    19.154877532325680
 Root     69 :    19.199664018256290
 Root     70 :    19.272777475641420
 Root     71 :    19.291713449218190
 Root     72 :    19.335710260821680
 Root     73 :    19.644730668195970
 Root     74 :    19.807519798698050
 Root     75 :    20.056545672765680
 Root     76 :    20.065414184500280
 Root     77 :    20.118718766518060
 Root     78 :    20.177554862282890
 Root     79 :    20.356201679069140
 Root     80 :    20.428580351642470
 Root     81 :    20.508714889532050
 Root     82 :    20.545648284700710
 Root     83 :    20.617988907857180
 Root     84 :    20.845205563794480
 Root     85 :    20.873602610425130
 Root     86 :    20.978981938124650
 Root     87 :    21.021299999401610
 Root     88 :    21.285696338782160
 Root     89 :    21.287725268110590
 Root     90 :    21.340695038706920
 Root     91 :    21.384872891710160
 Root     92 :    21.392520324215820
 Root     93 :    21.485482310338040
 Root     94 :    21.736053346957740
 Root     95 :    21.744232180136210
 Root     96 :    21.908967392781940
 Root     97 :    21.930935196566860
 Root     98 :    22.318271326875110
 Root     99 :    22.382209788709800
 Root    100 :    22.477100759114610
 Root    101 :    22.649696829705440
 Root    102 :    22.701258816132770
 Root    103 :    22.942112945489160
 Root    104 :    23.086359757303480
 Root    105 :    23.087876233644810
 Root    106 :    23.140482481118430
 Root    107 :    23.175960549237570
 Root    108 :    23.267755172172140
 Root    109 :    23.281287748316880
 Root    110 :    23.288984428564800
 Root    111 :    23.360548311111790
 Root    112 :    23.395843953948660
 Root    113 :    23.422544791042040
 Root    114 :    23.434370382786050
 Root    115 :    23.740586058139570
 Root    116 :    23.917321910393910
 Root    117 :    23.944279092919000
 Root    118 :    24.104609351097560
 Root    119 :    24.128242972635920
 Root    120 :    24.178402443626930
 Root    121 :    24.338969384957980
 Root    122 :    24.724907361998610
 Root    123 :    24.899793895720080
 Root    124 :    24.930032258174160
 Root    125 :    25.073158385371140
 Root    126 :    25.111295943533850
 Root    127 :    25.351999558294160
 Root    128 :    25.446201603352750
 Root    129 :    25.738706440131450
 Root    130 :    25.810121821096650
 Root    131 :    25.849295247353610
 Root    132 :    25.907524590791420
 Root    133 :    25.911174851361830
 Root    134 :    25.927484545655260
 Root    135 :    25.949388718695080
 Root    136 :    25.962252445945070
 Root    137 :    26.035275829540570
 Root    138 :    26.074852841425880
 Root    139 :    26.157216683542890
 Root    140 :    26.170657145782870
 Root    141 :    26.578724972258030
 Root    142 :    26.630190601040140
 Root    143 :    26.735628772243470
 Root    144 :    26.951861696130600
 Root    145 :    27.153497620431030
 Root    146 :    27.162963670501140
 Root    147 :    27.423357048158890
 Root    148 :    27.736605463720610
 Root    149 :    27.908800081608530
 Root    150 :    28.002131257783950
 Root    151 :    28.235530188775450
 Root    152 :    28.308147406526960
 Root    153 :    28.326579040353160
 Root    154 :    28.494982027437240
 Root    155 :    28.499825044132740
 Root    156 :    28.601733436883470
 Root    157 :    28.631991209593860
 Root    158 :    28.696302171021760
 Root    159 :    28.713821496447600
 Root    160 :    28.825165782666860
 Root    161 :    29.120131499461890
 Root    162 :    29.180343418884540
 Root    163 :    29.300451214834080
 Root    164 :    30.056846725939040
 Root    165 :    30.079509496484450
 Root    166 :    30.368131036170600
 Root    167 :    30.562397874715670
 Root    168 :    30.893095711609430
 Root    169 :    30.972547498630990
 Root    170 :    31.111431363159240
 Root    171 :    31.142084913298400
 Root    172 :    31.201309451539710
 Root    173 :    31.315152872379790
 Root    174 :    31.474732734895250
 Root    175 :    31.498524235705050
 Root    176 :    31.726115324963670
 Root    177 :    31.850453332728470
 Root    178 :    32.045073600071610
 Root    179 :    32.337535367089550
 Root    180 :    32.692725450752290
 Root    181 :    32.814774101455500
 Root    182 :    33.223868131719630
 Root    183 :    33.285958595542140
 Root    184 :    33.375691942891570
 Root    185 :    33.452836732241200
 Root    186 :    33.607062201851820
 Root    187 :    33.636459958857390
 Root    188 :    33.725318865204190
 Root    189 :    33.923322050915640
 Root    190 :    34.093648148775150
 Root    191 :    34.151698390855870
 Root    192 :    34.320304405345160
 Root    193 :    34.864695670281420
 Root    194 :    35.432844827404690
 Root    195 :    35.445631807505900
 Root    196 :    35.656120041795200
 Root    197 :    35.663955140268700
 Root    198 :    35.780203409004340
 Root    199 :    36.028097493854020
 Root    200 :    36.380091390344080
 Root    201 :    36.382772666987890
 Root    202 :    36.556515131475540
 Root    203 :    36.599305539997910
 Root    204 :    36.725873328715750
 Root    205 :    37.375118303069830
 Root    206 :    37.470443366116270
 Root    207 :    37.543991723164050
 Root    208 :    37.666487314117750
 Root    209 :    38.237170153736190
 Root    210 :    38.388358622640110
 Root    211 :    38.802197816403140
 Root    212 :    38.863762828339990
 Root    213 :    39.294329055059190
 Root    214 :    39.308421329430530
 Root    215 :    39.676484782733340
 Root    216 :    39.936063660161740
 Root    217 :    40.048583744588610
 Root    218 :    40.126675809212270
 Root    219 :    40.478179627621200
 Root    220 :    40.645115646831240
 Root    221 :    40.792134821184850
 Root    222 :    40.818521714395930
 Root    223 :    41.224240420468160
 Root    224 :    41.441042168284110
 Root    225 :    41.489589473540670
 Root    226 :    42.019540682762500
 Root    227 :    42.312386083788450
 Root    228 :    42.440286486977600
 Root    229 :    42.933125849873050
 Root    230 :    43.186954329294490
 Root    231 :    43.581161982247000
 Root    232 :    43.943161412246600
 Root    233 :    44.390226019246960
 Root    234 :    44.533962425265140
 Root    235 :    45.293074283539570
 Root    236 :    45.352456123814120
 Root    237 :    45.511131857825280
 Root    238 :    45.679591623193160
 Root    239 :    45.753701244132650
 Root    240 :    45.814543527997290
 Root    241 :    46.116348148168960
 Root    242 :    46.192270745516370
 Root    243 :    46.302463311013710
 Root    244 :    46.833862323294600
 Root    245 :    47.468939953098410
 Root    246 :    47.910060207278640
 Root    247 :    47.992769801032450
 Root    248 :    48.567928282534570
 Root    249 :    48.662499988450880
 Root    250 :    48.961870229989440
 Root    251 :    49.057073738197640
 Root    252 :    49.479943384393030
 Root    253 :    50.197026186120920
 Root    254 :    50.670436549125460
 Root    255 :    50.939463586080830
 Root    256 :    51.133702603400780
 Root    257 :    51.609452963379330
 Root    258 :    51.673052144078120
 Root    259 :    51.816727099195840
 Root    260 :    53.156005058658630
 Root    261 :    53.299819107832600
 Root    262 :    54.121889786809530
 Root    263 :    54.303672351996790
 Root    264 :    54.376745050994570
 Root    265 :    54.736385923303080
 Root    266 :    55.038520810592300
 Root    267 :    55.195759642474800
 Root    268 :    56.353442005483100
 Root    269 :    56.378955568414480
 Root    270 :    57.072985223328620
 Root    271 :    57.536882955044980
 Root    272 :    57.554476100406110
 Root    273 :    58.445070475296970
 Root    274 :    58.713353067032760
 Root    275 :    58.935201996505530
 Root    276 :    58.935853575977380
 Root    277 :    58.980823310790170
 Root    278 :    59.149041190963300
 Root    279 :    59.159990188643390
 Root    280 :    59.462920641972940
 Root    281 :    59.471487699034430
 Root    282 :    59.712391138882180
 Root    283 :    60.121326505382060
 Root    284 :    60.240018848354500
 Root    285 :    60.458418221599200
 Root    286 :    60.609840990433180
 Root    287 :    61.006411129159740
 Root    288 :    61.599530680156380
 Root    289 :    62.313026002096390
 Root    290 :    62.399593635942590
 Root    291 :    62.479057353041280
 Root    292 :    62.523799990612130
 Root    293 :    62.613630161103740
 Root    294 :    62.913399861570890
 Root    295 :    63.238690539673030
 Root    296 :    63.508609172921560
 Root    297 :    64.158453940576320
 Root    298 :    64.476528225927950
 Root    299 :    64.564907454764110
 Root    300 :    64.648552439523640
 Root    301 :    64.957670707702630
 Root    302 :    65.329616320049440
 Root    303 :    65.371862744718470
 Root    304 :    65.410843162789190
 Root    305 :    65.506774074467320
 Root    306 :    66.328568934748700
 Root    307 :    67.410692908055590
 Root    308 :    67.608694784559760
 Root    309 :    67.839291209940710
 Root    310 :    67.850714456970010
 Root    311 :    68.147233718307220
 Root    312 :    68.194439487401310
 Root    313 :    69.321684216807970
 Root    314 :    69.533365673389340
 Root    315 :    69.551407762848140
 Root    316 :    69.589221277268610
 Root    317 :    70.092395562598480
 Root    318 :    70.701733828473540
 Root    319 :    71.239814661694170
 Root    320 :    72.599967551330660
 Root    321 :    72.941056285437710
 Root    322 :    73.172301846564040
 Root    323 :    73.221127353867430
 Root    324 :    73.267328130611520
 Root    325 :    73.272691640539210
 Root    326 :    73.302530480437430
 Root    327 :    73.696246003831830
 Root    328 :    73.852089525360000
 Root    329 :    73.869946877986580
 Root    330 :    74.636509496180720
 Root    331 :    74.850843135929200
 Root    332 :    75.253326210769300
 Root    333 :    75.951261865719190
 Root    334 :    76.034876518538200
 Root    335 :    76.554734181909480
 Root    336 :    77.198071542726520
 Root    337 :    77.310948099031780
 Root    338 :    77.698503952919440
 Root    339 :    78.369571833423660
 Root    340 :    78.887470233071780
 Root    341 :    79.108432543411410
 Root    342 :    79.476320546935990
 Root    343 :    79.789068358018550
 Root    344 :    79.920198683976650
 Root    345 :    80.201733599709060
 Root    346 :    80.960551779483750
 Root    347 :    82.459933791000180
 Root    348 :    82.473346886856390
 Root    349 :    82.811328121942840
 Root    350 :    84.229253842267720
 Root    351 :    84.371848440199700
 Root    352 :    84.539070155795680
 Root    353 :    84.862461780834610
 Root    354 :    85.061476487444660
 Root    355 :    85.974533814006150
 Root    356 :    86.829216938863510
 Root    357 :    86.833763276170710
 Root    358 :    87.355808434770720
 Root    359 :    87.949188301599900
 Root    360 :    88.275533206205650
 Root    361 :    88.803785926433930
 Root    362 :    88.964826931544550
 Root    363 :    89.142786875390570
 Root    364 :    90.660740935449570
 Root    365 :    90.750993795360300
 Root    366 :    91.923750019428280
 Root    367 :    92.121257019006150
 Root    368 :    93.205399972399150
 Root    369 :    93.610470112990610
 Root    370 :    95.517215203493550
 Root    371 :    96.236546221832260
 Root    372 :    96.570621928946820
 Root    373 :    97.723539978334800
 Root    374 :    98.602763788913280
 Root    375 :    99.414373503421390
 Root    376 :    99.493253160099030
 Root    377 :   100.285580613408100
 Root    378 :   102.578899190248500
 Root    379 :   102.870701861748600
 Root    380 :   103.996754859981100
 Root    381 :   105.824584069011900
 Root    382 :   107.282885483020700
 Root    383 :   109.006069881051200
 Root    384 :   113.540590040530400
 Convergence achieved for final wavefunctions.
 ***********************************************************************
 Excited states from <AA,BB:AA,BB> singles matrix:
 ***********************************************************************
 
 1PDM for each excited state written to RWF  633
 Ground to excited state transition densities written to RWF  633
 Ground to excited state transition electric dipole moments (Au):
       state          X           Y           Z        Dip. S.      Osc.
         1        -0.0000      0.0000     -1.4161      2.0053      0.3877
         2        -0.6211     -0.0000      0.0000      0.3857      0.0765
         3        -0.0000     -0.0000     -0.0000      0.0000      0.0000
         4         0.0000      0.0000      0.0000      0.0000      0.0000
         5         0.0000      0.0000      0.0000      0.0000      0.0000
         6         0.0000     -0.0000     -0.0000      0.0000      0.0000
         7         0.0000      0.0000     -0.0000      0.0000      0.0000
         8        -0.5545     -0.0000     -0.0000      0.3074      0.0798
         9         0.0000     -0.7566     -0.0000      0.5724      0.1548
        10         0.0000      0.0000     -0.0000      0.0000      0.0000
        11        -0.0000     -0.0000     -0.0000      0.0000      0.0000
        12         0.7518      0.0000      0.0000      0.5651      0.1616
        13        -0.0000     -0.0000      0.0000      0.0000      0.0000
        14         0.0000     -0.6220     -0.0000      0.3868      0.1134
        15         0.0000      0.0000     -0.8991      0.8084      0.2385
        16         0.0000     -0.0000      0.0000      0.0000      0.0000
        17        -0.0000      0.0000      0.0000      0.0000      0.0000
        18        -0.0000      0.0000      0.0000      0.0000      0.0000
        19         0.0000     -0.0000     -0.0000      0.0000      0.0000
        20        -0.0000      0.0000     -0.8501      0.7227      0.2331
        21         0.0000     -0.0000     -0.0000      0.0000      0.0000
        22        -0.0000      0.0000      0.0000      0.0000      0.0000
        23         0.0000     -0.7766     -0.0000      0.6031      0.2048
        24        -0.0000     -0.0000      0.0000      0.0000      0.0000
        25         0.0000     -0.8404     -0.0000      0.7063      0.2435
        26         0.0000     -0.0000      0.0000      0.0000      0.0000
        27         0.0000      0.0000      0.0000      0.0000      0.0000
        28         0.0000     -0.0000      0.5076      0.2576      0.0921
        29        -0.0000      0.0000      0.0000      0.0000      0.0000
        30        -0.0000      0.0000      0.0000      0.0000      0.0000
        31        -0.0000     -1.2487      0.0000      1.5593      0.5774
        32        -0.0000      0.0000     -0.0000      0.0000      0.0000
        33         0.0000     -0.0000     -1.0362      1.0738      0.4006
        34         0.0000     -0.0000     -0.0000      0.0000      0.0000
        35         0.0000     -0.0000      0.0000      0.0000      0.0000
        36        -0.3547      0.0000     -0.0000      0.1258      0.0480
        37         0.0000     -0.0000     -0.0000      0.0000      0.0000
        38         0.9314      0.0000      0.0000      0.8675      0.3382
        39         0.0000     -0.0000     -0.0000      0.0000      0.0000
        40         0.0784      0.0000     -0.0000      0.0061      0.0024
        41        -0.0000      0.2006      0.0000      0.0402      0.0159
        42        -0.0000      0.0000      0.0000      0.0000      0.0000
        43        -0.0000      0.1234     -0.0000      0.0152      0.0062
        44        -0.0000      0.0000      0.0000      0.0000      0.0000
        45        -1.0107     -0.0000     -0.0000      1.0216      0.4169
        46         0.0000      0.0000     -0.0000      0.0000      0.0000
        47        -0.0000      0.0000      0.2726      0.0743      0.0308
        48        -0.0000     -0.0000      0.0000      0.0000      0.0000
        49         0.0000     -0.7256      0.0000      0.5264      0.2226
        50        -0.0000      0.0000      0.0184      0.0003      0.0001
        51         0.0000      0.0000     -0.0000      0.0000      0.0000
        52        -0.0000      0.0000      0.1740      0.0303      0.0131
        53         0.0000      0.1713     -0.0000      0.0293      0.0127
        54        -0.0000     -0.0000      0.0000      0.0000      0.0000
        55        -0.0000     -0.0000     -0.0000      0.0000      0.0000
        56        -0.2294     -0.0000      0.0000      0.0526      0.0233
        57         0.0000      0.0000      0.0000      0.0000      0.0000
        58        -0.0000     -0.0000     -0.0000      0.0000      0.0000
        59        -0.0000      0.0000     -0.0000      0.0000      0.0000
        60         0.0000      0.0000      0.7982      0.6372      0.2890
        61        -0.0000     -0.0000      0.0000      0.0000      0.0000
        62        -0.8008     -0.0000     -0.0000      0.6412      0.2925
        63        -0.0000      0.0000     -0.0000      0.0000      0.0000
        64         0.0000     -0.0000     -0.0000      0.0000      0.0000
        65        -0.0000      0.0000     -0.0000      0.0000      0.0000
        66        -0.0000     -0.0000     -0.0000      0.0000      0.0000
        67        -0.0000      0.0000      0.0000      0.0000      0.0000
        68         0.0000     -0.0000     -0.0000      0.0000      0.0000
        69         0.0000      0.3810     -0.0000      0.1452      0.0683
        70         0.4341     -0.0000      0.0000      0.1885      0.0890
        71         0.0000      0.0000     -0.8749      0.7655      0.3618
        72         0.0000      0.5776      0.0000      0.3336      0.1580
        73         0.0000      0.0000     -0.0512      0.0026      0.0013
        74        -0.0000      0.0000     -0.0000      0.0000      0.0000
        75         0.0000     -0.0000     -0.0873      0.0076      0.0037
        76         0.0000     -0.0000      0.0000      0.0000      0.0000
        77        -0.0000     -0.0000     -0.0000      0.0000      0.0000
        78        -0.0000      0.0000     -0.0000      0.0000      0.0000
        79         0.0000     -0.0000      0.0000      0.0000      0.0000
        80         0.0000      0.0000     -0.0000      0.0000      0.0000
        81         0.0000      0.0000     -0.0000      0.0000      0.0000
        82        -0.0000      0.0000     -0.2130      0.0454      0.0228
        83        -0.0000      0.1096     -0.0000      0.0120      0.0061
        84        -0.0000      0.0000     -0.0000      0.0000      0.0000
        85        -0.5718      0.0000     -0.0000      0.3270      0.1672
        86        -0.0000     -0.1294     -0.0000      0.0168      0.0086
        87        -0.0000      0.0000      0.0000      0.0000      0.0000
        88         0.0000     -0.0000      0.0000      0.0000      0.0000
        89        -0.0000     -0.0000      0.6985      0.4879      0.2545
        90        -0.0000     -0.0000     -0.0000      0.0000      0.0000
        91        -0.0000      0.0000     -0.0000      0.0000      0.0000
        92        -0.0000     -0.0000      0.0309      0.0010      0.0005
        93         0.0000     -0.0000      0.0000      0.0000      0.0000
        94         0.0000     -0.0000     -0.0000      0.0000      0.0000
        95        -0.0000      0.0000     -0.0000      0.0000      0.0000
        96         0.0000      0.8502      0.0000      0.7228      0.3880
        97         0.0000     -0.0000     -0.0000      0.0000      0.0000
        98        -0.0000     -0.0000      0.0000      0.0000      0.0000
        99         0.0000     -0.2266     -0.0000      0.0514      0.0282
       100         0.0000      0.0000     -0.0000      0.0000      0.0000
       101        -0.0000      0.0000     -0.0000      0.0000      0.0000
       102         0.0000     -0.0000     -0.0000      0.0000      0.0000
       103        -0.0000     -0.0000     -0.0000      0.0000      0.0000
       104         0.0000     -0.0000      0.0000      0.0000      0.0000
       105        -0.0000      0.1936     -0.0000      0.0375      0.0212
       106         0.0000      0.0000      0.0000      0.0000      0.0000
       107        -0.0000     -0.0000     -0.0000      0.0000      0.0000
       108        -0.0000      0.0000      0.0135      0.0002      0.0001
       109        -0.0000      0.0000     -0.0000      0.0000      0.0000
       110        -0.0317      0.0000     -0.0000      0.0010      0.0006
       111        -0.0000     -0.7594      0.0000      0.5767      0.3301
       112        -0.0000      0.0000     -0.0000      0.0000      0.0000
       113         0.0000     -0.0000     -0.0000      0.0000      0.0000
       114         0.0000     -0.0000     -0.3416      0.1167      0.0670
       115        -0.0000      0.0000     -0.0000      0.0000      0.0000
       116         0.0000     -0.0000     -0.4643      0.2156      0.1263
       117         0.0000     -0.0000      0.0000      0.0000      0.0000
       118         0.0000      0.2960     -0.0000      0.0876      0.0517
       119         0.0000      0.0000      0.0000      0.0000      0.0000
       120        -0.0000     -0.0000     -0.0000      0.0000      0.0000
       121        -0.0000     -0.0283      0.0000      0.0008      0.0005
       122         0.0000      0.0000     -0.0000      0.0000      0.0000
       123        -0.0000      0.0000      0.0000      0.0000      0.0000
       124         0.4363     -0.0000      0.0000      0.1904      0.1163
       125         0.0000     -0.0000     -0.4231      0.1790      0.1100
       126         0.0000     -0.5004      0.0000      0.2504      0.1541
       127         0.0000      0.0000      0.2656      0.0705      0.0438
       128         0.0000     -0.0000      0.0000      0.0000      0.0000
       129        -0.0000      0.0000      0.0000      0.0000      0.0000
       130         0.0000     -0.0000      0.0000      0.0000      0.0000
       131         0.0000     -0.0000      0.0000      0.0000      0.0000
       132        -0.1226     -0.0000     -0.0000      0.0150      0.0095
       133         0.0000     -0.4086      0.0000      0.1670      0.1060
       134         0.0000      0.0000     -0.0000      0.0000      0.0000
       135         0.0000     -0.0000     -0.0000      0.0000      0.0000
       136         0.0000     -0.0000     -0.2883      0.0831      0.0529
       137         0.2514     -0.0000     -0.0000      0.0632      0.0403
       138         0.0000     -0.0000     -0.0000      0.0000      0.0000
       139         0.0000     -0.0182     -0.0000      0.0003      0.0002
       140         0.0000      0.0000     -0.0000      0.0000      0.0000
       141         0.7036      0.0000      0.0000      0.4950      0.3223
       142         0.0000      0.0000     -0.0000      0.0000      0.0000
       143         0.0000      0.0000     -0.2906      0.0845      0.0553
       144         0.0000      0.0000      0.0000      0.0000      0.0000
       145        -0.0000      0.0000      0.0000      0.0000      0.0000
       146        -0.0000      0.1593      0.0000      0.0254      0.0169
       147         0.0000      0.0000     -0.3501      0.1226      0.0824
       148         0.0000      0.0000      0.0000      0.0000      0.0000
       149        -0.0000     -0.0000     -0.0000      0.0000      0.0000
       150         0.0000      0.0000      0.3794      0.1439      0.0987
       151         0.0000      0.0000      0.0000      0.0000      0.0000
       152         0.0000      0.0000      0.3462      0.1198      0.0831
       153         0.0000     -0.1481      0.0000      0.0219      0.0152
       154         0.0000      0.0000      0.0000      0.0000      0.0000
       155         0.0000      0.0000      0.0000      0.0000      0.0000
       156        -0.0000     -0.0000      0.0000      0.0000      0.0000
       157         0.0000      0.0000     -0.2403      0.0578      0.0405
       158        -0.0223      0.0000      0.0000      0.0005      0.0003
       159         0.0000     -0.0000      0.0000      0.0000      0.0000
       160         0.0000      0.0000     -0.0000      0.0000      0.0000
       161        -0.0000      0.0000      0.0000      0.0000      0.0000
       162         0.0000      0.0000      0.0000      0.0000      0.0000
       163         0.0000      0.0000     -0.0000      0.0000      0.0000
       164         0.0000     -0.0000      0.0934      0.0087      0.0064
       165        -0.0000      0.0000      0.0000      0.0000      0.0000
       166        -0.0000      0.0000     -0.0000      0.0000      0.0000
       167        -0.1274     -0.0000      0.0000      0.0162      0.0122
       168         0.0566      0.0000     -0.0000      0.0032      0.0024
       169        -0.0000     -0.0000     -0.0000      0.0000      0.0000
       170         0.0000     -0.0000      0.0322      0.0010      0.0008
       171        -0.0000     -0.0000      0.0000      0.0000      0.0000
       172        -0.0000      0.0078      0.0000      0.0001      0.0000
       173        -0.0000     -0.0000      0.0000      0.0000      0.0000
       174        -0.0000     -0.0000     -0.0000      0.0000      0.0000
       175        -0.0000      0.0000     -0.0360      0.0013      0.0010
       176         0.0000     -0.0000      0.0000      0.0000      0.0000
       177        -0.0000      0.0000      0.0000      0.0000      0.0000
       178         0.0000     -0.0534      0.0000      0.0028      0.0022
       179        -0.0000      0.0000      0.0000      0.0000      0.0000
       180         0.0000      0.0000     -0.0000      0.0000      0.0000
       181         0.0000      0.0803      0.0000      0.0065      0.0052
       182         0.0000     -0.1806     -0.0000      0.0326      0.0266
       183        -0.2165     -0.0000      0.0000      0.0469      0.0382
       184        -0.0000      0.0000     -0.0000      0.0000      0.0000
       185         0.0000      0.0000     -0.0000      0.0000      0.0000
       186         0.0000      0.0000      0.1143      0.0131      0.0107
       187         0.0000      0.0000      0.0000      0.0000      0.0000
       188         0.0000     -0.0000     -0.0000      0.0000      0.0000
       189         0.0000      0.0000      0.0000      0.0000      0.0000
       190         0.0000     -0.0000      0.0000      0.0000      0.0000
       191        -0.0000     -0.0000     -0.1511      0.0228      0.0191
       192        -0.0000     -0.0000     -0.0000      0.0000      0.0000
       193         0.0000      0.0000     -0.0000      0.0000      0.0000
       194        -0.0000      0.0000     -0.2888      0.0834      0.0724
       195         0.0000      0.0000     -0.0000      0.0000      0.0000
       196        -0.0000      0.0000     -0.0014      0.0000      0.0000
       197        -0.0000      0.1000     -0.0000      0.0100      0.0087
       198        -0.0000     -0.0000      0.0000      0.0000      0.0000
       199         0.0000      0.0000     -0.0000      0.0000      0.0000
       200         0.0000      0.0000     -0.0000      0.0000      0.0000
       201         0.0000     -0.0000     -0.0000      0.0000      0.0000
       202         0.0000     -0.1922      0.0000      0.0369      0.0331
       203        -0.0949     -0.0000      0.0000      0.0090      0.0081
       204        -0.0000      0.0000     -0.0000      0.0000      0.0000
       205         0.0000      0.0000     -0.2325      0.0541      0.0495
       206        -0.0000      0.0000     -0.0000      0.0000      0.0000
       207         0.0000     -0.0000      0.1790      0.0320      0.0295
       208        -0.0000     -0.0000     -0.0000      0.0000      0.0000
       209         0.0000     -0.0000     -0.0000      0.0000      0.0000
       210        -0.0000      0.0000     -0.0000      0.0000      0.0000
       211         0.0000      0.0000      0.0000      0.0000      0.0000
       212         0.0000     -0.2411     -0.0000      0.0581      0.0554
       213        -0.0000      0.0000     -0.1751      0.0307      0.0295
       214        -0.3861     -0.0000      0.0000      0.1491      0.1436
       215         0.0000     -0.0531     -0.0000      0.0028      0.0027
       216         0.0000      0.0000      0.0000      0.0000      0.0000
       217         0.0000      0.0000     -0.0497      0.0025      0.0024
       218        -0.0000     -0.0000     -0.0000      0.0000      0.0000
       219        -0.0000      0.2886      0.0000      0.0833      0.0826
       220         0.0000      0.0000      0.0000      0.0000      0.0000
       221         0.0000     -0.0000      0.0000      0.0000      0.0000
       222        -0.0611     -0.0000     -0.0000      0.0037      0.0037
       223        -0.0000     -0.0190     -0.0000      0.0004      0.0004
       224        -0.0000      0.0000     -0.0000      0.0000      0.0000
       225         0.0000      0.0000     -0.2167      0.0470      0.0477
       226        -0.0000      0.2138      0.0000      0.0457      0.0471
       227        -0.0000      0.0000     -0.0000      0.0000      0.0000
       228        -0.0000      0.0000      0.0000      0.0000      0.0000
       229        -0.0000      0.0000      0.0000      0.0000      0.0000
       230         0.0000      0.0000      0.1512      0.0229      0.0242
       231         0.0000     -0.0184     -0.0000      0.0003      0.0004
       232         0.0000      0.0000      0.0000      0.0000      0.0000
       233        -0.0000      0.0000     -0.0812      0.0066      0.0072
       234         0.0000      0.0000     -0.0000      0.0000      0.0000
       235         0.0000     -0.0000      0.0000      0.0000      0.0000
       236        -0.0000      0.0000     -0.0000      0.0000      0.0000
       237        -0.0000     -0.5356     -0.0000      0.2868      0.3198
       238        -0.0000      0.0000     -0.0000      0.0000      0.0000
       239         0.0000     -0.0986      0.0000      0.0097      0.0109
       240         0.0000     -0.0000      0.0000      0.0000      0.0000
       241         0.0000     -0.0000     -0.2655      0.0705      0.0796
       242        -0.0000     -0.0000      0.0000      0.0000      0.0000
       243        -0.0000      0.0000      0.0000      0.0000      0.0000
       244        -0.0000     -0.0000     -0.0000      0.0000      0.0000
       245        -0.0000      0.0000      0.0000      0.0000      0.0000
       246        -0.0000     -0.0000      0.0000      0.0000      0.0000
       247         0.0000      0.0000      0.0000      0.0000      0.0000
       248         0.0000     -0.0000     -0.1789      0.0320      0.0381
       249         0.0000     -0.0000     -0.1187      0.0141      0.0168
       250        -0.0000     -0.0000     -0.0000      0.0000      0.0000
       251         0.0000      0.0000     -0.0000      0.0000      0.0000
       252        -0.1699      0.0000      0.0000      0.0289      0.0350
       253        -0.0000      0.0000     -0.0000      0.0000      0.0000
       254         0.0000     -0.0000     -0.0000      0.0000      0.0000
       255         0.0000      0.2308     -0.0000      0.0533      0.0665
       256        -0.0000      0.0000     -0.0000      0.0000      0.0000
       257         0.0000      0.0000      0.2199      0.0484      0.0611
       258        -0.7539      0.0000      0.0000      0.5684      0.7196
       259        -0.0000      0.0615      0.0000      0.0038      0.0048
       260         0.0000      0.0000      0.0000      0.0000      0.0000
       261         0.3081      0.0000      0.0000      0.0949      0.1239
       262         0.0000      0.0000     -0.0911      0.0083      0.0110
       263         0.0000      0.0000     -0.0000      0.0000      0.0000
       264         0.0000      0.0000      0.0000      0.0000      0.0000
       265         0.1266      0.0000     -0.0000      0.0160      0.0215
       266         0.0000      0.0000      0.0883      0.0078      0.0105
       267        -0.0000     -0.0000     -0.0000      0.0000      0.0000
       268         0.0000     -0.0000     -0.0000      0.0000      0.0000
       269         0.0000      0.0000     -0.0000      0.0000      0.0000
       270         0.0000     -0.0000      0.2647      0.0701      0.0980
       271        -0.0000     -0.0000      0.0000      0.0000      0.0000
       272         0.0000      0.0000     -0.0000      0.0000      0.0000
       273        -0.0000     -0.0000     -0.0000      0.0000      0.0000
       274         0.0000     -0.0177     -0.0000      0.0003      0.0004
       275         0.0000     -0.0000     -0.0000      0.0000      0.0000
       276        -0.0000     -0.0000     -0.0000      0.0000      0.0000
       277        -0.3072      0.0000     -0.0000      0.0944      0.1364
       278         0.0000      0.0000     -0.0000      0.0000      0.0000
       279        -0.0000     -0.0000      0.0000      0.0000      0.0000
       280        -0.0000     -0.0000      0.0000      0.0000      0.0000
       281         0.0000     -0.0000      0.0000      0.0000      0.0000
       282         0.4058      0.0000     -0.0000      0.1647      0.2409
       283         0.0000      0.0000     -0.0000      0.0000      0.0000
       284         0.0000      0.0000      0.0000      0.0000      0.0000
       285         0.0000     -0.0000     -0.0000      0.0000      0.0000
       286        -0.0000     -0.2149      0.0000      0.0462      0.0686
       287        -0.0000     -0.0000     -0.0000      0.0000      0.0000
       288         0.0000      0.0000      0.1208      0.0146      0.0220
       289        -0.0000     -0.0109      0.0000      0.0001      0.0002
       290         0.0000     -0.0000     -0.0000      0.0000      0.0000
       291         0.0000      0.0000     -0.0000      0.0000      0.0000
       292         0.0000     -0.0000      0.0000      0.0000      0.0000
       293         0.0000     -0.0000     -0.1377      0.0190      0.0291
       294        -0.0000     -0.0000     -0.0000      0.0000      0.0000
       295        -0.0195     -0.0000     -0.0000      0.0004      0.0006
       296         0.0000     -0.1208      0.0000      0.0146      0.0227
       297         0.0000      0.0000     -0.0000      0.0000      0.0000
       298        -0.0000      0.0298      0.0000      0.0009      0.0014
       299         0.0000     -0.0000      0.0000      0.0000      0.0000
       300        -0.0000     -0.0000      0.0642      0.0041      0.0065
       301         0.3222      0.0000      0.0000      0.1038      0.1652
       302         0.0000     -0.0000     -0.0000      0.0000      0.0000
       303         0.0000     -0.0000      0.0000      0.0000      0.0000
       304         0.0000      0.0000     -0.1562      0.0244      0.0391
       305         0.0000     -0.0000      0.0000      0.0000      0.0000
       306         0.0000     -0.3107      0.0000      0.0965      0.1569
       307        -0.0000      0.0995      0.0000      0.0099      0.0164
       308        -0.0000     -0.0000     -0.0000      0.0000      0.0000
       309         0.0000     -0.0000     -0.0000      0.0000      0.0000
       310        -0.0000      0.0000     -0.0757      0.0057      0.0095
       311         0.0000     -0.0000     -0.0000      0.0000      0.0000
       312         0.0000     -0.0000      0.0000      0.0000      0.0000
       313        -0.0000      0.0000      0.0000      0.0000      0.0000
       314         0.0000     -0.0097      0.0000      0.0001      0.0002
       315        -0.0000      0.0000     -0.0000      0.0000      0.0000
       316        -0.0000     -0.0000      0.0000      0.0000      0.0000
       317        -0.0000     -0.0000     -0.0000      0.0000      0.0000
       318         0.0000     -0.0000      0.0000      0.0000      0.0000
       319        -0.1316      0.0000     -0.0000      0.0173      0.0302
       320        -0.0000     -0.0000     -0.0000      0.0000      0.0000
       321        -0.0000     -0.0000     -0.0000      0.0000      0.0000
       322        -0.0000      0.0000      0.0000      0.0000      0.0000
       323        -0.0000      0.0419      0.0000      0.0018      0.0031
       324        -0.0000      0.0765      0.0000      0.0058      0.0105
       325         0.0000     -0.0000      0.0000      0.0000      0.0000
       326        -0.0000      0.0000     -0.0603      0.0036      0.0065
       327        -0.0309     -0.0000      0.0000      0.0010      0.0017
       328         0.0000      0.0000      0.0000      0.0000      0.0000
       329         0.2258      0.0000     -0.0000      0.0510      0.0922
       330        -0.0000      0.0000      0.0000      0.0000      0.0000
       331        -0.0000     -0.0000      0.0543      0.0030      0.0054
       332        -0.0000      0.0000     -0.2033      0.0413      0.0762
       333        -0.0865     -0.0000      0.0000      0.0075      0.0139
       334        -0.0000      0.0000     -0.0000      0.0000      0.0000
       335        -0.0000     -0.0000     -0.0521      0.0027      0.0051
       336        -0.0000     -0.0000     -0.0000      0.0000      0.0000
       337         0.0000     -0.0000     -0.0000      0.0000      0.0000
       338        -0.0000     -0.0000      0.0000      0.0000      0.0000
       339        -0.0000      0.0000      0.0000      0.0000      0.0000
       340         0.0000      0.0000      0.0000      0.0000      0.0000
       341        -0.0000      0.0000      0.0000      0.0000      0.0000
       342        -0.0000     -0.0362      0.0000      0.0013      0.0025
       343         0.0000      0.0000     -0.0000      0.0000      0.0000
       344         0.0000      0.0771      0.0000      0.0059      0.0116
       345         0.0000      0.0000     -0.0000      0.0000      0.0000
       346        -0.0000      0.0000      0.0000      0.0000      0.0000
       347         0.1326      0.0000     -0.0000      0.0176      0.0355
       348         0.0000      0.0000      0.0000      0.0000      0.0000
       349         0.0000      0.0000     -0.0032      0.0000      0.0000
       350         0.0000      0.0000      0.0000      0.0000      0.0000
       351        -0.0000     -0.0000      0.0000      0.0000      0.0000
       352        -0.0904     -0.0000     -0.0000      0.0082      0.0169
       353         0.0000     -0.0000     -0.0890      0.0079      0.0165
       354         0.0000      0.0000     -0.0000      0.0000      0.0000
       355        -0.0000     -0.0000     -0.0000      0.0000      0.0000
       356        -0.0000     -0.0000      0.0000      0.0000      0.0000
       357        -0.0000      0.0000      0.0000      0.0000      0.0000
       358        -0.0000      0.0000      0.1143      0.0131      0.0279
       359        -0.0000     -0.0000      0.0000      0.0000      0.0000
       360         0.0000     -0.0642      0.0000      0.0041      0.0089
       361        -0.0000      0.1241     -0.0000      0.0154      0.0335
       362        -0.0000     -0.0000     -0.0000      0.0000      0.0000
       363         0.0000      0.1539      0.0000      0.0237      0.0517
       364        -0.0000      0.0000     -0.0613      0.0038      0.0083
       365         0.0000     -0.0000     -0.0000      0.0000      0.0000
       366        -0.0000     -0.0000      0.1190      0.0142      0.0319
       367        -0.0000      0.0000      0.0000      0.0000      0.0000
       368         0.0000     -0.0000      0.0000      0.0000      0.0000
       369         0.0000     -0.0000      0.0000      0.0000      0.0000
       370        -0.0000     -0.0000     -0.0000      0.0000      0.0000
       371         0.0000     -0.0728      0.0000      0.0053      0.0125
       372        -0.0000     -0.0000     -0.0000      0.0000      0.0000
       373         0.0000     -0.0000      0.0239      0.0006      0.0014
       374        -0.0000     -0.1631     -0.0000      0.0266      0.0643
       375         0.0000     -0.0000     -0.0000      0.0000      0.0000
       376        -0.0000      0.0000     -0.0000      0.0000      0.0000
       377         0.0000     -0.0000     -0.0597      0.0036      0.0088
       378         0.0000      0.0000      0.0000      0.0000      0.0000
       379        -0.0000      0.0000      0.0000      0.0000      0.0000
       380         0.0000     -0.0000      0.0000      0.0000      0.0000
       381         0.0000      0.0000      0.0800      0.0064      0.0166
       382         0.0000      0.0000      0.0682      0.0047      0.0122
       383        -0.0000     -0.0004     -0.0000      0.0000      0.0000
       384         0.0000      0.0000      0.0000      0.0000      0.0000
 Ground to excited state transition velocity dipole moments (Au):
       state          X           Y           Z        Dip. S.      Osc.
         1         0.0000     -0.0000      0.4101      0.1682      0.3866
         2         0.2167      0.0000     -0.0000      0.0470      0.1052
         3         0.0000      0.0000      0.0000      0.0000      0.0000
         4         0.0000      0.0000     -0.0000      0.0000      0.0000
         5         0.0000     -0.0000     -0.0000      0.0000      0.0000
         6        -0.0000      0.0000      0.0000      0.0000      0.0000
         7         0.0000     -0.0000      0.0000      0.0000      0.0000
         8         0.2385      0.0000      0.0000      0.0569      0.0974
         9         0.0000      0.3213      0.0000      0.1032      0.1696
        10        -0.0000     -0.0000      0.0000      0.0000      0.0000
        11         0.0000      0.0000      0.0000      0.0000      0.0000
[...]
     10   0.000000D+00  0.000000D+00  0.255356D+00  0.000000D+00  0.000000D+00
     11   0.000000D+00  0.000000D+00  0.000000D+00  0.000000D+00  0.283898D-01
     12   0.000000D+00  0.000000D+00  0.000000D+00  0.000000D+00  0.153112D+00
     13   0.000000D+00  0.000000D+00  0.000000D+00  0.000000D+00  0.243982D+00
     14   0.000000D+00  0.000000D+00 -0.908134D+00  0.000000D+00  0.000000D+00
     15   0.000000D+00 -0.921986D-01  0.000000D+00  0.000000D+00  0.000000D+00
     16  -0.421258D+00  0.000000D+00  0.000000D+00  0.000000D+00  0.000000D+00
               316           317           318           319           320 
      1  -0.757127D+02 -0.756943D+02 -0.756719D+02 -0.756521D+02 -0.756021D+02
      2   0.000000D+00  0.000000D+00  0.000000D+00 -0.131568D+00  0.000000D+00
      3   0.000000D+00  0.000000D+00  0.000000D+00  0.000000D+00  0.000000D+00
      4   0.000000D+00  0.000000D+00  0.000000D+00  0.000000D+00  0.000000D+00
      5   0.000000D+00  0.000000D+00  0.000000D+00  0.300577D+00  0.000000D+00
      6   0.000000D+00  0.000000D+00  0.000000D+00  0.000000D+00  0.000000D+00
      7   0.000000D+00  0.000000D+00  0.000000D+00  0.000000D+00  0.000000D+00
      8   0.000000D+00  0.000000D+00  0.000000D+00  0.000000D+00  0.000000D+00
      9  -0.104693D+00  0.000000D+00 -0.300281D+00  0.000000D+00  0.000000D+00
     10   0.000000D+00  0.000000D+00  0.000000D+00  0.000000D+00  0.000000D+00
     11   0.000000D+00  0.000000D+00  0.000000D+00  0.000000D+00 -0.417812D+00
     12   0.000000D+00  0.000000D+00  0.000000D+00  0.000000D+00 -0.384741D-01
     13   0.000000D+00  0.000000D+00  0.000000D+00  0.000000D+00  0.690575D-01
     14   0.000000D+00  0.000000D+00  0.000000D+00  0.000000D+00  0.000000D+00
     15  -0.249257D+00  0.000000D+00 -0.504456D+00  0.000000D+00  0.000000D+00
     16   0.000000D+00  0.000000D+00  0.000000D+00  0.000000D+00  0.000000D+00
               321           322           323           324           325 
      1  -0.755896D+02 -0.755811D+02 -0.755793D+02 -0.755776D+02 -0.755774D+02
      2   0.000000D+00  0.000000D+00  0.000000D+00  0.000000D+00  0.000000D+00
      3   0.000000D+00  0.000000D+00  0.418845D-01  0.764719D-01  0.000000D+00
      4   0.000000D+00  0.000000D+00  0.000000D+00  0.000000D+00  0.000000D+00
      5   0.000000D+00  0.000000D+00  0.000000D+00  0.000000D+00  0.000000D+00
      6   0.000000D+00  0.000000D+00 -0.550336D-01 -0.146844D+00  0.000000D+00
      7   0.000000D+00  0.000000D+00  0.000000D+00  0.000000D+00  0.000000D+00
      8  -0.578923D+00  0.000000D+00  0.000000D+00  0.000000D+00  0.406822D+00
      9   0.000000D+00  0.000000D+00  0.000000D+00  0.000000D+00  0.000000D+00
     10   0.000000D+00  0.000000D+00  0.000000D+00  0.000000D+00  0.000000D+00
     11   0.000000D+00 -0.165179D+00  0.000000D+00  0.000000D+00  0.000000D+00
     12   0.000000D+00 -0.406340D+00  0.000000D+00  0.000000D+00  0.000000D+00
     13   0.000000D+00 -0.482513D+00  0.000000D+00  0.000000D+00  0.000000D+00
     14   0.000000D+00  0.000000D+00  0.000000D+00  0.000000D+00  0.000000D+00
     15   0.000000D+00  0.000000D+00  0.000000D+00  0.000000D+00  0.000000D+00
     16   0.341706D+00  0.000000D+00  0.000000D+00  0.000000D+00 -0.779892D-01
               326           327           328           329           330 
      1  -0.755763D+02 -0.755618D+02 -0.755561D+02 -0.755554D+02 -0.755273D+02
      2   0.000000D+00 -0.308731D-01  0.000000D+00  0.225765D+00  0.000000D+00
      3   0.000000D+00  0.000000D+00  0.000000D+00  0.000000D+00  0.000000D+00
      4  -0.602931D-01  0.000000D+00  0.000000D+00  0.000000D+00  0.000000D+00
      5   0.000000D+00  0.767469D-01  0.000000D+00 -0.486555D+00  0.000000D+00
      6   0.000000D+00  0.000000D+00  0.000000D+00  0.000000D+00  0.000000D+00
      7   0.114355D+00  0.000000D+00  0.000000D+00  0.000000D+00  0.000000D+00
      8   0.000000D+00  0.000000D+00  0.000000D+00  0.000000D+00 -0.364879D+00
      9   0.000000D+00  0.000000D+00  0.000000D+00  0.000000D+00  0.000000D+00
     10   0.000000D+00  0.000000D+00  0.000000D+00  0.000000D+00  0.000000D+00
     11   0.000000D+00  0.000000D+00  0.000000D+00  0.000000D+00  0.000000D+00
     12   0.000000D+00  0.000000D+00  0.000000D+00  0.000000D+00  0.000000D+00
     13   0.000000D+00  0.000000D+00  0.000000D+00  0.000000D+00  0.000000D+00
     14   0.000000D+00  0.000000D+00  0.000000D+00  0.000000D+00  0.000000D+00
     15   0.000000D+00  0.000000D+00  0.000000D+00  0.000000D+00  0.000000D+00
     16   0.000000D+00  0.000000D+00  0.000000D+00  0.000000D+00 -0.935692D-01
               331           332           333           334           335 
      1  -0.755194D+02 -0.755046D+02 -0.754789D+02 -0.754759D+02 -0.754568D+02
      2   0.000000D+00  0.000000D+00 -0.865452D-01  0.000000D+00  0.000000D+00
      3   0.000000D+00  0.000000D+00  0.000000D+00  0.000000D+00  0.000000D+00
      4   0.543269D-01 -0.203310D+00  0.000000D+00  0.000000D+00 -0.521058D-01
      5   0.000000D+00  0.000000D+00  0.220468D+00  0.000000D+00  0.000000D+00
      6   0.000000D+00  0.000000D+00  0.000000D+00  0.000000D+00  0.000000D+00
      7  -0.144981D+00  0.491693D+00  0.000000D+00  0.000000D+00  0.161611D+00
      8   0.000000D+00  0.000000D+00  0.000000D+00 -0.265682D+00  0.000000D+00
      9   0.000000D+00  0.000000D+00  0.000000D+00  0.000000D+00  0.000000D+00
     10   0.000000D+00  0.000000D+00  0.000000D+00  0.000000D+00  0.000000D+00
     11   0.000000D+00  0.000000D+00  0.000000D+00  0.000000D+00  0.000000D+00
     12   0.000000D+00  0.000000D+00  0.000000D+00  0.000000D+00  0.000000D+00
     13   0.000000D+00  0.000000D+00  0.000000D+00  0.000000D+00  0.000000D+00
     14   0.000000D+00  0.000000D+00  0.000000D+00  0.000000D+00  0.000000D+00
     15   0.000000D+00  0.000000D+00  0.000000D+00  0.000000D+00  0.000000D+00
     16   0.000000D+00  0.000000D+00  0.000000D+00 -0.173732D+00  0.000000D+00
               336           337           338           339           340 
      1  -0.754331D+02 -0.754290D+02 -0.754147D+02 -0.753901D+02 -0.753710D+02
      2   0.000000D+00  0.000000D+00  0.000000D+00  0.000000D+00  0.000000D+00
      3   0.000000D+00  0.000000D+00  0.000000D+00  0.000000D+00  0.000000D+00
      4   0.000000D+00  0.000000D+00  0.000000D+00  0.000000D+00  0.000000D+00
      5   0.000000D+00  0.000000D+00  0.000000D+00  0.000000D+00  0.000000D+00
      6   0.000000D+00  0.000000D+00  0.000000D+00  0.000000D+00  0.000000D+00
      7   0.000000D+00  0.000000D+00  0.000000D+00  0.000000D+00  0.000000D+00
      8   0.163726D+00  0.000000D+00  0.000000D+00  0.000000D+00  0.000000D+00
      9   0.000000D+00  0.000000D+00  0.000000D+00  0.000000D+00 -0.109103D+00
     10   0.000000D+00  0.000000D+00  0.159200D+00  0.000000D+00  0.000000D+00
     11   0.000000D+00  0.000000D+00  0.000000D+00  0.360629D-01  0.000000D+00
     12   0.000000D+00  0.000000D+00  0.000000D+00  0.663092D+00  0.000000D+00
     13   0.000000D+00  0.000000D+00  0.000000D+00  0.379518D+00  0.000000D+00
     14   0.000000D+00  0.000000D+00 -0.605098D+00  0.000000D+00  0.000000D+00
     15   0.000000D+00  0.000000D+00  0.000000D+00  0.000000D+00 -0.544456D+00
     16  -0.291228D+00  0.000000D+00  0.000000D+00  0.000000D+00  0.000000D+00
               341           342           343           344           345 
      1  -0.753629D+02 -0.753494D+02 -0.753379D+02 -0.753331D+02 -0.753227D+02
      2   0.000000D+00  0.000000D+00  0.000000D+00  0.000000D+00  0.000000D+00
      3   0.000000D+00 -0.361680D-01  0.000000D+00  0.771095D-01  0.000000D+00
      4   0.000000D+00  0.000000D+00  0.000000D+00  0.000000D+00  0.000000D+00
      5   0.000000D+00  0.000000D+00  0.000000D+00  0.000000D+00  0.000000D+00
      6   0.000000D+00  0.107772D+00  0.000000D+00 -0.216186D+00  0.000000D+00
      7   0.000000D+00  0.000000D+00  0.000000D+00  0.000000D+00  0.000000D+00
      8   0.000000D+00  0.000000D+00  0.000000D+00  0.000000D+00  0.000000D+00
      9   0.000000D+00  0.000000D+00  0.605216D+00  0.000000D+00  0.000000D+00
     10   0.109270D+00  0.000000D+00  0.000000D+00  0.000000D+00  0.000000D+00
     11   0.000000D+00  0.000000D+00  0.000000D+00  0.000000D+00 -0.422615D-01
     12   0.000000D+00  0.000000D+00  0.000000D+00  0.000000D+00 -0.411813D+00
     13   0.000000D+00  0.000000D+00  0.000000D+00  0.000000D+00  0.154747D+01
     14   0.107253D+00  0.000000D+00  0.000000D+00  0.000000D+00  0.000000D+00
     15   0.000000D+00  0.000000D+00  0.994313D+00  0.000000D+00  0.000000D+00
     16   0.000000D+00  0.000000D+00  0.000000D+00  0.000000D+00  0.000000D+00
               346           347           348           349           350 
      1  -0.752949D+02 -0.752398D+02 -0.752393D+02 -0.752268D+02 -0.751747D+02
      2   0.000000D+00  0.132629D+00  0.000000D+00  0.000000D+00  0.000000D+00
      3   0.000000D+00  0.000000D+00  0.000000D+00  0.000000D+00  0.000000D+00
      4   0.000000D+00  0.000000D+00  0.000000D+00 -0.319602D-02  0.000000D+00
      5   0.000000D+00 -0.312121D+00  0.000000D+00  0.000000D+00  0.000000D+00
      6   0.000000D+00  0.000000D+00  0.000000D+00  0.000000D+00  0.000000D+00
      7   0.000000D+00  0.000000D+00  0.000000D+00  0.211817D-01  0.000000D+00
      8   0.000000D+00  0.000000D+00  0.000000D+00  0.000000D+00 -0.222270D+00
      9   0.000000D+00  0.000000D+00  0.000000D+00  0.000000D+00  0.000000D+00
     10   0.000000D+00  0.000000D+00  0.110982D+00  0.000000D+00  0.000000D+00
     11   0.000000D+00  0.000000D+00  0.000000D+00  0.000000D+00  0.000000D+00
     12   0.000000D+00  0.000000D+00  0.000000D+00  0.000000D+00  0.000000D+00
     13   0.000000D+00  0.000000D+00  0.000000D+00  0.000000D+00  0.000000D+00
     14   0.000000D+00  0.000000D+00 -0.218087D+00  0.000000D+00  0.000000D+00
     15   0.000000D+00  0.000000D+00  0.000000D+00  0.000000D+00  0.000000D+00
     16   0.000000D+00  0.000000D+00  0.000000D+00  0.000000D+00 -0.155067D+00
               351           352           353           354           355 
      1  -0.751695D+02 -0.751634D+02 -0.751515D+02 -0.751442D+02 -0.751106D+02
      2   0.000000D+00 -0.904294D-01  0.000000D+00  0.000000D+00  0.000000D+00
      3   0.000000D+00  0.000000D+00  0.000000D+00  0.000000D+00  0.000000D+00
      4   0.000000D+00  0.000000D+00 -0.890186D-01  0.000000D+00  0.000000D+00
      5   0.000000D+00  0.229762D+00  0.000000D+00  0.000000D+00  0.000000D+00
      6   0.000000D+00  0.000000D+00  0.000000D+00  0.000000D+00  0.000000D+00
      7   0.000000D+00  0.000000D+00  0.220587D+00  0.000000D+00  0.000000D+00
      8   0.000000D+00  0.000000D+00  0.000000D+00 -0.296113D+00  0.000000D+00
      9   0.000000D+00  0.000000D+00  0.000000D+00  0.000000D+00 -0.553759D+00
     10  -0.326639D-01  0.000000D+00  0.000000D+00  0.000000D+00  0.000000D+00
     11   0.000000D+00  0.000000D+00  0.000000D+00  0.000000D+00  0.000000D+00
     12   0.000000D+00  0.000000D+00  0.000000D+00  0.000000D+00  0.000000D+00
     13   0.000000D+00  0.000000D+00  0.000000D+00  0.000000D+00  0.000000D+00
     14  -0.281279D+00  0.000000D+00  0.000000D+00  0.000000D+00  0.000000D+00
     15   0.000000D+00  0.000000D+00  0.000000D+00  0.000000D+00 -0.754586D+00
     16   0.000000D+00  0.000000D+00  0.000000D+00  0.428187D+00  0.000000D+00
               356           357           358           359           360 
      1  -0.750792D+02 -0.750790D+02 -0.750598D+02 -0.750380D+02 -0.750260D+02
      2   0.000000D+00  0.000000D+00  0.000000D+00  0.000000D+00  0.000000D+00
      3   0.000000D+00  0.000000D+00  0.000000D+00  0.000000D+00 -0.641583D-01
      4   0.000000D+00  0.000000D+00  0.114270D+00  0.000000D+00  0.000000D+00
      5   0.000000D+00  0.000000D+00  0.000000D+00  0.000000D+00  0.000000D+00
      6   0.000000D+00  0.000000D+00  0.000000D+00  0.000000D+00  0.138301D+00
      7   0.000000D+00  0.000000D+00 -0.312233D+00  0.000000D+00  0.000000D+00
      8   0.000000D+00  0.000000D+00  0.000000D+00  0.000000D+00  0.000000D+00
      9   0.000000D+00  0.000000D+00  0.000000D+00  0.000000D+00  0.000000D+00
     10   0.000000D+00  0.000000D+00  0.000000D+00  0.000000D+00  0.000000D+00
     11   0.126375D+00  0.000000D+00  0.000000D+00 -0.113722D+00  0.000000D+00
     12  -0.290955D+00  0.000000D+00  0.000000D+00  0.285281D+00  0.000000D+00
     13   0.770447D-01  0.000000D+00  0.000000D+00 -0.583906D+00  0.000000D+00
     14   0.000000D+00  0.000000D+00  0.000000D+00  0.000000D+00  0.000000D+00
     15   0.000000D+00  0.000000D+00  0.000000D+00  0.000000D+00  0.000000D+00
     16   0.000000D+00  0.000000D+00  0.000000D+00  0.000000D+00  0.000000D+00
               361           362           363           364           365 
      1  -0.750066D+02 -0.750007D+02 -0.749942D+02 -0.749384D+02 -0.749351D+02
      2   0.000000D+00  0.000000D+00  0.000000D+00  0.000000D+00  0.000000D+00
      3   0.124055D+00  0.000000D+00  0.153867D+00  0.000000D+00  0.000000D+00
      4   0.000000D+00  0.000000D+00  0.000000D+00 -0.613088D-01  0.000000D+00
      5   0.000000D+00  0.000000D+00  0.000000D+00  0.000000D+00  0.000000D+00
      6  -0.320680D+00  0.000000D+00 -0.426391D+00  0.000000D+00  0.000000D+00
      7   0.000000D+00  0.000000D+00  0.000000D+00  0.149365D+00  0.000000D+00
      8   0.000000D+00  0.000000D+00  0.000000D+00  0.000000D+00  0.000000D+00
      9   0.000000D+00 -0.814226D-01  0.000000D+00  0.000000D+00  0.000000D+00
     10   0.000000D+00  0.000000D+00  0.000000D+00  0.000000D+00  0.000000D+00
     11   0.000000D+00  0.000000D+00  0.000000D+00  0.000000D+00 -0.180358D+00
     12   0.000000D+00  0.000000D+00  0.000000D+00  0.000000D+00 -0.138102D+00
     13   0.000000D+00  0.000000D+00  0.000000D+00  0.000000D+00 -0.710469D+00
     14   0.000000D+00  0.000000D+00  0.000000D+00  0.000000D+00  0.000000D+00
     15   0.000000D+00 -0.615317D-01  0.000000D+00  0.000000D+00  0.000000D+00
     16   0.000000D+00  0.000000D+00  0.000000D+00  0.000000D+00  0.000000D+00
               366           367           368           369           370 
      1  -0.748920D+02 -0.748847D+02 -0.748449D+02 -0.748300D+02 -0.747599D+02
      2   0.000000D+00  0.000000D+00  0.000000D+00  0.000000D+00  0.000000D+00
      3   0.000000D+00  0.000000D+00  0.000000D+00  0.000000D+00  0.000000D+00
      4   0.118982D+00  0.000000D+00  0.000000D+00  0.000000D+00  0.000000D+00
      5   0.000000D+00  0.000000D+00  0.000000D+00  0.000000D+00  0.000000D+00
      6   0.000000D+00  0.000000D+00  0.000000D+00  0.000000D+00  0.000000D+00
      7  -0.335144D+00  0.000000D+00  0.000000D+00  0.000000D+00  0.000000D+00
      8   0.000000D+00  0.837829D-01  0.000000D+00 -0.113540D+00  0.000000D+00
      9   0.000000D+00  0.000000D+00 -0.402691D+00  0.000000D+00  0.000000D+00
     10   0.000000D+00  0.000000D+00  0.000000D+00  0.000000D+00  0.000000D+00
     11   0.000000D+00  0.000000D+00  0.000000D+00  0.000000D+00 -0.363261D+00
     12   0.000000D+00  0.000000D+00  0.000000D+00  0.000000D+00  0.247276D+00
     13   0.000000D+00  0.000000D+00  0.000000D+00  0.000000D+00  0.853112D+00
     14   0.000000D+00  0.000000D+00  0.000000D+00  0.000000D+00  0.000000D+00
     15   0.000000D+00  0.000000D+00 -0.370564D+00  0.000000D+00  0.000000D+00
     16   0.000000D+00 -0.311628D+00  0.000000D+00 -0.810032D-01  0.000000D+00
               371           372           373           374           375 
      1  -0.747335D+02 -0.747212D+02 -0.746788D+02 -0.746465D+02 -0.746167D+02
      2   0.000000D+00  0.000000D+00  0.000000D+00  0.000000D+00  0.000000D+00
      3  -0.728305D-01  0.000000D+00  0.000000D+00 -0.163097D+00  0.000000D+00
      4   0.000000D+00  0.000000D+00  0.239160D-01  0.000000D+00  0.000000D+00
      5   0.000000D+00  0.000000D+00  0.000000D+00  0.000000D+00  0.000000D+00
      6   0.233440D+00  0.000000D+00  0.000000D+00  0.475486D+00  0.000000D+00
      7   0.000000D+00  0.000000D+00 -0.939297D-01  0.000000D+00  0.000000D+00
      8   0.000000D+00  0.000000D+00  0.000000D+00  0.000000D+00  0.000000D+00
      9   0.000000D+00  0.000000D+00  0.000000D+00  0.000000D+00  0.000000D+00
     10   0.000000D+00  0.000000D+00  0.000000D+00  0.000000D+00  0.000000D+00
     11   0.000000D+00 -0.157061D+00  0.000000D+00  0.000000D+00  0.000000D+00
     12   0.000000D+00  0.222023D+00  0.000000D+00  0.000000D+00  0.000000D+00
     13   0.000000D+00 -0.661272D+00  0.000000D+00  0.000000D+00  0.000000D+00
     14   0.000000D+00  0.000000D+00  0.000000D+00  0.000000D+00  0.000000D+00
     15   0.000000D+00  0.000000D+00  0.000000D+00  0.000000D+00  0.000000D+00
     16   0.000000D+00  0.000000D+00  0.000000D+00  0.000000D+00  0.000000D+00
               376           377           378           379           380 
      1  -0.746138D+02 -0.745847D+02 -0.745004D+02 -0.744897D+02 -0.744483D+02
      2   0.000000D+00  0.000000D+00  0.000000D+00  0.000000D+00  0.000000D+00
      3   0.000000D+00  0.000000D+00  0.000000D+00  0.000000D+00  0.000000D+00
      4   0.000000D+00 -0.596816D-01  0.000000D+00  0.000000D+00  0.000000D+00
      5   0.000000D+00  0.000000D+00  0.000000D+00  0.000000D+00  0.000000D+00
      6   0.000000D+00  0.000000D+00  0.000000D+00  0.000000D+00  0.000000D+00
      7   0.000000D+00  0.179727D+00  0.000000D+00  0.000000D+00  0.000000D+00
      8  -0.227754D+00  0.000000D+00  0.000000D+00  0.000000D+00  0.655759D+00
      9   0.000000D+00  0.000000D+00  0.000000D+00  0.000000D+00  0.000000D+00
     10   0.000000D+00  0.000000D+00  0.000000D+00  0.000000D+00  0.000000D+00
     11   0.000000D+00  0.000000D+00 -0.120763D+00 -0.101888D+00  0.000000D+00
     12   0.000000D+00  0.000000D+00 -0.469169D-01 -0.469431D-01  0.000000D+00
     13   0.000000D+00  0.000000D+00 -0.364364D+00 -0.582409D+00  0.000000D+00
     14   0.000000D+00  0.000000D+00  0.000000D+00  0.000000D+00  0.000000D+00
     15   0.000000D+00  0.000000D+00  0.000000D+00  0.000000D+00  0.000000D+00
     16   0.439504D+00  0.000000D+00  0.000000D+00  0.000000D+00 -0.781855D+00
               381           382           383           384 
      1  -0.743811D+02 -0.743275D+02 -0.742642D+02 -0.740976D+02
      2   0.000000D+00  0.000000D+00  0.000000D+00  0.000000D+00
      3   0.000000D+00  0.000000D+00 -0.356724D-03  0.000000D+00
      4   0.799560D-01  0.681967D-01  0.000000D+00  0.000000D+00
      5   0.000000D+00  0.000000D+00  0.000000D+00  0.000000D+00
      6   0.000000D+00  0.000000D+00 -0.222882D-01  0.000000D+00
      7  -0.283756D+00 -0.215006D+00  0.000000D+00  0.000000D+00
      8   0.000000D+00  0.000000D+00  0.000000D+00 -0.309019D+00
      9   0.000000D+00  0.000000D+00  0.000000D+00  0.000000D+00
     10   0.000000D+00  0.000000D+00  0.000000D+00  0.000000D+00
     11   0.000000D+00  0.000000D+00  0.000000D+00  0.000000D+00
     12   0.000000D+00  0.000000D+00  0.000000D+00  0.000000D+00
     13   0.000000D+00  0.000000D+00  0.000000D+00  0.000000D+00
     14   0.000000D+00  0.000000D+00  0.000000D+00  0.000000D+00
     15   0.000000D+00  0.000000D+00  0.000000D+00  0.000000D+00
     16   0.000000D+00  0.000000D+00  0.000000D+00  0.349748D+00
 Unable to Open any file for archive entry.
 1\1\GINC-HEL24\SP\RLC-BLYP TD-FC\Gen\C2H4\SABYASACHI\21-Mar-2022\0\\#P
  TD(Nstates=10000) lc-blyp/Gen SCF(maxcycles=100) Int(Grid=ultrafine)\
 \xGDB7_00001_tier4.com\\0,1\C,0,0.,0.,0.660866\C,0,0.,0.,-0.660866\H,0
 ,0.,0.922586,1.229258\H,0,0.,-0.922586,1.229258\H,0,0.,0.922586,-1.229
 258\H,0,0.,-0.922586,-1.229258\\Version=EM64L-G16RevC.01\State=1-AG\HF
 =-78.2701044\RMSD=2.536e-09\PG=D02H [C2"(C1.C1),SG(H4)]\\@
 The archive entry for this job was punched.


 EVERYTHING'S GOT A MORAL, IF ONLY YOU CAN FIND IT.

                                    -- LEWIS CARROL, ALICE IN WONDERLAND
 Job cpu time:       0 days  0 hours  0 minutes 58.4 seconds.
 Elapsed time:       0 days  0 hours  0 minutes  7.6 seconds.
 File lengths (MBytes):  RWF=    194 Int=      0 D2E=      0 Chk=     49 Scr=      1
 Normal termination of Gaussian 16 at Mon Mar 21 20:15:18 2022.
