 Entering Gaussian System, Link 0=g16
 Input=000016.com
 Output=000016.log
 Initial command:
 /home/sabyasachi/g16/l1.exe "/scratch/sabyasachi/PBS_7976084.helios/Gau-155232.inp" -scrdir="/scratch/sabyasachi/PBS_7976084.helios/"
 Entering Link 1 = /home/sabyasachi/g16/l1.exe PID=    155233.
  
 Copyright (c) 1988-2019, Gaussian, Inc.  All Rights Reserved.
  
 This is part of the Gaussian(R) 16 program.  It is based on
 the Gaussian(R) 09 system (copyright 2009, Gaussian, Inc.),
 the Gaussian(R) 03 system (copyright 2003, Gaussian, Inc.),
 the Gaussian(R) 98 system (copyright 1998, Gaussian, Inc.),
 the Gaussian(R) 94 system (copyright 1995, Gaussian, Inc.),
 the Gaussian 92(TM) system (copyright 1992, Gaussian, Inc.),
 the Gaussian 90(TM) system (copyright 1990, Gaussian, Inc.),
 the Gaussian 88(TM) system (copyright 1988, Gaussian, Inc.),
 the Gaussian 86(TM) system (copyright 1986, Carnegie Mellon
 University), and the Gaussian 82(TM) system (copyright 1983,
 Carnegie Mellon University). Gaussian is a federally registered
 trademark of Gaussian, Inc.
  
 This software contains proprietary and confidential information,
 including trade secrets, belonging to Gaussian, Inc.
  
 This software is provided under written license and may be
 used, copied, transmitted, or stored only in accord with that
 written license.
  
 The following legend is applicable only to US Government
 contracts under FAR:
  
                    RESTRICTED RIGHTS LEGEND
  
 Use, reproduction and disclosure by the US Government is
 subject to restrictions as set forth in subparagraphs (a)
 and (c) of the Commercial Computer Software - Restricted
 Rights clause in FAR 52.227-19.
  
 Gaussian, Inc.
 340 Quinnipiac St., Bldg. 40, Wallingford CT 06492
  
  
 ---------------------------------------------------------------
 Warning -- This program may not be used in any manner that
 competes with the business of Gaussian, Inc. or will provide
 assistance to any competitor of Gaussian, Inc.  The licensee
 of this program is prohibited from giving any competitor of
 Gaussian, Inc. access to this program.  By using this program,
 the user acknowledges that Gaussian, Inc. is engaged in the
 business of creating and licensing software in the field of
 computational chemistry and represents and warrants to the
 licensee that it is not a competitor of Gaussian, Inc. and that
 it will not use this program in any manner prohibited above.
 ---------------------------------------------------------------
  

 Cite this work as:
 Gaussian 16, Revision C.01,
 M. J. Frisch, G. W. Trucks, H. B. Schlegel, G. E. Scuseria, 
 M. A. Robb, J. R. Cheeseman, G. Scalmani, V. Barone, 
 G. A. Petersson, H. Nakatsuji, X. Li, M. Caricato, A. V. Marenich, 
 J. Bloino, B. G. Janesko, R. Gomperts, B. Mennucci, H. P. Hratchian, 
 J. V. Ortiz, A. F. Izmaylov, J. L. Sonnenberg, D. Williams-Young, 
 F. Ding, F. Lipparini, F. Egidi, J. Goings, B. Peng, A. Petrone, 
 T. Henderson, D. Ranasinghe, V. G. Zakrzewski, J. Gao, N. Rega, 
 G. Zheng, W. Liang, M. Hada, M. Ehara, K. Toyota, R. Fukuda, 
 J. Hasegawa, M. Ishida, T. Nakajima, Y. Honda, O. Kitao, H. Nakai, 
 T. Vreven, K. Throssell, J. A. Montgomery, Jr., J. E. Peralta, 
 F. Ogliaro, M. J. Bearpark, J. J. Heyd, E. N. Brothers, K. N. Kudin, 
 V. N. Staroverov, T. A. Keith, R. Kobayashi, J. Normand, 
 K. Raghavachari, A. P. Rendell, J. C. Burant, S. S. Iyengar, 
 J. Tomasi, M. Cossi, J. M. Millam, M. Klene, C. Adamo, R. Cammi, 
 J. W. Ochterski, R. L. Martin, K. Morokuma, O. Farkas, 
 J. B. Foresman, and D. J. Fox, Gaussian, Inc., Wallingford CT, 2019.
 
 ******************************************
 Gaussian 16:  EM64L-G16RevC.01  3-Jul-2019
                21-Mar-2022 
 ******************************************
 %mem=64gb
 %nproc=8
 Will use up to    8 processors via shared memory.
 ---------------------------------------------------------------------
 #P TD(Nstates=10000) tpssh/Gen SCF(maxcycles=100) Int(Grid=ultrafine)
 ---------------------------------------------------------------------
 1/38=1,172=1/1;
 2/12=2,17=6,18=5,40=1/2;
 3/5=7,11=9,25=1,30=1,74=-35,75=-5/1,2,3,8;
 4//1;
 5/5=2,7=100,38=5/2;
 8/6=1,10=1,108=10000/1;
 9/41=10000,42=1,70=2/14;
 6/7=2,8=2,9=2,10=2/1;
 99/5=1,9=1/99;
 Leave Link    1 at Mon Mar 21 20:08:51 2022, MaxMem=  8589934592 cpu:               0.4 elap:               0.1
 (Enter /home/sabyasachi/g16/l101.exe)
 ---------------------
 xGDB7_00001_tier4.com
 ---------------------
 Symbolic Z-matrix:
 Charge =  0 Multiplicity = 1
 6                    -1.20842  -0.23907  -0.02192 
 6                     0.08389   0.55345   0.04673 
 8                     1.23347  -0.256    -0.10586 
 1                    -2.072     0.42514   0.0517 
 1                    -1.27067  -0.95776   0.79973 
 1                    -1.27063  -0.78828  -0.96233 
 1                     0.13003   1.1192    0.98611 
 1                     0.12595   1.27703  -0.76855 
 1                     1.23675  -0.91361   0.59134 
 
 ITRead=  0  0  0  0  0  0  0  0  0
 MicOpt= -1 -1 -1 -1 -1 -1 -1 -1 -1
 NAtoms=      9 NQM=        9 NQMF=       0 NMMI=      0 NMMIF=      0
                NMic=       0 NMicF=      0.
                    Isotopes and Nuclear Properties:
 (Nuclear quadrupole moments (NQMom) in fm**2, nuclear magnetic moments (NMagM)
  in nuclear magnetons)

  Atom         1           2           3           4           5           6           7           8           9
 IAtWgt=          12          12          16           1           1           1           1           1           1
 AtmWgt=  12.0000000  12.0000000  15.9949146   1.0078250   1.0078250   1.0078250   1.0078250   1.0078250   1.0078250
 NucSpn=           0           0           0           1           1           1           1           1           1
 AtZEff=  -0.0000000  -0.0000000  -0.0000000  -0.0000000  -0.0000000  -0.0000000  -0.0000000  -0.0000000  -0.0000000
 NQMom=    0.0000000   0.0000000   0.0000000   0.0000000   0.0000000   0.0000000   0.0000000   0.0000000   0.0000000
 NMagM=    0.0000000   0.0000000   0.0000000   2.7928460   2.7928460   2.7928460   2.7928460   2.7928460   2.7928460
 AtZNuc=   6.0000000   6.0000000   8.0000000   1.0000000   1.0000000   1.0000000   1.0000000   1.0000000   1.0000000
 Leave Link  101 at Mon Mar 21 20:08:51 2022, MaxMem=  8589934592 cpu:               0.6 elap:               0.1
 (Enter /home/sabyasachi/g16/l202.exe)
                          Input orientation:                          
 ---------------------------------------------------------------------
 Center     Atomic      Atomic             Coordinates (Angstroms)
 Number     Number       Type             X           Y           Z
 ---------------------------------------------------------------------
      1          6           0       -1.208422   -0.239069   -0.021917
      2          6           0        0.083893    0.553452    0.046734
      3          8           0        1.233467   -0.256002   -0.105864
      4          1           0       -2.071999    0.425136    0.051700
      5          1           0       -1.270670   -0.957756    0.799731
      6          1           0       -1.270625   -0.788280   -0.962327
      7          1           0        0.130030    1.119197    0.986112
      8          1           0        0.125952    1.277026   -0.768547
      9          1           0        1.236751   -0.913605    0.591341
 ---------------------------------------------------------------------
                    Distance matrix (angstroms):
                    1          2          3          4          5
     1  C    0.000000
     2  C    1.517524   0.000000
     3  O    2.443390   1.414221   0.000000
     4  H    1.091949   2.159713   3.378592   0.000000
     5  H    1.093385   2.164624   2.753773   1.764672   0.000000
     6  H    1.090813   2.157120   2.699505   1.772803   1.770189
     7  H    2.156957   1.097555   2.073923   2.490738   2.512057
     8  H    2.153266   1.090876   2.003974   2.495899   3.066643
     9  H    2.609589   1.943691   0.958409   3.609885   2.516453
                    6          7          8          9
     6  H    0.000000
     7  H    3.065407   0.000000
     8  H    2.500693   1.761748   0.000000
     9  H    2.952376   2.347969   2.807496   0.000000
 Stoichiometry    C2H6O
 Framework group  C1[X(C2H6O)]
 Deg. of freedom    21
 Full point group                 C1      NOp   1
 Largest Abelian subgroup         C1      NOp   1
 Largest concise Abelian subgroup C1      NOp   1
                         Standard orientation:                         
 ---------------------------------------------------------------------
 Center     Atomic      Atomic             Coordinates (Angstroms)
 Number     Number       Type             X           Y           Z
 ---------------------------------------------------------------------
      1          6           0       -1.208422   -0.239069   -0.021917
      2          6           0        0.083893    0.553452    0.046734
      3          8           0        1.233467   -0.256002   -0.105864
      4          1           0       -2.071999    0.425135    0.051700
      5          1           0       -1.270670   -0.957756    0.799731
      6          1           0       -1.270625   -0.788280   -0.962327
      7          1           0        0.130030    1.119197    0.986112
      8          1           0        0.125951    1.277026   -0.768547
      9          1           0        1.236751   -0.913605    0.591341
 ---------------------------------------------------------------------
 Rotational constants (GHZ):          34.6666409           9.2583988           8.1755823
 Leave Link  202 at Mon Mar 21 20:08:51 2022, MaxMem=  8589934592 cpu:               0.1 elap:               0.0
 (Enter /home/sabyasachi/g16/l301.exe)
 General basis read from cards:  (5D, 7F)
 Centers:       4      5      6      7      8      9
 S 3 1.00
     Exponent=  1.3010701000D+01 Coefficients=  1.9682158000D-02
     Exponent=  1.9622572000D+00 Coefficients=  1.3796524000D-01
     Exponent=  4.4453796000D-01 Coefficients=  4.7831935000D-01
 S 1 1.00
     Exponent=  1.2194962000D-01 Coefficients=  1.0000000000D+00
 P 1 1.00
     Exponent=  8.0000000000D-01 Coefficients=  1.0000000000D+00
 P 1 1.00
     Exponent=  1.1704099050D-01 Coefficients=  1.0000000000D+00
 ****
 Centers:       1      2
 S 5 1.00
     Exponent=  1.2384016938D+03 Coefficients=  5.4568832082D-03
     Exponent=  1.8629004992D+02 Coefficients=  4.0638409211D-02
     Exponent=  4.2251176346D+01 Coefficients=  1.8025593888D-01
     Exponent=  1.1676557932D+01 Coefficients=  4.6315121755D-01
     Exponent=  3.5930506482D+00 Coefficients=  4.4087173314D-01
 S 1 1.00
     Exponent=  4.0245147363D-01 Coefficients=  1.0000000000D+00
 S 1 1.00
     Exponent=  1.3090182668D-01 Coefficients=  1.0000000000D+00
 S 1 1.00
     Exponent=  6.7053540256D-02 Coefficients=  1.0000000000D+00
 P 3 1.00
     Exponent=  9.4680970621D+00 Coefficients=  3.8387871728D-02
     Exponent=  2.0103545142D+00 Coefficients=  2.1117025112D-01
     Exponent=  5.4771004707D-01 Coefficients=  5.1328172114D-01
 P 1 1.00
     Exponent=  1.5268613795D-01 Coefficients=  1.0000000000D+00
 D 1 1.00
     Exponent=  8.0000000000D-01 Coefficients=  1.0000000000D+00
 D 1 1.00
     Exponent=  1.1713185140D-01 Coefficients=  1.0000000000D+00
 ****
 Centers:       3
 S 5 1.00
     Exponent=  2.2661767785D+03 Coefficients= -5.3431809926D-03
     Exponent=  3.4087010191D+02 Coefficients= -3.9890039230D-02
     Exponent=  7.7363135167D+01 Coefficients= -1.7853911985D-01
     Exponent=  2.1479644940D+01 Coefficients= -4.6427684959D-01
     Exponent=  6.6589433124D+00 Coefficients= -4.4309745172D-01
 S 1 1.00
     Exponent=  8.0975975668D-01 Coefficients=  1.0000000000D+00
 S 1 1.00
     Exponent=  2.5530772234D-01 Coefficients=  1.0000000000D+00
 S 1 1.00
     Exponent=  7.6572453250D-02 Coefficients=  1.0000000000D+00
 P 3 1.00
     Exponent=  1.7721504317D+01 Coefficients=  4.3394573193D-02
     Exponent=  3.8635505440D+00 Coefficients=  2.3094120765D-01
     Exponent=  1.0480920883D+00 Coefficients=  5.1375311064D-01
 P 1 1.00
     Exponent=  2.7641544411D-01 Coefficients=  1.0000000000D+00
 P 1 1.00
     Exponent=  6.9002276350D-02 Coefficients=  1.0000000000D+00
 D 1 1.00
     Exponent=  1.2000000000D+00 Coefficients=  1.0000000000D+00
 D 1 1.00
     Exponent=  1.7992024323D-01 Coefficients=  1.0000000000D+00
 ****
 Ernie: Thresh=  0.10000D-02 Tol=  0.10000D-05 Strict=F.
 There are   117 symmetry adapted cartesian basis functions of A   symmetry.
 There are   111 symmetry adapted basis functions of A   symmetry.
   111 basis functions,   159 primitive gaussians,   117 cartesian basis functions
    13 alpha electrons       13 beta electrons
       nuclear repulsion energy        81.9103171642 Hartrees.
 IExCor= 2523 DFT=T Ex+Corr=TPSSh ExCW=0 ScaHFX=  0.100000
 ScaDFX=  0.900000  0.900000  1.000000  1.000000 ScalE2=  1.000000  1.000000
 IRadAn=      5 IRanWt=     -1 IRanGd=            0 ICorTp=0 IEmpDi=  4
 NAtoms=    9 NActive=    9 NUniq=    9 SFac= 1.00D+00 NAtFMM=   60 NAOKFM=F Big=F
 Integral buffers will be    131072 words long.
 Regular integral format.
 Two-electron integral symmetry is turned on.
 Leave Link  301 at Mon Mar 21 20:08:51 2022, MaxMem=  8589934592 cpu:               0.5 elap:               0.1
 (Enter /home/sabyasachi/g16/l302.exe)
 NPDir=0 NMtPBC=     1 NCelOv=     1 NCel=       1 NClECP=     1 NCelD=      1
         NCelK=      1 NCelE2=     1 NClLst=     1 CellRange=     0.0.
 One-electron integrals computed using PRISM.
 One-electron integral symmetry used in STVInt
 NBasis=   111 RedAO= T EigKep=  3.00D-04  NBF=   111
 NBsUse=   111 1.00D-06 EigRej= -1.00D+00 NBFU=   111
 Precomputing XC quadrature grid using
 IXCGrd= 4 IRadAn=           5 IRanWt=          -1 IRanGd=           0 AccXCQ= 0.00D+00.
 Generated NRdTot=       0 NPtTot=           0 NUsed=           0 NTot=          32
 NSgBfM=   117   117   117   117   117 MxSgAt=     9 MxSgA2=     9.
 Leave Link  302 at Mon Mar 21 20:08:51 2022, MaxMem=  8589934592 cpu:               1.1 elap:               0.2
 (Enter /home/sabyasachi/g16/l303.exe)
 DipDrv:  MaxL=1.
 Leave Link  303 at Mon Mar 21 20:08:51 2022, MaxMem=  8589934592 cpu:               0.2 elap:               0.0
 (Enter /home/sabyasachi/g16/l308.exe)
 Leave Link  308 at Mon Mar 21 20:08:51 2022, MaxMem=  8589934592 cpu:               0.2 elap:               0.1
 (Enter /home/sabyasachi/g16/l401.exe)
 ExpMin= 6.71D-02 ExpMax= 2.27D+03 ExpMxC= 3.41D+02 IAcc=3 IRadAn=         5 AccDes= 0.00D+00
 Harris functional with IExCor= 1009 and IRadAn=       5 diagonalized for initial guess.
 HarFok:  IExCor= 1009 AccDes= 0.00D+00 IRadAn=         5 IDoV= 1 UseB2=F ITyADJ=14
 ICtDFT=  3500011 ScaDFX=  1.000000  1.000000  1.000000  1.000000
 FoFCou: FMM=F IPFlag=           0 FMFlag=      100000 FMFlg1=           0
         NFxFlg=           0 DoJE=T BraDBF=F KetDBF=T FulRan=T
         wScrn=  0.000000 ICntrl=       500 IOpCl=  0 I1Cent=   200000004 NGrid=           0
         NMat0=    1 NMatS0=      1 NMatT0=    0 NMatD0=    1 NMtDS0=    0 NMtDT0=    0
 Petite list used in FoFCou.
 Harris En= -154.830272887315    
 JPrj=0 DoOrth=F DoCkMO=F.
 Leave Link  401 at Mon Mar 21 20:08:52 2022, MaxMem=  8589934592 cpu:               3.5 elap:               0.5
 (Enter /home/sabyasachi/g16/l502.exe)
 Keep R1 ints in memory in canonical form, NReq=26875892.
 FoFCou: FMM=F IPFlag=           0 FMFlag=           0 FMFlg1=           0
         NFxFlg=           0 DoJE=F BraDBF=F KetDBF=F FulRan=T
         wScrn=  0.000000 ICntrl=       600 IOpCl=  0 I1Cent=           0 NGrid=           0
         NMat0=    1 NMatS0=   6216 NMatT0=    0 NMatD0=    1 NMtDS0=    0 NMtDT0=    0
 Symmetry not used in FoFCou.
 Two-electron integral symmetry not used.
 Closed shell SCF:
 Using DIIS extrapolation, IDIIS=  1040.
 NGot=  8589934592 LenX=  8570582328 LenY=  8570568198
 Requested convergence on RMS density matrix=1.00D-08 within 100 cycles.
 Requested convergence on MAX density matrix=1.00D-06.
 Requested convergence on             energy=1.00D-06.
 No special actions if energy rises.
 Integral accuracy reduced to 1.0D-05 until final iterations.

 Cycle   1  Pass 0  IDiag  1:
 E= -154.838095700508    
 DIIS: error= 2.70D-02 at cycle   1 NSaved=   1.
 NSaved= 1 IEnMin= 1 EnMin= -154.838095700508     IErMin= 1 ErrMin= 2.70D-02
 ErrMax= 2.70D-02  0.00D+00 EMaxC= 1.00D-01 BMatC= 1.07D-01 BMatP= 1.07D-01
 IDIUse=3 WtCom= 7.30D-01 WtEn= 2.70D-01
 Coeff-Com:  0.100D+01
 Coeff-En:   0.100D+01
 Coeff:      0.100D+01
 Gap=     0.184 Goal=   None    Shift=    0.000
 GapD=    0.184 DampG=1.000 DampE=0.500 DampFc=0.5000 IDamp=-1.
 Damping current iteration by 5.00D-01
 RMSDP=6.80D-03 MaxDP=1.58D-01              OVMax= 1.77D-01

 Cycle   2  Pass 0  IDiag  1:
 E= -154.877029929401     Delta-E=       -0.038934228893 Rises=F Damp=T
 DIIS: error= 7.15D-03 at cycle   2 NSaved=   2.
 NSaved= 2 IEnMin= 2 EnMin= -154.877029929401     IErMin= 2 ErrMin= 7.15D-03
 ErrMax= 7.15D-03  0.00D+00 EMaxC= 1.00D-01 BMatC= 9.12D-03 BMatP= 1.07D-01
 IDIUse=3 WtCom= 9.28D-01 WtEn= 7.15D-02
 Coeff-Com:  0.159D+00 0.841D+00
 Coeff-En:   0.256D+00 0.744D+00
 Coeff:      0.166D+00 0.834D+00
 Gap=     0.279 Goal=   None    Shift=    0.000
 RMSDP=2.00D-03 MaxDP=3.61D-02 DE=-3.89D-02 OVMax= 1.21D-01

 Cycle   3  Pass 0  IDiag  1:
 E= -154.941924919589     Delta-E=       -0.064894990188 Rises=F Damp=F
 DIIS: error= 3.39D-03 at cycle   3 NSaved=   3.
 NSaved= 3 IEnMin= 3 EnMin= -154.941924919589     IErMin= 3 ErrMin= 3.39D-03
 ErrMax= 3.39D-03  0.00D+00 EMaxC= 1.00D-01 BMatC= 3.85D-03 BMatP= 9.12D-03
 IDIUse=3 WtCom= 9.66D-01 WtEn= 3.39D-02
 Coeff-Com:  0.406D-01 0.388D+00 0.571D+00
 Coeff-En:   0.000D+00 0.000D+00 0.100D+01
 Coeff:      0.392D-01 0.375D+00 0.586D+00
 Gap=     0.270 Goal=   None    Shift=    0.000
 RMSDP=6.86D-04 MaxDP=1.55D-02 DE=-6.49D-02 OVMax= 1.87D-02

 Cycle   4  Pass 0  IDiag  1:
 E= -154.944290737317     Delta-E=       -0.002365817728 Rises=F Damp=F
 DIIS: error= 1.67D-03 at cycle   4 NSaved=   4.
 NSaved= 4 IEnMin= 4 EnMin= -154.944290737317     IErMin= 4 ErrMin= 1.67D-03
 ErrMax= 1.67D-03  0.00D+00 EMaxC= 1.00D-01 BMatC= 8.60D-04 BMatP= 3.85D-03
 IDIUse=3 WtCom= 9.83D-01 WtEn= 1.67D-02
 Coeff-Com: -0.204D-02 0.722D-01 0.332D+00 0.598D+00
 Coeff-En:   0.000D+00 0.000D+00 0.202D+00 0.798D+00
 Coeff:     -0.200D-02 0.710D-01 0.330D+00 0.601D+00
 Gap=     0.272 Goal=   None    Shift=    0.000
 RMSDP=2.59D-04 MaxDP=5.84D-03 DE=-2.37D-03 OVMax= 6.21D-03

 Cycle   5  Pass 0  IDiag  1:
 E= -154.945015776614     Delta-E=       -0.000725039297 Rises=F Damp=F
 DIIS: error= 2.90D-04 at cycle   5 NSaved=   5.
 NSaved= 5 IEnMin= 5 EnMin= -154.945015776614     IErMin= 5 ErrMin= 2.90D-04
 ErrMax= 2.90D-04  0.00D+00 EMaxC= 1.00D-01 BMatC= 1.65D-05 BMatP= 8.60D-04
 IDIUse=3 WtCom= 9.97D-01 WtEn= 2.90D-03
 Coeff-Com: -0.280D-02 0.425D-02 0.829D-01 0.216D+00 0.700D+00
 Coeff-En:   0.000D+00 0.000D+00 0.000D+00 0.000D+00 0.100D+01
 Coeff:     -0.279D-02 0.424D-02 0.826D-01 0.215D+00 0.701D+00
 Gap=     0.271 Goal=   None    Shift=    0.000
 RMSDP=5.48D-05 MaxDP=7.57D-04 DE=-7.25D-04 OVMax= 9.76D-04

 Cycle   6  Pass 0  IDiag  1:
 E= -154.945028950254     Delta-E=       -0.000013173640 Rises=F Damp=F
 DIIS: error= 5.96D-05 at cycle   6 NSaved=   6.
 NSaved= 6 IEnMin= 6 EnMin= -154.945028950254     IErMin= 6 ErrMin= 5.96D-05
 ErrMax= 5.96D-05  0.00D+00 EMaxC= 1.00D-01 BMatC= 8.60D-07 BMatP= 1.65D-05
 IDIUse=1 WtCom= 1.00D+00 WtEn= 0.00D+00
 Coeff-Com: -0.107D-02 0.462D-03 0.309D-01 0.871D-01 0.328D+00 0.554D+00
 Coeff:     -0.107D-02 0.462D-03 0.309D-01 0.871D-01 0.328D+00 0.554D+00
 Gap=     0.271 Goal=   None    Shift=    0.000
 RMSDP=1.14D-05 MaxDP=3.33D-04 DE=-1.32D-05 OVMax= 2.27D-04

 Cycle   7  Pass 0  IDiag  1:
 E= -154.945029777152     Delta-E=       -0.000000826899 Rises=F Damp=F
 DIIS: error= 1.20D-05 at cycle   7 NSaved=   7.
 NSaved= 7 IEnMin= 7 EnMin= -154.945029777152     IErMin= 7 ErrMin= 1.20D-05
 ErrMax= 1.20D-05  0.00D+00 EMaxC= 1.00D-01 BMatC= 3.16D-08 BMatP= 8.60D-07
 IDIUse=1 WtCom= 1.00D+00 WtEn= 0.00D+00
 Coeff-Com: -0.119D-03-0.210D-03 0.507D-02 0.156D-01 0.648D-01 0.201D+00
 Coeff-Com:  0.714D+00
 Coeff:     -0.119D-03-0.210D-03 0.507D-02 0.156D-01 0.648D-01 0.201D+00
 Coeff:      0.714D+00
 Gap=     0.271 Goal=   None    Shift=    0.000
 RMSDP=2.40D-06 MaxDP=5.61D-05 DE=-8.27D-07 OVMax= 4.94D-05

 Initial convergence to 1.0D-05 achieved.  Increase integral accuracy.
 Cycle   8  Pass 1  IDiag  1:
 E= -154.945034834924     Delta-E=       -0.000005057771 Rises=F Damp=F
 DIIS: error= 2.84D-06 at cycle   1 NSaved=   1.
 NSaved= 1 IEnMin= 1 EnMin= -154.945034834924     IErMin= 1 ErrMin= 2.84D-06
 ErrMax= 2.84D-06  0.00D+00 EMaxC= 1.00D-01 BMatC= 1.84D-09 BMatP= 1.84D-09
 IDIUse=1 WtCom= 1.00D+00 WtEn= 0.00D+00
 Coeff-Com:  0.100D+01
 Coeff:      0.100D+01
 Gap=     0.271 Goal=   None    Shift=    0.000
 RMSDP=2.40D-06 MaxDP=5.61D-05 DE=-5.06D-06 OVMax= 2.00D-05

 Cycle   9  Pass 1  IDiag  1:
 E= -154.945034835877     Delta-E=       -0.000000000954 Rises=F Damp=F
 DIIS: error= 2.51D-06 at cycle   2 NSaved=   2.
 NSaved= 2 IEnMin= 2 EnMin= -154.945034835877     IErMin= 2 ErrMin= 2.51D-06
 ErrMax= 2.51D-06  0.00D+00 EMaxC= 1.00D-01 BMatC= 1.15D-09 BMatP= 1.84D-09
 IDIUse=1 WtCom= 1.00D+00 WtEn= 0.00D+00
 Coeff-Com:  0.436D+00 0.564D+00
 Coeff:      0.436D+00 0.564D+00
 Gap=     0.271 Goal=   None    Shift=    0.000
 RMSDP=4.56D-07 MaxDP=7.67D-06 DE=-9.54D-10 OVMax= 9.80D-06

 Cycle  10  Pass 1  IDiag  1:
 E= -154.945034836999     Delta-E=       -0.000000001121 Rises=F Damp=F
 DIIS: error= 5.14D-07 at cycle   3 NSaved=   3.
 NSaved= 3 IEnMin= 3 EnMin= -154.945034836999     IErMin= 3 ErrMin= 5.14D-07
 ErrMax= 5.14D-07  0.00D+00 EMaxC= 1.00D-01 BMatC= 9.35D-11 BMatP= 1.15D-09
 IDIUse=1 WtCom= 1.00D+00 WtEn= 0.00D+00
 Coeff-Com:  0.138D+00 0.263D+00 0.598D+00
 Coeff:      0.138D+00 0.263D+00 0.598D+00
 Gap=     0.271 Goal=   None    Shift=    0.000
 RMSDP=9.68D-08 MaxDP=2.25D-06 DE=-1.12D-09 OVMax= 2.55D-06

 Cycle  11  Pass 1  IDiag  1:
 E= -154.945034837064     Delta-E=       -0.000000000065 Rises=F Damp=F
 DIIS: error= 2.23D-07 at cycle   4 NSaved=   4.
 NSaved= 4 IEnMin= 4 EnMin= -154.945034837064     IErMin= 4 ErrMin= 2.23D-07
 ErrMax= 2.23D-07  0.00D+00 EMaxC= 1.00D-01 BMatC= 1.46D-11 BMatP= 9.35D-11
 IDIUse=1 WtCom= 1.00D+00 WtEn= 0.00D+00
 Coeff-Com:  0.737D-02 0.549D-01 0.314D+00 0.624D+00
 Coeff:      0.737D-02 0.549D-01 0.314D+00 0.624D+00
 Gap=     0.271 Goal=   None    Shift=    0.000
 RMSDP=3.91D-08 MaxDP=9.00D-07 DE=-6.53D-11 OVMax= 9.95D-07

 Cycle  12  Pass 1  IDiag  1:
 E= -154.945034837069     Delta-E=       -0.000000000005 Rises=F Damp=F
 DIIS: error= 6.71D-08 at cycle   5 NSaved=   5.
 NSaved= 5 IEnMin= 5 EnMin= -154.945034837069     IErMin= 5 ErrMin= 6.71D-08
 ErrMax= 6.71D-08  0.00D+00 EMaxC= 1.00D-01 BMatC= 1.54D-12 BMatP= 1.46D-11
 IDIUse=1 WtCom= 1.00D+00 WtEn= 0.00D+00
 Coeff-Com: -0.469D-02 0.133D-01 0.133D+00 0.350D+00 0.508D+00
 Coeff:     -0.469D-02 0.133D-01 0.133D+00 0.350D+00 0.508D+00
 Gap=     0.271 Goal=   None    Shift=    0.000
 RMSDP=1.33D-08 MaxDP=3.21D-07 DE=-4.77D-12 OVMax= 3.05D-07

 Cycle  13  Pass 1  IDiag  1:
 E= -154.945034837070     Delta-E=       -0.000000000002 Rises=F Damp=F
 DIIS: error= 7.43D-09 at cycle   6 NSaved=   6.
 NSaved= 6 IEnMin= 6 EnMin= -154.945034837070     IErMin= 6 ErrMin= 7.43D-09
 ErrMax= 7.43D-09  0.00D+00 EMaxC= 1.00D-01 BMatC= 1.36D-14 BMatP= 1.54D-12
 IDIUse=1 WtCom= 1.00D+00 WtEn= 0.00D+00
 Coeff-Com: -0.189D-02 0.188D-02 0.280D-01 0.795D-01 0.158D+00 0.734D+00
 Coeff:     -0.189D-02 0.188D-02 0.280D-01 0.795D-01 0.158D+00 0.734D+00
 Gap=     0.271 Goal=   None    Shift=    0.000
 RMSDP=1.48D-09 MaxDP=2.55D-08 DE=-1.76D-12 OVMax= 2.88D-08

 SCF Done:  E(RTPSSh) =  -154.945034837     A.U. after   13 cycles
            NFock= 13  Conv=0.15D-08     -V/T= 2.0099
 KE= 1.534209559761D+02 PE=-5.250313435419D+02 EE= 1.347550355645D+02
 Leave Link  502 at Mon Mar 21 20:08:58 2022, MaxMem=  8589934592 cpu:              45.3 elap:               6.0
 (Enter /home/sabyasachi/g16/l801.exe)
 DoSCS=F DFT=T ScalE2(SS,OS)=  1.000000  1.000000
 ExpMin= 6.71D-02 ExpMax= 2.27D+03 ExpMxC= 3.41D+02 IAcc=3 IRadAn=         5 AccDes= 0.00D+00
 HarFok:  IExCor=  205 AccDes= 0.00D+00 IRadAn=         5 IDoV=-2 UseB2=F ITyADJ=14
 ICtDFT= 12500011 ScaDFX=  1.000000  1.000000  1.000000  1.000000
 Largest valence mixing into a core orbital is  8.44D-05
 Largest core mixing into a valence orbital is  2.70D-05
 Range of M.O.s used for correlation:     4   111
 NBasis=   111 NAE=    13 NBE=    13 NFC=     3 NFV=     0
 NROrb=    108 NOA=    10 NOB=    10 NVA=    98 NVB=    98

 **** Warning!!: The largest alpha MO coefficient is  0.21986867D+02

 Leave Link  801 at Mon Mar 21 20:08:58 2022, MaxMem=  8589934592 cpu:               0.5 elap:               0.1
 (Enter /home/sabyasachi/g16/l914.exe)
 RHF ground state
 Keep R1, R2, and R3 ints in memory in canonical form, NReq=1127673256.
 FoFCou: FMM=F IPFlag=           0 FMFlag=           0 FMFlg1=           0
         NFxFlg=           0 DoJE=F BraDBF=F KetDBF=F FulRan=T
         wScrn=  0.000000 ICntrl=       600 IOpCl=  0 I1Cent=           0 NGrid=           0
         NMat0=    1 NMatS0=   6216 NMatT0=    0 NMatD0=    1 NMtDS0=    0 NMtDT0=    0
 Symmetry not used in FoFCou.
 Two-electron integral symmetry not used.
 MDV=  8589934592 DFT=T DoStab=F Mixed=T DoRPA=T DoScal=F NonHer=T
 Making orbital integer symmetry assigments:
 Orbital symmetries:
       Occupied  (A) (A) (A) (A) (A) (A) (A) (A) (A) (A) (A) (A)
                 (A)
       Virtual   (A) (A) (A) (A) (A) (A) (A) (A) (A) (A) (A) (A)
                 (A) (A) (A) (A) (A) (A) (A) (A) (A) (A) (A) (A)
                 (A) (A) (A) (A) (A) (A) (A) (A) (A) (A) (A) (A)
                 (A) (A) (A) (A) (A) (A) (A) (A) (A) (A) (A) (A)
                 (A) (A) (A) (A) (A) (A) (A) (A) (A) (A) (A) (A)
                 (A) (A) (A) (A) (A) (A) (A) (A) (A) (A) (A) (A)
                 (A) (A) (A) (A) (A) (A) (A) (A) (A) (A) (A) (A)
                 (A) (A) (A) (A) (A) (A) (A) (A) (A) (A) (A) (A)
                 (A) (A)
   980 initial guesses have been made.
 Convergence on wavefunction:    0.001000000000000
 Davidson Disk Diagonalization:  ConvIn= 1.00D-03 SkipCon=T Conv= 1.00D-03.
 Max sub-space:  5880 roots to seek:  1960 dimension of matrix:         1960
 *** WARNING: Number of orthogonal guesses is          980
 Iteration     1 Dimension   980 NMult     0 NNew    980
 CISAX will form   980 AO SS matrices at one time.
 NMat=   980 NSing=   980 JSym2X= 0.
 New state      8 was old state      9
 New state      9 was old state      8
 New state     23 was old state     24
 New state     24 was old state     25
 New state     25 was old state     23
 New state     33 was old state     35
 New state     34 was old state     33
 New state     35 was old state     34
 New state     50 was old state     51
 New state     51 was old state     50
 New state     53 was old state     55
 New state     54 was old state     53
 New state     55 was old state     54
 New state     56 was old state     58
 New state     57 was old state     56
 New state     58 was old state     59
 New state     59 was old state     60
 New state     60 was old state     61
 New state     61 was old state     62
 New state     62 was old state     64
 New state     64 was old state     66
 New state     66 was old state     69
 New state     68 was old state     70
 New state     69 was old state     68
 New state     70 was old state     71
 New state     71 was old state     74
 New state     72 was old state     73
 New state     73 was old state     78
 New state     74 was old state     77
 New state     77 was old state     80
 New state     78 was old state     79
 New state     79 was old state     81
 New state     80 was old state     82
 New state     81 was old state     85
 New state     82 was old state     83
 New state     83 was old state     86
 New state     85 was old state     88
 New state     86 was old state     87
 New state     87 was old state     89
 New state     88 was old state     91
 New state     89 was old state     92
 New state     91 was old state     97
 New state     92 was old state     93
 New state     93 was old state     95
 New state     95 was old state     98
 New state     97 was old state     99
 New state     98 was old state    106
 New state     99 was old state    100
 New state    100 was old state    102
 New state    102 was old state    104
 New state    104 was old state    111
 New state    106 was old state    108
 New state    108 was old state    109
 New state    109 was old state    115
 New state    110 was old state    112
 New state    111 was old state    113
 New state    112 was old state    110
 New state    113 was old state    119
 New state    115 was old state    116
 New state    116 was old state    118
 New state    118 was old state    120
 New state    119 was old state    122
 New state    120 was old state    121
 New state    121 was old state    124
 New state    122 was old state    125
 New state    123 was old state    126
 New state    124 was old state    129
 New state    125 was old state    127
 New state    126 was old state    123
 New state    127 was old state    132
 New state    128 was old state    131
 New state    129 was old state    130
 New state    130 was old state    133
 New state    131 was old state    128
 New state    132 was old state    134
 New state    133 was old state    137
 New state    134 was old state    135
 New state    135 was old state    138
 New state    137 was old state    140
 New state    138 was old state    144
 New state    140 was old state    141
 New state    141 was old state    143
 New state    142 was old state    146
 New state    143 was old state    142
 New state    144 was old state    145
 New state    145 was old state    147
 New state    146 was old state    148
 New state    147 was old state    151
 New state    148 was old state    150
 New state    150 was old state    152
 New state    151 was old state    153
 New state    152 was old state    154
 New state    153 was old state    155
 New state    154 was old state    157
 New state    155 was old state    162
 New state    156 was old state    159
 New state    157 was old state    156
 New state    159 was old state    160
 New state    160 was old state    161
 New state    161 was old state    164
 New state    162 was old state    167
 New state    164 was old state    165
 New state    165 was old state    166
 New state    166 was old state    169
 New state    167 was old state    168
 New state    168 was old state    171
 New state    169 was old state    172
 New state    170 was old state    177
 New state    171 was old state    170
 New state    172 was old state    173
 New state    173 was old state    180
 New state    174 was old state    176
 New state    175 was old state    179
 New state    176 was old state    178
 New state    177 was old state    175
 New state    178 was old state    174
 New state    179 was old state    185
 New state    180 was old state    182
 New state    181 was old state    183
 New state    182 was old state    181
 New state    183 was old state    188
 New state    184 was old state    186
 New state    185 was old state    184
 New state    186 was old state    202
 New state    187 was old state    190
 New state    188 was old state    187
 New state    190 was old state    193
 New state    191 was old state    192
 New state    192 was old state    194
 New state    193 was old state    191
 New state    194 was old state    195
 New state    195 was old state    197
 New state    197 was old state    199
 New state    199 was old state    200
 New state    200 was old state    204
 New state    201 was old state    203
 New state    202 was old state    201
 New state    203 was old state    205
 New state    204 was old state    213
 New state    205 was old state    207
 New state    207 was old state    209
 New state    208 was old state    211
 New state    209 was old state    214
 New state    211 was old state    216
 New state    212 was old state    208
 New state    213 was old state    217
 New state    214 was old state    215
 New state    215 was old state    212
 New state    216 was old state    218
 New state    217 was old state    219
 New state    218 was old state    220
 New state    219 was old state    222
 New state    220 was old state    221
 New state    221 was old state    223
 New state    222 was old state    225
 New state    223 was old state    224
 New state    224 was old state    228
 New state    225 was old state    227
 New state    227 was old state    233
 New state    228 was old state    231
 New state    231 was old state    236
 New state    232 was old state    238
 New state    233 was old state    235
 New state    234 was old state    232
 New state    235 was old state    237
 New state    236 was old state    247
 New state    237 was old state    239
 New state    238 was old state    234
 New state    239 was old state    242
 New state    240 was old state    241
 New state    241 was old state    245
 New state    242 was old state    240
 New state    243 was old state    244
 New state    244 was old state    246
 New state    245 was old state    243
 New state    246 was old state    253
 New state    247 was old state    249
 New state    249 was old state    251
 New state    250 was old state    252
 New state    251 was old state    257
 New state    252 was old state    250
 New state    253 was old state    256
 New state    255 was old state    259
 New state    256 was old state    258
 New state    257 was old state    261
 New state    258 was old state    260
 New state    259 was old state    264
 New state    260 was old state    262
 New state    261 was old state    266
 New state    262 was old state    265
 New state    264 was old state    268
 New state    265 was old state    270
 New state    266 was old state    269
 New state    267 was old state    271
 New state    268 was old state    273
 New state    269 was old state    272
 New state    270 was old state    267
 New state    271 was old state    274
 New state    272 was old state    277
 New state    273 was old state    276
 New state    274 was old state    275
 New state    275 was old state    280
 New state    276 was old state    278
 New state    277 was old state    279
 New state    278 was old state    281
 New state    279 was old state    286
 New state    280 was old state    282
 New state    281 was old state    283
 New state    282 was old state    291
 New state    283 was old state    285
 New state    285 was old state    287
 New state    286 was old state    292
 New state    287 was old state    294
 New state    290 was old state    293
 New state    291 was old state    298
 New state    292 was old state    290
 New state    293 was old state    295
 New state    294 was old state    296
 New state    295 was old state    297
 No map to state    296
 New state    297 was old state    300
 New state    298 was old state    303
 New state    300 was old state    312
 New state    301 was old state    302
 New state    302 was old state    304
 New state    303 was old state    301
 New state    304 was old state    311
 New state    306 was old state    307
 New state    307 was old state    308
 New state    308 was old state    310
 New state    310 was old state    306
 New state    311 was old state    313
 New state    312 was old state    314
 New state    313 was old state    318
 New state    314 was old state    316
 New state    315 was old state    317
 New state    316 was old state    315
 New state    317 was old state    322
 New state    318 was old state    320
 New state    320 was old state    321
 New state    321 was old state    323
 New state    322 was old state    325
 New state    323 was old state    328
 New state    325 was old state    326
 New state    326 was old state    327
 New state    327 was old state    330
 New state    328 was old state    329
 New state    329 was old state    337
 New state    330 was old state    334
 New state    331 was old state    332
 New state    332 was old state    333
 New state    333 was old state    335
 New state    334 was old state    336
 New state    335 was old state    340
 New state    336 was old state    341
 New state    337 was old state    339
 New state    339 was old state    344
 New state    340 was old state    331
 New state    341 was old state    343
 New state    342 was old state    345
 New state    343 was old state    346
 New state    344 was old state    342
 New state    345 was old state    350
 New state    346 was old state    353
 New state    347 was old state    348
 New state    348 was old state    349
 New state    349 was old state    351
 New state    350 was old state    357
 New state    351 was old state    352
 New state    352 was old state    355
 New state    353 was old state    354
 New state    354 was old state    356
 New state    355 was old state    358
 New state    356 was old state    347
 New state    357 was old state    359
 New state    358 was old state    360
 New state    359 was old state    363
 New state    360 was old state    362
 New state    361 was old state    364
 New state    362 was old state    361
 New state    363 was old state    366
 New state    364 was old state    365
 New state    365 was old state    367
 New state    366 was old state    368
 New state    367 was old state    369
 New state    368 was old state    370
 New state    369 was old state    371
 New state    370 was old state    372
 New state    371 was old state    380
 New state    372 was old state    377
 New state    377 was old state    378
 New state    378 was old state    382
 New state    379 was old state    384
 New state    380 was old state    383
 New state    382 was old state    379
 New state    383 was old state    385
 New state    384 was old state    386
 New state    385 was old state    387
 New state    386 was old state    388
 New state    387 was old state    389
 New state    388 was old state    390
 New state    389 was old state    404
 New state    390 was old state    392
 New state    392 was old state    393
 New state    393 was old state    394
 New state    394 was old state    395
 New state    395 was old state    400
 New state    398 was old state    399
 New state    399 was old state    398
 New state    400 was old state    401
 New state    401 was old state    402
 New state    402 was old state    406
 New state    403 was old state    407
 New state    404 was old state    403
 New state    406 was old state    408
 New state    407 was old state    410
 New state    408 was old state    414
 New state    410 was old state    412
 New state    412 was old state    413
 New state    413 was old state    415
 New state    414 was old state    417
 New state    415 was old state    418
 No map to state    417
 New state    418 was old state    426
 New state    422 was old state    424
 New state    423 was old state    422
 New state    424 was old state    423
 New state    426 was old state    429
 New state    429 was old state    430
 New state    430 was old state    431
 New state    431 was old state    432
 New state    432 was old state    433
 New state    433 was old state    437
 New state    437 was old state    442
 New state    439 was old state    440
 New state    440 was old state    446
 New state    441 was old state    439
 New state    442 was old state    444
 New state    443 was old state    441
 New state    444 was old state    445
 New state    445 was old state    449
 New state    446 was old state    447
 New state    447 was old state    448
 New state    448 was old state    450
 New state    449 was old state    443
 New state    450 was old state    453
 New state    451 was old state    454
 New state    452 was old state    455
 New state    453 was old state    452
 New state    454 was old state    456
 New state    455 was old state    451
 New state    456 was old state    458
 New state    458 was old state    460
 New state    459 was old state    464
 New state    460 was old state    461
 New state    461 was old state    463
 New state    462 was old state    459
 New state    463 was old state    462
 New state    464 was old state    469
 New state    465 was old state    466
 New state    466 was old state    467
 New state    467 was old state    465
 New state    468 was old state    472
 New state    469 was old state    473
 New state    472 was old state    475
 New state    473 was old state    474
 New state    474 was old state    468
 New state    475 was old state    478
 New state    477 was old state    480
 New state    478 was old state    477
 New state    480 was old state    484
 New state    481 was old state    485
 New state    483 was old state    481
 New state    484 was old state    483
 New state    485 was old state    488
 New state    486 was old state    487
 New state    487 was old state    486
 New state    488 was old state    491
 New state    489 was old state    492
 New state    490 was old state    489
 New state    491 was old state    496
 New state    492 was old state    494
 New state    493 was old state    490
 New state    494 was old state    500
 New state    495 was old state    493
 New state    496 was old state    501
 New state    497 was old state    503
 New state    498 was old state    495
 New state    499 was old state    497
 New state    500 was old state    499
 New state    501 was old state    498
 New state    502 was old state    504
 New state    503 was old state    502
 New state    504 was old state    505
 New state    505 was old state    507
 New state    506 was old state    508
 New state    507 was old state    506
 New state    508 was old state    509
 New state    509 was old state    510
 New state    510 was old state    516
 New state    511 was old state    514
 New state    513 was old state    515
 New state    514 was old state    513
 New state    515 was old state    518
 New state    516 was old state    517
 New state    517 was old state    523
 New state    518 was old state    520
 New state    520 was old state    526
 New state    521 was old state    525
 New state    522 was old state    521
 New state    523 was old state    522
 New state    525 was old state    527
 New state    526 was old state    531
 New state    527 was old state    529
 New state    529 was old state    532
 New state    531 was old state    540
 New state    532 was old state    533
 New state    533 was old state    539
 New state    534 was old state    536
 New state    535 was old state    537
 New state    536 was old state    535
 New state    537 was old state    534
 New state    539 was old state    541
 New state    540 was old state    546
 New state    541 was old state    542
 New state    542 was old state    544
 New state    544 was old state    545
 New state    545 was old state    547
 New state    546 was old state    549
 New state    547 was old state    548
 New state    548 was old state    550
 New state    549 was old state    552
 New state    550 was old state    551
 New state    551 was old state    554
 New state    552 was old state    553
 New state    553 was old state    558
 New state    554 was old state    557
 New state    557 was old state    559
 New state    558 was old state    560
 New state    559 was old state    561
 New state    560 was old state    562
 New state    561 was old state    567
 New state    562 was old state    565
 New state    563 was old state    564
 New state    564 was old state    566
 New state    565 was old state    563
 New state    566 was old state    568
 New state    567 was old state    573
 New state    568 was old state    569
 New state    569 was old state    571
 No map to state    571
 New state    573 was old state    574
 New state    574 was old state    575
 New state    575 was old state    576
 New state    576 was old state    578
 New state    578 was old state    579
 New state    579 was old state    583
 New state    580 was old state    581
 New state    581 was old state    580
 New state    583 was old state    584
 New state    584 was old state    586
 New state    585 was old state    588
 New state    586 was old state    585
 New state    588 was old state    589
 New state    589 was old state    593
 New state    590 was old state    592
 New state    592 was old state    590
 New state    593 was old state    596
 New state    596 was old state    597
 New state    597 was old state    599
 New state    599 was old state    600
 New state    600 was old state    601
 New state    601 was old state    602
 New state    602 was old state    603
 New state    603 was old state    604
 New state    604 was old state    605
 New state    605 was old state    606
 New state    606 was old state    608
 New state    608 was old state    609
 New state    609 was old state    611
 New state    611 was old state    613
 New state    613 was old state    614
 New state    614 was old state    615
 New state    615 was old state    617
 New state    616 was old state    619
 New state    617 was old state    616
 New state    619 was old state    620
 New state    620 was old state    621
 New state    621 was old state    623
 New state    623 was old state    625
 New state    624 was old state    626
 New state    625 was old state    624
 New state    626 was old state    632
 New state    627 was old state    630
 New state    629 was old state    627
 New state    630 was old state    629
 New state    631 was old state    633
 No map to state    632
 New state    633 was old state    635
 New state    635 was old state    631
 New state    636 was old state    637
 New state    637 was old state    636
 New state    638 was old state    639
 New state    639 was old state    640
 New state    640 was old state    638
 New state    641 was old state    642
 New state    642 was old state    644
 New state    643 was old state    645
 New state    644 was old state    643
 New state    645 was old state    647
 New state    647 was old state    648
 New state    648 was old state    649
 New state    649 was old state    641
 New state    652 was old state    654
 New state    654 was old state    652
 New state    655 was old state    658
 New state    656 was old state    655
 New state    657 was old state    656
 New state    658 was old state    657
 New state    667 was old state    670
 New state    668 was old state    671
 New state    669 was old state    668
 New state    670 was old state    669
 New state    671 was old state    673
 New state    673 was old state    676
 New state    675 was old state    677
 New state    676 was old state    675
 New state    677 was old state    679
 New state    679 was old state    681
 New state    680 was old state    687
 New state    681 was old state    680
 New state    686 was old state    688
 New state    687 was old state    686
 New state    688 was old state    689
 New state    689 was old state    693
 New state    690 was old state    691
 New state    691 was old state    694
 New state    693 was old state    695
 New state    694 was old state    690
 New state    695 was old state    697
 New state    697 was old state    702
 New state    698 was old state    701
 New state    700 was old state    698
 New state    701 was old state    703
 New state    702 was old state    700
 New state    703 was old state    706
 New state    704 was old state    705
 New state    705 was old state    707
 New state    706 was old state    704
 New state    707 was old state    709
 New state    708 was old state    710
 New state    709 was old state    708
 New state    710 was old state    711
 New state    711 was old state    715
 New state    712 was old state    713
 New state    713 was old state    712
 New state    715 was old state    716
 New state    716 was old state    717
 New state    717 was old state    720
 New state    718 was old state    719
 New state    719 was old state    718
 New state    720 was old state    721
 New state    721 was old state    722
 New state    722 was old state    723
 New state    723 was old state    725
 New state    725 was old state    727
 New state    726 was old state    728
 New state    727 was old state    726
 New state    728 was old state    730
 New state    730 was old state    732
 New state    732 was old state    734
 New state    734 was old state    735
 New state    735 was old state    738
 New state    736 was old state    737
 New state    737 was old state    736
 New state    738 was old state    739
 New state    739 was old state    740
 New state    740 was old state    744
 New state    741 was old state    742
 New state    742 was old state    743
 New state    743 was old state    741
 New state    744 was old state    748
 New state    745 was old state    746
 New state    746 was old state    745
 New state    747 was old state    749
 New state    748 was old state    750
 New state    749 was old state    747
 New state    750 was old state    751
 New state    751 was old state    752
 New state    752 was old state    754
 New state    754 was old state    756
 New state    756 was old state    761
 New state    758 was old state    759
 New state    759 was old state    758
 New state    761 was old state    762
 New state    762 was old state    763
 New state    763 was old state    764
 New state    764 was old state    765
 New state    765 was old state    766
 No map to state    766
 New state    767 was old state    768
 New state    768 was old state    767
 New state    770 was old state    772
 New state    771 was old state    773
 New state    772 was old state    771
 New state    773 was old state    770
 New state    774 was old state    777
 New state    775 was old state    774
 New state    777 was old state    775
 New state    783 was old state    785
 New state    784 was old state    783
 New state    785 was old state    784
 New state    786 was old state    788
 New state    787 was old state    786
 New state    788 was old state    789
 New state    789 was old state    787
 New state    790 was old state    791
 New state    791 was old state    792
 New state    792 was old state    790
 New state    807 was old state    808
 New state    808 was old state    807
 New state    817 was old state    818
 New state    818 was old state    817
 New state    822 was old state    823
 New state    823 was old state    822
 New state    825 was old state    827
 New state    826 was old state    830
 New state    827 was old state    826
 New state    830 was old state    831
 New state    831 was old state    834
 New state    834 was old state    835
 New state    835 was old state    825
 New state    838 was old state    839
 New state    839 was old state    840
 New state    840 was old state    838
 New state    841 was old state    842
 New state    842 was old state    841
 New state    845 was old state    846
 New state    846 was old state    845
 New state    847 was old state    848
 New state    848 was old state    849
 New state    849 was old state    847
 New state    850 was old state    852
 New state    851 was old state    850
 New state    852 was old state    853
 New state    853 was old state    851
 New state    868 was old state    869
 New state    869 was old state    868
 New state    874 was old state    875
 New state    875 was old state    876
 New state    876 was old state    874
 New state    877 was old state    879
 New state    878 was old state    880
 New state    879 was old state    878
 New state    880 was old state    877
 New state    887 was old state    888
 New state    888 was old state    887
 New state    890 was old state    891
 New state    891 was old state    890
 New state    894 was old state    897
 New state    896 was old state    898
 New state    897 was old state    896
 New state    898 was old state    894
 New state    900 was old state    901
 New state    901 was old state    904
 New state    902 was old state    900
 New state    904 was old state    905
 New state    905 was old state    906
 New state    906 was old state    907
 New state    907 was old state    902
 New state    908 was old state    909
 New state    909 was old state    908
 New state    910 was old state    911
 New state    911 was old state    910
 New state    912 was old state    914
 New state    914 was old state    912
 New state    915 was old state    916
 New state    916 was old state    915
 New state    918 was old state    921
 New state    920 was old state    918
 New state    921 was old state    920
 New state    924 was old state    926
 New state    926 was old state    924
 New state    929 was old state    930
 New state    930 was old state    929
 New state    932 was old state    935
 New state    933 was old state    934
 New state    934 was old state    933
 New state    935 was old state    932
 New state    937 was old state    939
 New state    938 was old state    937
 New state    939 was old state    940
 New state    940 was old state    938
 New state    946 was old state    947
 New state    947 was old state    948
 New state    948 was old state    949
 New state    949 was old state    946
 New state    950 was old state    951
 New state    951 was old state    950
 New state    953 was old state    954
 New state    954 was old state    953
 Excitation Energies [eV] at current iteration:
 Root      1 :     6.805749755689328
 Root      2 :     7.742871041173480
 Root      3 :     8.076808487680021
 Root      4 :     8.310173936876087
 Root      5 :     8.600303629959472
 Root      6 :     9.187151302574943
 Root      7 :     9.305559707483127
 Root      8 :     9.512488756415353
 Root      9 :     9.536913453596432
 Root     10 :     9.622935822972000
 Root     11 :     9.748780826568284
 Root     12 :     9.925890685458270
 Root     13 :    10.051061782074680
 Root     14 :    10.088205976886230
 Root     15 :    10.387461578401140
 Root     16 :    10.480840275334240
 Root     17 :    10.592706209878420
 Root     18 :    10.728789596933110
 Root     19 :    10.756765138348030
 Root     20 :    10.813792658677640
 Root     21 :    10.987456512443040
 Root     22 :    11.086941728478080
 Root     23 :    11.184286340745550
 Root     24 :    11.250362985561880
 Root     25 :    11.288238061711400
 Root     26 :    11.389482469791450
 Root     27 :    11.500179342910440
 Root     28 :    11.613834148693670
 Root     29 :    11.636424900012700
 Root     30 :    11.811181409769450
 Root     31 :    11.850187958257730
 Root     32 :    12.008890513331770
 Root     33 :    12.043662892979740
 Root     34 :    12.099312353565240
 Root     35 :    12.121400657783350
 Root     36 :    12.178316363766340
 Root     37 :    12.265201376779650
 Root     38 :    12.329332983199180
 Root     39 :    12.419231912554690
 Root     40 :    12.489078631526430
 Root     41 :    12.542563494345050
 Root     42 :    12.568995875396570
 Root     43 :    12.678751684184960
 Root     44 :    12.713628717916850
 Root     45 :    12.761948392067370
 Root     46 :    12.887664340394350
 Root     47 :    12.914834542832360
 Root     48 :    13.004648705737080
 Root     49 :    13.016633624925590
 Root     50 :    13.069382110618420
 Root     51 :    13.127715181050460
 Root     52 :    13.219376709534330
 Root     53 :    13.395553233120640
 Root     54 :    13.400780254381230
 Root     55 :    13.480953338224440
 Root     56 :    13.562457742962890
 Root     57 :    13.615308985029130
 Root     58 :    13.666620605748680
 Root     59 :    13.710473105877030
 Root     60 :    13.766412659801760
 Root     61 :    13.832636632918770
 Root     62 :    13.977782824287370
 Root     63 :    13.999826314847640
 Root     64 :    14.037614629965490
 Root     65 :    14.082412274171710
 Root     66 :    14.126418447054460
 Root     67 :    14.249010653479140
 Root     68 :    14.294113034959020
 Root     69 :    14.366306224348340
 Root     70 :    14.403894131822290
 Root     71 :    14.448095471726630
 Root     72 :    14.533959436173520
 Root     73 :    14.541424094956310
 Root     74 :    14.614515913698290
 Root     75 :    14.656638882474250
 Root     76 :    14.719332277440420
 Root     77 :    14.765206261364020
 Root     78 :    14.849156875819770
 Root     79 :    14.871496588172260
 Root     80 :    14.966531479847930
 Root     81 :    15.013971928128280
 Root     82 :    15.083652221215460
 Root     83 :    15.127245443413370
 Root     84 :    15.156774684366730
 Root     85 :    15.209209915087450
 Root     86 :    15.218974381564730
 Root     87 :    15.309027037936820
 Root     88 :    15.325453875784070
 Root     89 :    15.368053969172340
 Root     90 :    15.482150241221260
 Root     91 :    15.531775938336090
 Root     92 :    15.564451439370190
 Root     93 :    15.586545273751160
 Root     94 :    15.642431793277720
 Root     95 :    15.694906078108330
 Root     96 :    15.815046500095370
 Root     97 :    15.884424727098690
 Root     98 :    15.927032505949650
 Root     99 :    16.000035985797170
 Root    100 :    16.047723277306340
 Root    101 :    16.127127983756740
 Root    102 :    16.162520323079830
 Root    103 :    16.188425809004830
 Root    104 :    16.238464192012400
 Root    105 :    16.275016377873510
 Root    106 :    16.379196857253920
 Root    107 :    16.392494985011150
 Root    108 :    16.427056502381680
 Root    109 :    16.476609369522210
 Root    110 :    16.485174375786270
 Root    111 :    16.558923939875190
 Root    112 :    16.580365988033320
 Root    113 :    16.620668465712770
 Root    114 :    16.635783147784090
 Root    115 :    16.718840949343120
 Root    116 :    16.752559414219780
 Root    117 :    16.777323637580920
 Root    118 :    16.861968068186880
 Root    119 :    16.945232755443710
 Root    120 :    16.951712011566850
 Root    121 :    17.013590690620250
 Root    122 :    17.144009041257070
 Root    123 :    17.175608757048150
 Root    124 :    17.197558376163060
 Root    125 :    17.262957454922000
 Root    126 :    17.338080943868170
 Root    127 :    17.345149537967150
 Root    128 :    17.404766259793050
 Root    129 :    17.494206546737810
 Root    130 :    17.532144935494400
 Root    131 :    17.553383326959000
 Root    132 :    17.571327395520710
 Root    133 :    17.635994964503520
 Root    134 :    17.695400391076560
 Root    135 :    17.722049690164270
 Root    136 :    17.757476471132330
 Root    137 :    17.794117365540070
 Root    138 :    17.835156329758440
 Root    139 :    17.868897239110650
 Root    140 :    17.891995776170380
 Root    141 :    17.992552825836360
 Root    142 :    18.048069623984950
 Root    143 :    18.071954820541900
 Root    144 :    18.109052846110310
 Root    145 :    18.144390781274970
 Root    146 :    18.214817115299510
 Root    147 :    18.236450035601850
 Root    148 :    18.313390568360500
 Root    149 :    18.331661888082380
 Root    150 :    18.399956376688030
 Root    151 :    18.462332312794410
 Root    152 :    18.493635439776170
 Root    153 :    18.539051893817000
 Root    154 :    18.563808566014080
 Root    155 :    18.595314992008560
 Root    156 :    18.733058354168340
 Root    157 :    18.742645992817510
 Root    158 :    18.769311895561320
 Root    159 :    18.825832533310960
 Root    160 :    18.873256934527950
 Root    161 :    18.943603665855270
 Root    162 :    18.955364485617590
 Root    163 :    18.985413163431960
 Root    164 :    19.017545731348100
 Root    165 :    19.062807623398570
 Root    166 :    19.111561053266690
 Root    167 :    19.153900922968440
 Root    168 :    19.195981043429060
 Root    169 :    19.247372253347240
 Root    170 :    19.273131719086440
 Root    171 :    19.388790266274170
 Root    172 :    19.400099048800330
 Root    173 :    19.430029004172890
 Root    174 :    19.454689988923980
 Root    175 :    19.482364626242390
 Root    176 :    19.524167085815570
 Root    177 :    19.541379479968590
 Root    178 :    19.562090347638420
 Root    179 :    19.582639506736700
 Root    180 :    19.662040628095540
 Root    181 :    19.670343613697490
 Root    182 :    19.696157203296690
 Root    183 :    19.732041193475020
 Root    184 :    19.754131288266580
 Root    185 :    19.798705259419390
 Root    186 :    19.846705708793780
 Root    187 :    19.877029871534490
 Root    188 :    19.921236958450530
 Root    189 :    20.012911824158260
 Root    190 :    20.048382296886320
 Root    191 :    20.090897339627280
 Root    192 :    20.115312668113460
 Root    193 :    20.138271830961330
 Root    194 :    20.217506020009580
 Root    195 :    20.285209044995220
 Root    196 :    20.302842389732970
 Root    197 :    20.337649890707950
 Root    198 :    20.358490886916110
 Root    199 :    20.444932726516100
 Root    200 :    20.465865430543580
 Root    201 :    20.508267320298850
 Root    202 :    20.535283799249790
 Root    203 :    20.555147983595540
 Root    204 :    20.584515738330120
 Root    205 :    20.649416786733430
 Root    206 :    20.677681028388640
 Root    207 :    20.700799827612720
 Root    208 :    20.736546324480220
 Root    209 :    20.765353477848340
 Root    210 :    20.791985991930860
 Root    211 :    20.833386586031510
 Root    212 :    20.873169965633790
 Root    213 :    20.918945303861390
 Root    214 :    20.942460895059880
 Root    215 :    20.997482858840260
 Root    216 :    21.036229285938350
 Root    217 :    21.067444010582660
 Root    218 :    21.089697404169180
 Root    219 :    21.112056136442440
 Root    220 :    21.128742086970870
 Root    221 :    21.195517090192550
 Root    222 :    21.285071466061880
 Root    223 :    21.321185050414890
 Root    224 :    21.357740748915010
 Root    225 :    21.378573413634840
 Root    226 :    21.459307411168480
 Root    227 :    21.501887652079130
 Root    228 :    21.558410250237600
 Root    229 :    21.594045843299670
 Root    230 :    21.597940650021080
 Root    231 :    21.614943731370110
 Root    232 :    21.686359006293310
 Root    233 :    21.700751994980260
 Root    234 :    21.712649708601220
 Root    235 :    21.733353401518630
 Root    236 :    21.793233180089720
 Root    237 :    21.824561402064210
 Root    238 :    21.853893781161240
 Root    239 :    21.931980712090780
 Root    240 :    21.944126490811100
 Root    241 :    21.967138044823670
 Root    242 :    22.037700235363330
 Root    243 :    22.050527221281940
 Root    244 :    22.127600118216040
 Root    245 :    22.164409670641890
 Root    246 :    22.213081060421110
 Root    247 :    22.238464823587870
 Root    248 :    22.271619172300260
 Root    249 :    22.330678747335100
 Root    250 :    22.392610746800040
 Root    251 :    22.440300860027860
 Root    252 :    22.461932014089970
 Root    253 :    22.481372267221350
 Root    254 :    22.511351109433740
 Root    255 :    22.530677579629550
 Root    256 :    22.602249211512010
 Root    257 :    22.631616227193210
 Root    258 :    22.687114842669130
 Root    259 :    22.754167499103740
 Root    260 :    22.795844297224890
 Root    261 :    22.849174778523300
 Root    262 :    22.859103461323290
 Root    263 :    22.902566464688200
 Root    264 :    22.914755529601070
 Root    265 :    22.969550080706320
 Root    266 :    23.004779826810090
 Root    267 :    23.029803661206670
 Root    268 :    23.045251989960470
 Root    269 :    23.080664902599470
 Root    270 :    23.128251311507820
 Root    271 :    23.164884820285920
 Root    272 :    23.211097100800960
 Root    273 :    23.349090728613990
 Root    274 :    23.375506185692440
 Root    275 :    23.394665794061530
 Root    276 :    23.410325673510120
 Root    277 :    23.505134743576680
 Root    278 :    23.566207358612020
 Root    279 :    23.611442989333170
 Root    280 :    23.678874943685360
 Root    281 :    23.740362754619770
 Root    282 :    23.804489091933260
 Root    283 :    23.871997675567430
 Root    284 :    23.932507232740570
 Root    285 :    23.955613770721530
 Root    286 :    23.976380297690240
 Root    287 :    23.983701301346850
 Root    288 :    24.027219199850020
 Root    289 :    24.054051886722810
 Root    290 :    24.059418862822780
 Root    291 :    24.154431478528320
 Root    292 :    24.173727683898510
 Root    293 :    24.207083633840970
 Root    294 :    24.273990624354640
 Root    295 :    24.308515544538760
 Root    296 :    24.332900212080250
 Root    297 :    24.407843991384600
 Root    298 :    24.441303951448120
 Root    299 :    24.459602080251580
 Root    300 :    24.507856786908310
 Root    301 :    24.592509249041350
 Root    302 :    24.614327802344830
 Root    303 :    24.668955188612820
 Root    304 :    24.741312530267720
 Root    305 :    24.761065235420820
 Root    306 :    24.818224676242860
 Root    307 :    24.857824954009980
 Root    308 :    24.874727311230290
 Root    309 :    24.915034557057960
 Root    310 :    24.961005679415350
 Root    311 :    25.005684773211090
 Root    312 :    25.046352814113830
 Root    313 :    25.225554017401770
 Root    314 :    25.282350730899640
 Root    315 :    25.307720905572810
 Root    316 :    25.336409463561660
 Root    317 :    25.348141717360190
 Root    318 :    25.437953237736720
 Root    319 :    25.473825580628410
 Root    320 :    25.516738308953630
 Root    321 :    25.626243590890490
 Root    322 :    25.649924825941550
 Root    323 :    25.706438893004150
 Root    324 :    25.749426717774530
 Root    325 :    25.823304994004530
 Root    326 :    25.893799998262230
 Root    327 :    25.929049598361020
 Root    328 :    25.966955729370750
 Root    329 :    26.009494987898990
 Root    330 :    26.035561203080260
 Root    331 :    26.041825445685790
 Root    332 :    26.124324655925360
 Root    333 :    26.209294652561770
 Root    334 :    26.242115254851990
 Root    335 :    26.292420647967210
 Root    336 :    26.310926530405120
 Root    337 :    26.521429646551160
 Root    338 :    26.587571110018270
 Root    339 :    26.607290521599120
 Root    340 :    26.683430105556590
 Root    341 :    26.788623850093560
 Root    342 :    26.840245852810170
 Root    343 :    26.856873240651950
 Root    344 :    26.935806168978790
 Root    345 :    27.024023076398210
 Root    346 :    27.093730267493800
 Root    347 :    27.138190642045170
 Root    348 :    27.220488847669120
 Root    349 :    27.232554734078900
 Root    350 :    27.280887423545900
 Root    351 :    27.363644013502440
 Root    352 :    27.406938238326660
 Root    353 :    27.432378258398890
 Root    354 :    27.507880682803100
 Root    355 :    27.553975620935740
 Root    356 :    27.592689357529960
 Root    357 :    27.631869224917420
 Root    358 :    27.672588803803020
 Root    359 :    27.817121371184690
 Root    360 :    27.913498229007390
 Root    361 :    27.920139032720810
 Root    362 :    27.981603569799710
 Root    363 :    28.025310931990900
 Root    364 :    28.118568454391810
 Root    365 :    28.173654333825050
 Root    366 :    28.263579161995340
 Root    367 :    28.310142571594060
 Root    368 :    28.533205273671400
 Root    369 :    28.560254176647270
 Root    370 :    28.624738146052470
 Root    371 :    28.639905125955520
 Root    372 :    28.681578833648230
 Root    373 :    28.824466095692680
 Root    374 :    28.910392512853130
 Root    375 :    28.928831068723330
 Root    376 :    28.975495490991520
 Root    377 :    29.044296343268730
 Root    378 :    29.101243272552800
 Root    379 :    29.136821318938380
 Root    380 :    29.188667290065090
 Root    381 :    29.203886257656400
 Root    382 :    29.231408659525320
 Root    383 :    29.246573271656860
 Root    384 :    29.313667026962740
 Root    385 :    29.357206502659180
 Root    386 :    29.396922048484630
 Root    387 :    29.431812574948430
 Root    388 :    29.466087581747340
 Root    389 :    29.583167462586150
 Root    390 :    29.716304624246450
 Root    391 :    29.793003284275260
 Root    392 :    29.844689164417300
 Root    393 :    29.967738097685440
 Root    394 :    30.042071838944570
 Root    395 :    30.108288782146320
 Root    396 :    30.273906671573810
 Root    397 :    30.309715535861930
 Root    398 :    30.364599403689380
 Root    399 :    30.391435354468100
 Root    400 :    30.456318207242340
 Root    401 :    30.543354355505860
 Root    402 :    30.570185666535940
 Root    403 :    30.579673457295500
 Root    404 :    30.655340799847930
 Root    405 :    30.659544610072960
 Root    406 :    30.750956236393890
 Root    407 :    30.821074569915380
 Root    408 :    30.873847086048290
 Root    409 :    30.880315541612100
 Root    410 :    30.979195458896040
 Root    411 :    31.097476222680580
 Root    412 :    31.134932811950890
 Root    413 :    31.149195420144860
 Root    414 :    31.201343946317940
 Root    415 :    31.251404959732040
 Root    416 :    31.292827599197090
 Root    417 :    31.437222072732350
 Root    418 :    31.494217561039010
 Root    419 :    31.805306529843670
 Root    420 :    31.869455384291120
 Root    421 :    32.061104257423780
 Root    422 :    32.078167744853820
 Root    423 :    32.142902055404330
 Root    424 :    32.196759774876230
 Root    425 :    32.270874702879030
 Root    426 :    32.374647370544530
 Root    427 :    32.457375547054410
 Root    428 :    32.483489954319180
 Root    429 :    32.531949630195640
 Root    430 :    32.571166284672690
 Root    431 :    32.634767271054310
 Root    432 :    32.867096473120700
 Root    433 :    32.900385503061100
 Root    434 :    33.045395623804720
 Root    435 :    33.202292415025820
 Root    436 :    33.325357108181900
 Root    437 :    33.413202530552700
 Root    438 :    33.489114708753870
 Root    439 :    33.519484365282220
 Root    440 :    33.564729799124040
 Root    441 :    33.610823783782460
 Root    442 :    33.618947398275170
 Root    443 :    33.671752003020860
 Root    444 :    33.722799725758120
 Root    445 :    33.746691126207550
 Root    446 :    33.856030818799970
 Root    447 :    33.912979534085880
 Root    448 :    33.996453089033500
 Root    449 :    34.150120270224480
 Root    450 :    34.193596023592490
 Root    451 :    34.306176560412520
 Root    452 :    34.310291786818420
 Root    453 :    34.362011969798890
 Root    454 :    34.387453276663460
 Root    455 :    34.453526085567020
 Root    456 :    34.586618515462520
 Root    457 :    34.751569647726280
 Root    458 :    34.853345704233930
 Root    459 :    34.913301122445130
 Root    460 :    34.990265342597840
 Root    461 :    35.041862563514470
 Root    462 :    35.157530978750800
 Root    463 :    35.266343932103470
 Root    464 :    35.334472356175280
 Root    465 :    35.371608635639440
 Root    466 :    35.423169570849970
 Root    467 :    35.476046160538880
 Root    468 :    35.500481321277780
 Root    469 :    35.629093064825150
 Root    470 :    35.650918572360700
 Root    471 :    35.728568155001830
 Root    472 :    35.792384214295260
 Root    473 :    35.843707755347490
 Root    474 :    35.844528939167700
 Root    475 :    35.994264067076940
 Root    476 :    36.087840490266120
 Root    477 :    36.112617566176920
 Root    478 :    36.175602927621820
 Root    479 :    36.199662901082000
 Root    480 :    36.219774195779490
 Root    481 :    36.395087564606660
 Root    482 :    36.400589481317450
 Root    483 :    36.504082424523290
 Root    484 :    36.696031727461350
 Root    485 :    36.715468598360710
 Root    486 :    36.815980424902050
 Root    487 :    36.869111308374480
 Root    488 :    36.918514768596700
 Root    489 :    37.074633010638620
 Root    490 :    37.147384079011250
 Root    491 :    37.227448804929570
 Root    492 :    37.280251446107350
 Root    493 :    37.329892694521050
 Root    494 :    37.387130864335410
 Root    495 :    37.517202326761830
 Root    496 :    37.563952870868600
 Root    497 :    37.621102942530920
 Root    498 :    37.631008838241580
 Root    499 :    37.736969732071190
 Root    500 :    37.744734823142800
 Root    501 :    37.854620516465300
 Root    502 :    37.912627503031340
 Root    503 :    38.018901962107560
 Root    504 :    38.287304594873280
 Root    505 :    38.361697698086910
 Root    506 :    38.474212321848600
 Root    507 :    38.522185847414950
 Root    508 :    38.613568700589320
 Root    509 :    38.651160732178620
 Root    510 :    38.688740632046080
 Root    511 :    38.790099428366810
 Root    512 :    38.886616534491650
 Root    513 :    38.946886839140990
 Root    514 :    39.036462994678590
 Root    515 :    39.074065214596370
 Root    516 :    39.184371689807930
 Root    517 :    39.214038257347440
 Root    518 :    39.292034527483650
 Root    519 :    39.509487547576840
 Root    520 :    39.585821701036190
 Root    521 :    39.699879235993190
 Root    522 :    39.723549181849830
 Root    523 :    39.772634441128690
 Root    524 :    39.853767662556240
 Root    525 :    39.923599875380260
 Root    526 :    40.029080437637130
 Root    527 :    40.086301488269190
 Root    528 :    40.231764512990690
 Root    529 :    40.281836152421320
 Root    530 :    40.470679872701260
 Root    531 :    40.518162121597570
 Root    532 :    40.610118073779470
 Root    533 :    40.704754734189450
 Root    534 :    40.748426996218740
 Root    535 :    40.808903531990740
 Root    536 :    40.826838514319950
 Root    537 :    40.856237562766910
 Root    538 :    40.923027788153630
 Root    539 :    41.011753775560540
 Root    540 :    41.145068397694470
 Root    541 :    41.281626995767240
 Root    542 :    41.505995807215230
 Root    543 :    41.615447675761750
 Root    544 :    41.722509650318570
 Root    545 :    41.809810900001970
 Root    546 :    41.947548223835920
 Root    547 :    42.058113503755420
 Root    548 :    42.137755480872430
 Root    549 :    42.169454282108100
 Root    550 :    42.236372775434500
 Root    551 :    42.248373002634950
 Root    552 :    42.492275299632930
 Root    553 :    42.807071071895370
 Root    554 :    42.974164117148230
 Root    555 :    43.098326127227150
 Root    556 :    43.143090215422610
 Root    557 :    43.300747541325870
 Root    558 :    43.416717254610670
 Root    559 :    43.484443365360250
 Root    560 :    43.636916722663550
 Root    561 :    43.677720842979730
 Root    562 :    43.899309989556680
 Root    563 :    43.965476605038010
 Root    564 :    44.057442233644230
 Root    565 :    44.110748720946230
 Root    566 :    44.203726841353650
 Root    567 :    44.252641206614860
 Root    568 :    44.269279929598070
 Root    569 :    44.477779697713070
 Root    570 :    44.627860889439610
 Root    571 :    44.705174105106560
 Root    572 :    45.108296421150260
 Root    573 :    45.417635582351600
 Root    574 :    45.479328725299630
 Root    575 :    45.605207961755350
 Root    576 :    45.777071918400470
 Root    577 :    45.832285612869640
 Root    578 :    45.998899118064710
 Root    579 :    46.066247906475450
 Root    580 :    46.131167834764870
 Root    581 :    46.273313427606500
 Root    582 :    46.313144749920990
 Root    583 :    46.607964340641720
 Root    584 :    46.935215047040590
 Root    585 :    47.095700569198760
 Root    586 :    47.202590697521130
 Root    587 :    47.329820671803360
 Root    588 :    47.744476998184620
 Root    589 :    47.846739316565450
 Root    590 :    48.287950581543430
 Root    591 :    48.644534233003200
 Root    592 :    48.789744076542360
 Root    593 :    48.895627655747270
 Root    594 :    49.104217948379610
 Root    595 :    49.257539429491620
 Root    596 :    49.535938996347400
 Root    597 :    49.611588439623320
 Root    598 :    50.032525581984610
 Root    599 :    50.199251593172730
 Root    600 :    50.266615243086140
 Root    601 :    50.323481322642500
 Root    602 :    50.439012597549860
 Root    603 :    50.466124751747140
 Root    604 :    50.490795512469420
 Root    605 :    50.587037311611550
 Root    606 :    50.742635616399380
 Root    607 :    50.780439497432870
 Root    608 :    51.039404513618500
 Root    609 :    51.148307154268880
 Root    610 :    51.269707747937710
 Root    611 :    51.444783829433480
 Root    612 :    51.560473330231100
 Root    613 :    51.671270784211890
 Root    614 :    51.781720670016900
 Root    615 :    51.818993621166570
 Root    616 :    51.989597973048870
 Root    617 :    52.060650653841980
 Root    618 :    52.166925480380340
 Root    619 :    52.317929397233090
 Root    620 :    52.572395036581380
 Root    621 :    52.628206995161260
 Root    622 :    52.744868593252690
 Root    623 :    52.911138772443690
 Root    624 :    52.920534949952680
 Root    625 :    52.986488776148080
 Root    626 :    53.179315251363880
 Root    627 :    53.343299419946910
 Root    628 :    53.434391183244980
 Root    629 :    53.467658244704950
 Root    630 :    53.526314602643980
 Root    631 :    53.573734644726890
 Root    632 :    53.627432602274420
 Root    633 :    53.831148360872800
 Root    634 :    53.986722088480280
 Root    635 :    54.009068901543710
 Root    636 :    54.175517187924090
 Root    637 :    54.211822572594600
 Root    638 :    54.539128370178680
 Root    639 :    54.597302271840870
 Root    640 :    54.682401102090030
 Root    641 :    54.871346181436490
 Root    642 :    55.076702587977390
 Root    643 :    55.142867763756750
 Root    644 :    55.193762555069480
 Root    645 :    55.297039625245640
 Root    646 :    55.391851128960450
 Root    647 :    55.575055676933100
 Root    648 :    55.824541310634300
 Root    649 :    55.893989239335640
 Root    650 :    56.453605601476790
 Root    651 :    56.572239324742850
 Root    652 :    56.690093427835200
 Root    653 :    56.720972744671020
 Root    654 :    56.739367339063890
 Root    655 :    56.991276761778080
 Root    656 :    57.104699650270120
 Root    657 :    57.154958938759410
 Root    658 :    57.193694714958520
 Root    659 :    57.267885093142120
 Root    660 :    57.427433998559030
 Root    661 :    57.479264947425830
 Root    662 :    57.582642926377130
 Root    663 :    57.810530920529400
 Root    664 :    58.057698297085810
 Root    665 :    58.260864676527830
 Root    666 :    58.381574335053490
 Root    667 :    58.461287172178050
 Root    668 :    58.641467047300090
 Root    669 :    58.702329729078550
 Root    670 :    58.806241145523710
 Root    671 :    58.948178506014670
 Root    672 :    59.008646918305570
 Root    673 :    59.144000578001190
 Root    674 :    59.416557657516240
 Root    675 :    59.607150935283380
 Root    676 :    59.677857651390620
 Root    677 :    59.777166083023650
 Root    678 :    59.865889819390710
 Root    679 :    59.946495417098890
 Root    680 :    59.956283454630650
 Root    681 :    60.101205026231280
 Root    682 :    60.208096421010660
 Root    683 :    60.283263280130810
 Root    684 :    60.474579936679280
 Root    685 :    60.551937057269880
 Root    686 :    60.722633845600550
 Root    687 :    60.749623227091070
 Root    688 :    60.898982008678620
 Root    689 :    60.925257078157910
 Root    690 :    61.198108251147750
 Root    691 :    61.322937198803120
 Root    692 :    61.360675116298690
 Root    693 :    61.428318211182920
 Root    694 :    61.473688869331720
 Root    695 :    61.563734644810910
 Root    696 :    61.653536632908600
 Root    697 :    61.753429384664480
 Root    698 :    61.805628615101010
 Root    699 :    61.840482518492980
 Root    700 :    61.903771469134590
 Root    701 :    61.948563416968720
 Root    702 :    61.974544498089290
[...]
     16  -0.890442D-03 -0.172101D+00  0.735404D-01 -0.153425D+00  0.960476D-02
               911           912           913           914           915 
      1  -0.151494D+03 -0.151486D+03 -0.151484D+03 -0.151476D+03 -0.151467D+03
      2  -0.106415D-01  0.191678D-01  0.241615D-01 -0.909564D-01  0.452390D-01
      3  -0.153065D-01  0.630180D-01  0.394676D-01 -0.153357D-01 -0.212110D-01
      4   0.202863D-02  0.165048D-01  0.822886D-01  0.430849D-01  0.567564D-01
      5   0.248694D-01 -0.528258D-01 -0.687044D-01  0.270209D+00 -0.139558D+00
      6   0.474775D-01 -0.187706D+00 -0.109826D+00  0.392081D-01  0.593207D-01
      7   0.134755D-02 -0.442833D-01 -0.246037D+00 -0.132996D+00 -0.164592D+00
      8  -0.535566D-01 -0.907409D-01 -0.179321D-01  0.979743D-01 -0.635823D-01
      9   0.370953D-01 -0.159302D+00  0.202422D+00  0.621421D+00 -0.223747D+00
     10   0.586604D-01  0.238145D+00 -0.282162D+00  0.193121D+00 -0.149860D+00
     11   0.783003D+00 -0.649892D+00  0.201153D+00  0.109570D+01 -0.480558D+00
     12   0.200673D+00 -0.991586D-01  0.195354D+00 -0.571461D-01 -0.636690D-01
     13  -0.637668D-01 -0.183346D-01 -0.421655D-02  0.131733D+00 -0.318400D-01
     14   0.975018D-01  0.290037D+00 -0.161383D+00 -0.168117D+00 -0.911948D-01
     15   0.212887D-02  0.168503D+00 -0.934919D-01 -0.648057D+00  0.207001D+00
     16  -0.295131D-01 -0.274446D-01  0.481544D-01  0.130286D+00 -0.459433D-01
               916           917           918           919           920 
      1  -0.151460D+03 -0.151454D+03 -0.151446D+03 -0.151438D+03 -0.151437D+03
      2  -0.347051D-01 -0.970042D-03  0.833911D-01  0.531682D-01 -0.229421D-01
      3  -0.641731D-01 -0.386451D-01  0.245656D-01 -0.277929D-03 -0.251671D-01
      4  -0.890344D-01 -0.101084D-01  0.759627D-03 -0.940909D-01  0.579040D-01
      5   0.114637D+00 -0.241323D-02 -0.257962D+00 -0.162004D+00  0.826421D-01
      6   0.192215D+00  0.115376D+00 -0.762629D-01  0.938144D-03  0.798185D-01
      7   0.269390D+00  0.426604D-01  0.166510D-02  0.286396D+00 -0.181715D+00
      8  -0.982614D-01 -0.123308D+00 -0.334238D-02  0.236403D-02  0.359397D-02
      9  -0.720887D+00 -0.912277D-01  0.139880D+00 -0.443813D+00  0.297965D+00
     10  -0.240024D+00  0.438111D+00 -0.287634D+00 -0.355269D-01  0.157694D+00
     11  -0.322971D+00  0.422913D+00 -0.280383D+00  0.938993D-01 -0.918360D-01
     12   0.110445D+00  0.109479D-01  0.239740D+00 -0.196409D+00  0.563095D-01
     13  -0.161179D+00 -0.146045D+00  0.563608D-01 -0.478186D-01  0.656991D-01
     14  -0.192120D+00  0.272371D+00 -0.131216D+00 -0.486766D-01  0.109194D+00
     15   0.748907D+00  0.532792D-02 -0.849132D-01  0.491190D+00 -0.351980D+00
     16  -0.434191D-01 -0.164087D+00  0.102438D+00 -0.108731D-01 -0.704077D-02
               921           922           923           924           925 
      1  -0.151432D+03 -0.151427D+03 -0.151425D+03 -0.151413D+03 -0.151411D+03
      2   0.255268D-01 -0.285139D-01  0.296679D-01 -0.208265D-01 -0.412275D-01
      3   0.280372D-01  0.653559D-01  0.442845D-01 -0.405778D-01  0.103373D+00
      4  -0.620138D-01 -0.266256D-01  0.305100D-01 -0.178798D-01 -0.254790D-01
      5  -0.638123D-01  0.907297D-01 -0.891696D-01  0.658132D-01  0.127413D+00
      6  -0.931626D-01 -0.203105D+00 -0.136858D+00  0.121913D+00 -0.306083D+00
      7   0.192314D+00  0.838145D-01 -0.845388D-01  0.543543D-01  0.773424D-01
      8  -0.126156D+00 -0.100755D+00 -0.634159D-01  0.396734D-01 -0.996965D-01
      9  -0.148376D+00 -0.112743D+00  0.315017D+00 -0.222214D+00 -0.340996D+00
     10  -0.273171D+00 -0.450584D+00 -0.431953D+00  0.352931D+00 -0.135940D+00
     11   0.334219D+00 -0.396603D+00 -0.137805D+00  0.222342D+00  0.157830D+00
     12   0.349410D+00 -0.101245D+00  0.335275D+00 -0.472435D-01 -0.606394D-02
     13  -0.220809D+00  0.114266D+00  0.165825D+00 -0.516515D-01 -0.365161D-01
     14  -0.195615D-01 -0.544674D+00 -0.336176D+00  0.481220D+00 -0.442133D+00
     15   0.193582D+00  0.153635D+00 -0.405055D+00  0.353514D+00  0.282466D+00
     16   0.179733D-01 -0.163622D-01  0.327245D-01 -0.527114D-01  0.421773D-02
               926           927           928           929           930 
      1  -0.151406D+03 -0.151393D+03 -0.151390D+03 -0.151382D+03 -0.151373D+03
      2   0.814855D-03  0.689862D-01 -0.900777D-01  0.841986D-01 -0.245624D-01
      3   0.593282D-01  0.133492D-01 -0.645760D-01  0.372128D-01 -0.896825D-02
      4   0.807014D-01 -0.107660D+00 -0.298930D-01  0.214873D-01  0.773899D-01
      5  -0.485331D-02 -0.203003D+00  0.274861D+00 -0.243106D+00  0.847446D-01
      6  -0.169294D+00 -0.675120D-01  0.192703D+00 -0.110253D+00  0.200719D-01
      7  -0.228883D+00  0.337153D+00  0.943212D-01 -0.673452D-01 -0.230699D+00
      8  -0.347452D-02 -0.255799D+00 -0.198884D-01  0.644324D-01 -0.383419D-01
      9   0.591735D+00 -0.719838D+00 -0.290372D+00  0.175413D+00  0.216248D+00
     10  -0.317660D+00 -0.312641D+00  0.600780D+00 -0.152215D+00 -0.518106D+00
     11  -0.992544D+00 -0.802413D+00  0.112005D+01 -0.144669D+01  0.108268D+01
     12   0.102048D+00  0.379432D-01  0.182194D+00 -0.413166D-01 -0.870347D-01
     13   0.200843D+00 -0.199043D+00 -0.818940D-01  0.113763D+00  0.269448D+00
     14  -0.539210D+00  0.614926D-01  0.327369D+00 -0.103781D+00 -0.605964D+00
     15  -0.586893D+00  0.919141D+00  0.329048D-01  0.732289D-01 -0.278166D+00
     16   0.633757D-01 -0.223307D+00 -0.403815D-01  0.521227D-01  0.156234D-01
               931           932           933           934           935 
      1  -0.151365D+03 -0.151356D+03 -0.151351D+03 -0.151348D+03 -0.151344D+03
      2  -0.612352D-02 -0.381160D-01 -0.564056D-01 -0.576552D-02 -0.132065D+00
      3  -0.283604D-01  0.521230D-01  0.290602D-01 -0.157675D-01 -0.380788D-01
      4  -0.300927D-01  0.506697D-01  0.744261D-01 -0.357093D-01  0.701320D-01
      5   0.148809D-01  0.129288D+00  0.181238D+00  0.100337D-01  0.417266D+00
      6   0.892365D-01 -0.164625D+00 -0.885456D-01  0.431326D-01  0.106428D+00
      7   0.975802D-01 -0.154296D+00 -0.213483D+00  0.102603D+00 -0.230010D+00
      8  -0.336804D-01  0.263819D-01  0.149769D+00  0.166887D-01  0.146160D+00
      9  -0.133981D+00 -0.982758D-01  0.802947D+00 -0.533575D-01  0.538900D+00
     10   0.107009D+00 -0.252819D+00 -0.237992D+00  0.158325D+00  0.803595D+00
     11   0.430445D+00  0.342612D+00  0.129928D+00 -0.465343D-01  0.260937D+01
     12  -0.297502D+00  0.474775D-01  0.498108D-01 -0.900687D-01 -0.247953D+00
     13  -0.168947D+00  0.841597D-01  0.253091D+00  0.120210D+00  0.682427D-01
     14   0.471007D-01 -0.441661D+00 -0.392749D+00  0.191231D+00  0.416737D+00
     15   0.142645D+00 -0.104726D+00 -0.892037D+00  0.454949D-02 -0.836614D+00
     16  -0.146998D+00  0.151738D+00  0.219723D+00 -0.855186D-02 -0.315301D-01
               936           937           938           939           940 
      1  -0.151340D+03 -0.151309D+03 -0.151305D+03 -0.151302D+03 -0.151298D+03
      2  -0.611439D-01  0.605886D-01 -0.448843D-02  0.683197D-01 -0.965823D-02
      3  -0.257799D-01 -0.161256D-01  0.225366D-01  0.229228D-01 -0.119116D-01
      4   0.754858D-01 -0.530979D-01  0.185932D-01 -0.886931D-03 -0.231549D-02
      5   0.184562D+00 -0.190998D+00  0.361791D-01 -0.167566D+00  0.296063D-01
      6   0.825208D-01  0.582278D-01 -0.565048D-01 -0.522691D-01  0.319453D-01
      7  -0.230579D+00  0.161961D+00 -0.560200D-01  0.714650D-02 -0.132927D-01
      8   0.480639D-01 -0.107617D+00 -0.154610D-02 -0.142365D-01  0.104038D+00
      9   0.395294D+00  0.100146D+00  0.227211D+00 -0.822604D-01  0.576232D+00
     10   0.403131D+00 -0.650958D-01 -0.207871D+00 -0.117610D+00  0.374016D-01
     11   0.997281D+00 -0.935056D+00  0.290784D+00  0.477625D+00  0.329972D+00
     12  -0.846860D-01 -0.126472D+00  0.148353D+00 -0.129199D+00  0.465688D-01
     13   0.922893D-01 -0.884750D-01  0.148847D+00  0.256747D-01  0.145008D+00
     14   0.300081D+00  0.446599D-01 -0.151407D+00 -0.215804D-01 -0.103058D-02
     15  -0.468101D+00  0.111547D+00 -0.248886D+00  0.657586D-01 -0.667866D+00
     16  -0.174265D-01 -0.377972D-01  0.516075D-01 -0.153738D-01  0.150725D+00
               941           942           943           944           945 
      1  -0.151283D+03 -0.151274D+03 -0.151256D+03 -0.151251D+03 -0.151237D+03
      2  -0.383910D-01  0.775550D-01 -0.155915D-01  0.124093D-01  0.278909D-01
      3  -0.148608D-01  0.729605D-02  0.692902D-01  0.827557D-02 -0.293896D-01
      4   0.935062D-01 -0.390451D-01 -0.173702D-01  0.197112D-01 -0.491074D-01
      5   0.123358D+00 -0.255046D+00  0.520779D-01 -0.429975D-01 -0.108235D+00
      6   0.561762D-01 -0.254292D-01 -0.194215D+00 -0.176039D-01  0.100587D+00
      7  -0.287667D+00  0.149064D+00  0.475771D-01 -0.566185D-01  0.160674D+00
      8   0.153557D+00 -0.253403D+00 -0.467717D-01 -0.290943D-02  0.728085D-01
      9   0.487938D+00 -0.416273D+00 -0.890807D-02  0.279322D+00 -0.421593D+00
     10   0.212082D+00 -0.896816D-01  0.179765D+00  0.216958D+00  0.186542D+00
     11   0.767486D+00 -0.108347D+01 -0.476436D-01 -0.250215D+00 -0.472450D+00
     12  -0.171139D+00  0.288055D+00  0.128533D+00 -0.680861D-01  0.102808D+00
     13   0.947196D-01 -0.154132D+00 -0.113912D+00 -0.350568D-01 -0.867528D-01
     14   0.207104D+00  0.206476D+00  0.287973D+00  0.845671D-01  0.387925D+00
     15  -0.588759D+00  0.607152D+00  0.327176D-01 -0.245073D+00  0.604846D+00
     16   0.162920D+00 -0.707892D-01 -0.196610D-01  0.490543D-01  0.645570D-01
               946           947           948           949           950 
      1  -0.151203D+03 -0.151188D+03 -0.151178D+03 -0.151173D+03 -0.151151D+03
      2   0.785326D-01 -0.285739D-02  0.507897D-01  0.109031D+00  0.356667D-01
      3   0.113162D+00  0.287296D-01 -0.258457D-01  0.178654D+00  0.450264D-02
      4   0.727783D-01  0.590646D-01  0.104252D+00  0.126880D+00  0.670360D-01
      5  -0.253363D+00  0.113168D-01 -0.172873D+00 -0.335947D+00 -0.128327D+00
      6  -0.347722D+00 -0.891707D-01  0.976519D-01 -0.576918D+00 -0.295457D-01
      7  -0.232053D+00 -0.165759D+00 -0.337357D+00 -0.412286D+00 -0.203792D+00
      8  -0.145057D-01  0.131002D+00  0.111019D+00  0.147681D+00 -0.592766D-01
      9   0.750577D+00 -0.388317D+00  0.436115D+00  0.955466D+00  0.271570D+00
     10  -0.636593D+00  0.361234D-01  0.125171D+00 -0.147489D+01 -0.424921D+00
     11  -0.150446D+01 -0.206520D+00 -0.715999D+00 -0.143705D+01 -0.812530D+00
     12   0.205900D+00  0.117327D+00 -0.779947D-01  0.421367D+00  0.221036D+00
     13   0.178318D+00 -0.833130D-01  0.206558D+00  0.304154D+00  0.784885D-01
     14  -0.548257D+00 -0.127172D+00  0.341652D+00 -0.118243D+01 -0.295530D+00
     15  -0.593484D+00  0.407756D+00 -0.454349D+00 -0.813401D+00 -0.293320D+00
     16   0.223074D+00 -0.528624D-01  0.170590D+00  0.348988D+00  0.788416D-01
               951           952           953           954           955 
      1  -0.151149D+03 -0.151128D+03 -0.151123D+03 -0.151112D+03 -0.151102D+03
      2   0.309125D-01  0.279581D-02  0.402366D-01 -0.875391D-01  0.278411D-01
      3   0.372622D-01 -0.287387D-01  0.105369D-01  0.381275D-01  0.794887D-01
      4   0.824626D-01 -0.366506D-01  0.109810D-01 -0.306313D-01  0.842787D-01
      5  -0.104509D+00 -0.250760D-01 -0.126349D+00  0.301266D+00 -0.809530D-01
      6  -0.130090D+00  0.763743D-01 -0.271519D-01 -0.131268D+00 -0.268728D+00
      7  -0.255753D+00  0.105349D+00 -0.298472D-01  0.104430D+00 -0.267867D+00
      8  -0.510102D-01  0.500016D-01 -0.271173D-02 -0.184955D+00  0.949807D-01
      9   0.349086D+00  0.405306D-01  0.123160D+00 -0.436757D+00  0.570705D+00
     10  -0.462447D+00 -0.350147D+00  0.282812D-01 -0.210035D+00 -0.778649D+00
     11  -0.478798D+00  0.143529D-01 -0.555964D+00  0.116508D+01 -0.570480D+00
     12   0.475902D-01 -0.962134D-01 -0.686548D-01  0.204835D+00  0.417161D+00
     13   0.980660D-01  0.391614D-01  0.685591D-01 -0.156129D+00  0.203938D+00
     14  -0.426311D+00 -0.164709D+00  0.242518D+00 -0.396497D+00 -0.675247D+00
     15  -0.344934D+00  0.764068D-01 -0.276930D-01  0.460486D+00 -0.632661D+00
     16   0.784590D-01  0.147485D-01  0.290212D-01 -0.967885D-01  0.272220D+00
               956           957           958           959           960 
      1  -0.151074D+03 -0.151058D+03 -0.151036D+03 -0.151023D+03 -0.151000D+03
      2   0.183020D-01 -0.898950D-01 -0.915836D-01  0.492512D-01 -0.356365D-01
      3  -0.702160D-01 -0.370155D-01  0.493004D-01  0.316618D-01  0.235465D-01
      4   0.142185D-01 -0.501004D-01 -0.299397D-02  0.872021D-02  0.383228D-01
      5  -0.530648D-01  0.296442D+00  0.319012D+00 -0.148334D+00  0.116605D+00
      6   0.223332D+00  0.120075D+00 -0.178939D+00 -0.899740D-01 -0.769582D-01
      7  -0.333950D-01  0.166956D+00  0.163604D-01 -0.270743D-01 -0.108187D+00
      8  -0.416202D-01 -0.953075D-01 -0.165316D+00  0.307265D-02 -0.450508D-01
      9  -0.259412D+00 -0.507897D+00 -0.169937D+00  0.719734D-01 -0.337727D+00
     10  -0.312093D-01  0.531131D+00 -0.308523D+00 -0.131574D+00 -0.220196D-01
     11   0.446447D+00  0.151708D+01  0.153812D+01 -0.322153D+00  0.244215D+00
     12  -0.270926D+00 -0.477173D+00  0.160629D+00 -0.304476D+00  0.182458D-02
     13   0.458517D-01 -0.814162D-01 -0.131726D+00  0.118988D+00 -0.588684D-01
     14   0.126510D+00  0.457198D+00 -0.542742D+00 -0.896605D-01 -0.366874D-01
     15   0.283377D+00  0.396086D+00  0.930509D-01  0.658625D-02  0.371104D+00
     16  -0.147081D+00 -0.214162D+00 -0.133080D+00 -0.569448D-01 -0.210661D-01
               961           962           963           964           965 
      1  -0.150991D+03 -0.150983D+03 -0.150905D+03 -0.150886D+03 -0.150874D+03
      2  -0.134748D+00 -0.328763D-01 -0.228272D-01 -0.106663D-01  0.464831D-01
      3   0.118050D+00 -0.389086D-01 -0.106381D-01 -0.128007D-01 -0.252966D-01
      4   0.157869D-01 -0.345184D-01  0.121214D-01  0.355673D-01  0.895895D-02
      5   0.483788D+00  0.109615D+00  0.810943D-01  0.334390D-01 -0.200812D+00
      6  -0.421142D+00  0.133407D+00  0.351229D-01  0.388298D-01  0.121155D+00
      7  -0.528689D-01  0.116016D+00 -0.398063D-01 -0.113134D+00 -0.263382D-01
      8   0.236415D-02 -0.778736D-01  0.434932D-01 -0.554912D-01  0.225556D-01
      9   0.142628D+00 -0.342632D+00  0.313843D-01  0.131297D+00  0.824043D-01
     10  -0.816626D+00  0.461735D+00  0.935706D-01 -0.232952D-01  0.108359D+00
     11   0.179852D+01  0.303904D+00  0.339312D+00  0.229974D+00 -0.140455D+01
     12   0.161984D+00 -0.284233D+00 -0.986181D-01 -0.671566D-01 -0.204467D+00
     13   0.104399D+00  0.295575D+00  0.986467D-01  0.106405D-01  0.457285D-01
     14  -0.897506D+00  0.122624D+00  0.144538D-01 -0.383160D-02  0.717671D+00
     15  -0.385390D+00  0.345105D+00  0.102898D+00  0.255414D-01  0.100907D+00
     16   0.238037D+00  0.272877D-01  0.671733D-02 -0.508258D-01 -0.552375D-01
               966           967           968           969           970 
      1  -0.150858D+03 -0.150797D+03 -0.150778D+03 -0.150753D+03 -0.150732D+03
      2   0.123569D-01 -0.861689D-02 -0.729547D-01 -0.216690D-01  0.241068D-01
      3  -0.333783D-01 -0.651411D-02 -0.845944D-01  0.294544D-01  0.294166D-02
      4  -0.546485D-01  0.246216D-01 -0.767686D-01 -0.107125D-01  0.317097D-02
      5  -0.617110D-01  0.351599D-01  0.275625D+00  0.526674D-01 -0.106092D+00
      6   0.123994D+00  0.184814D-01  0.318067D+00 -0.845267D-01 -0.250330D-02
      7   0.188095D+00 -0.847674D-01  0.288637D+00  0.395213D-01  0.149670D-02
      8  -0.102516D-02 -0.901518D-02 -0.104379D+00 -0.282615D-01 -0.944579D-01
      9  -0.297379D+00  0.877830D-01 -0.723066D+00 -0.658281D-01 -0.161549D+00
     10   0.142780D+00  0.157434D-01  0.877248D+00 -0.138538D-01 -0.522345D-01
     11  -0.332945D+00  0.155076D+00  0.126919D+01 -0.336807D+00 -0.517624D+00
     12  -0.275624D+00  0.585797D-01 -0.716810D-01 -0.234815D+00 -0.229021D-01
     13   0.132802D+00  0.520047D-01 -0.314487D+00  0.392058D-01 -0.227352D-01
     14   0.183252D+00 -0.118868D+00  0.679421D+00  0.343680D+00  0.606554D-01
     15   0.229806D+00 -0.960445D-01  0.520528D+00  0.138939D+00  0.554442D-01
     16  -0.855984D-01  0.664283D-01 -0.203534D+00 -0.206700D-01 -0.110944D+00
               971           972           973           974           975 
      1  -0.150701D+03 -0.150650D+03 -0.150637D+03 -0.150591D+03 -0.150573D+03
      2   0.816119D-01 -0.684353D-01 -0.287602D-01  0.154071D-01 -0.655822D-01
      3  -0.137238D+00  0.598455D-01 -0.484396D-01 -0.408742D-01  0.600405D-02
      4   0.777691D-01  0.186169D-01  0.195363D-01  0.852907D-01  0.515006D-01
      5  -0.325894D+00  0.279429D+00  0.116142D+00 -0.574751D-01  0.268285D+00
      6   0.528565D+00 -0.244410D+00  0.176005D+00  0.151399D+00 -0.294595D-01
      7  -0.292233D+00 -0.775710D-01 -0.653161D-01 -0.323519D+00 -0.204183D+00
      8   0.182586D+00 -0.255342D-01  0.463341D-01  0.184871D+00  0.663190D-01
      9   0.666204D+00  0.938614D-01  0.145276D+00  0.729318D+00  0.389789D+00
     10   0.100580D+01 -0.423948D+00  0.427466D+00  0.335784D+00  0.175621D-01
     11  -0.169224D+01  0.132407D+01  0.437855D+00 -0.393811D+00  0.121179D+01
     12  -0.374018D+00  0.219180D+00 -0.142997D-01 -0.240144D+00  0.606956D-01
     13   0.167657D+00  0.729587D-01 -0.153437D-01  0.295151D+00  0.139962D+00
     14   0.134866D+01 -0.681426D+00  0.390748D+00  0.413960D+00 -0.187606D+00
     15  -0.487851D+00 -0.205790D+00 -0.227674D+00 -0.711171D+00 -0.513935D+00
     16  -0.183207D+00  0.948838D-01 -0.814915D-01 -0.459442D-02  0.294495D-01
               976           977           978           979           980 
      1  -0.150529D+03 -0.150500D+03 -0.150410D+03 -0.150284D+03 -0.150049D+03
      2  -0.356505D-01 -0.155623D-01  0.192921D-01  0.148965D-02  0.764005D-02
      3  -0.813224D-01 -0.310191D-01  0.294605D-01  0.843493D-02  0.206606D-01
      4   0.929393D-01  0.570013D-01 -0.576993D-01 -0.755171D-02 -0.288810D-01
      5   0.159405D+00  0.106059D-01 -0.905917D-01 -0.149935D-01 -0.578812D-01
      6   0.298374D+00  0.153890D+00 -0.106564D+00 -0.319593D-01 -0.555361D-01
      7  -0.365504D+00 -0.213787D+00  0.230767D+00  0.324885D-01  0.110532D+00
      8   0.246264D+00  0.143227D+00 -0.128425D+00 -0.872850D-02 -0.509059D-01
      9   0.832503D+00  0.505823D+00 -0.508187D+00 -0.622700D-01 -0.229548D+00
     10   0.759483D+00  0.398605D+00 -0.298682D+00 -0.533308D-01 -0.142079D+00
     11   0.609193D+00  0.272410D-01 -0.594043D+00 -0.317043D+00 -0.131280D+00
     12  -0.290092D+00 -0.190271D+00  0.404296D-01 -0.784868D-01  0.238847D-01
     13   0.290213D+00  0.733423D-01 -0.173946D+00  0.130519D-01 -0.100852D+00
     14   0.775286D+00  0.260543D+00 -0.852911D-01  0.752189D-01 -0.925979D-01
     15  -0.978716D+00 -0.603440D+00  0.621249D+00  0.101179D+00  0.277135D+00
     16  -0.222150D-01 -0.114911D+00 -0.546710D-01 -0.589089D-01  0.162971D+00
 Unable to Open any file for archive entry.
 1\1\GINC-HEL24\SP\RTPSSh TD-FC\Gen\C2H6O1\SABYASACHI\21-Mar-2022\0\\#P
  TD(Nstates=10000) tpssh/Gen SCF(maxcycles=100) Int(Grid=ultrafine)\\x
 GDB7_00001_tier4.com\\0,1\C,0,-1.208422,-0.239069,-0.021917\C,0,0.0838
 93,0.553452,0.046734\O,0,1.233467,-0.256002,-0.105864\H,0,-2.071999,0.
 425136,0.0517\H,0,-1.27067,-0.957756,0.799731\H,0,-1.270625,-0.78828,-
 0.962327\H,0,0.13003,1.119197,0.986112\H,0,0.125952,1.277026,-0.768547
 \H,0,1.236751,-0.913605,0.591341\\Version=EM64L-G16RevC.01\State=1-A\H
 F=-154.9450348\RMSD=1.476e-09\PG=C01 [X(C2H6O1)]\\@
 The archive entry for this job was punched.


 ... IT CAN BE VERY DIFFICULT, IN THESE COMPLEX TIMES,
 TO UNDERSTAND JUST HOW SCIENTISTS DO WHAT THEY DO.

                     DON MOSER IN THE FEBRUARY 1979 SMITHSONIAN
 Job cpu time:       0 days  0 hours 52 minutes 42.1 seconds.
 Elapsed time:       0 days  0 hours  6 minutes 35.6 seconds.
 File lengths (MBytes):  RWF=   1237 Int=      0 D2E=      0 Chk=    291 Scr=      1
 Normal termination of Gaussian 16 at Mon Mar 21 20:15:27 2022.
