 Entering Gaussian System, Link 0=g16
 Input=000005.com
 Output=000005.log
 Initial command:
 /home/sabyasachi/g16/l1.exe "/scratch/sabyasachi/PBS_7976073.helios/Gau-42715.inp" -scrdir="/scratch/sabyasachi/PBS_7976073.helios/"
 Entering Link 1 = /home/sabyasachi/g16/l1.exe PID=     42716.
  
 Copyright (c) 1988-2019, Gaussian, Inc.  All Rights Reserved.
  
 This is part of the Gaussian(R) 16 program.  It is based on
 the Gaussian(R) 09 system (copyright 2009, Gaussian, Inc.),
 the Gaussian(R) 03 system (copyright 2003, Gaussian, Inc.),
 the Gaussian(R) 98 system (copyright 1998, Gaussian, Inc.),
 the Gaussian(R) 94 system (copyright 1995, Gaussian, Inc.),
 the Gaussian 92(TM) system (copyright 1992, Gaussian, Inc.),
 the Gaussian 90(TM) system (copyright 1990, Gaussian, Inc.),
 the Gaussian 88(TM) system (copyright 1988, Gaussian, Inc.),
 the Gaussian 86(TM) system (copyright 1986, Carnegie Mellon
 University), and the Gaussian 82(TM) system (copyright 1983,
 Carnegie Mellon University). Gaussian is a federally registered
 trademark of Gaussian, Inc.
  
 This software contains proprietary and confidential information,
 including trade secrets, belonging to Gaussian, Inc.
  
 This software is provided under written license and may be
 used, copied, transmitted, or stored only in accord with that
 written license.
  
 The following legend is applicable only to US Government
 contracts under FAR:
  
                    RESTRICTED RIGHTS LEGEND
  
 Use, reproduction and disclosure by the US Government is
 subject to restrictions as set forth in subparagraphs (a)
 and (c) of the Commercial Computer Software - Restricted
 Rights clause in FAR 52.227-19.
  
 Gaussian, Inc.
 340 Quinnipiac St., Bldg. 40, Wallingford CT 06492
  
  
 ---------------------------------------------------------------
 Warning -- This program may not be used in any manner that
 competes with the business of Gaussian, Inc. or will provide
 assistance to any competitor of Gaussian, Inc.  The licensee
 of this program is prohibited from giving any competitor of
 Gaussian, Inc. access to this program.  By using this program,
 the user acknowledges that Gaussian, Inc. is engaged in the
 business of creating and licensing software in the field of
 computational chemistry and represents and warrants to the
 licensee that it is not a competitor of Gaussian, Inc. and that
 it will not use this program in any manner prohibited above.
 ---------------------------------------------------------------
  

 Cite this work as:
 Gaussian 16, Revision C.01,
 M. J. Frisch, G. W. Trucks, H. B. Schlegel, G. E. Scuseria, 
 M. A. Robb, J. R. Cheeseman, G. Scalmani, V. Barone, 
 G. A. Petersson, H. Nakatsuji, X. Li, M. Caricato, A. V. Marenich, 
 J. Bloino, B. G. Janesko, R. Gomperts, B. Mennucci, H. P. Hratchian, 
 J. V. Ortiz, A. F. Izmaylov, J. L. Sonnenberg, D. Williams-Young, 
 F. Ding, F. Lipparini, F. Egidi, J. Goings, B. Peng, A. Petrone, 
 T. Henderson, D. Ranasinghe, V. G. Zakrzewski, J. Gao, N. Rega, 
 G. Zheng, W. Liang, M. Hada, M. Ehara, K. Toyota, R. Fukuda, 
 J. Hasegawa, M. Ishida, T. Nakajima, Y. Honda, O. Kitao, H. Nakai, 
 T. Vreven, K. Throssell, J. A. Montgomery, Jr., J. E. Peralta, 
 F. Ogliaro, M. J. Bearpark, J. J. Heyd, E. N. Brothers, K. N. Kudin, 
 V. N. Staroverov, T. A. Keith, R. Kobayashi, J. Normand, 
 K. Raghavachari, A. P. Rendell, J. C. Burant, S. S. Iyengar, 
 J. Tomasi, M. Cossi, J. M. Millam, M. Klene, C. Adamo, R. Cammi, 
 J. W. Ochterski, R. L. Martin, K. Morokuma, O. Farkas, 
 J. B. Foresman, and D. J. Fox, Gaussian, Inc., Wallingford CT, 2019.
 
 ******************************************
 Gaussian 16:  EM64L-G16RevC.01  3-Jul-2019
                21-Mar-2022 
 ******************************************
 %mem=64gb
 %nproc=8
 Will use up to    8 processors via shared memory.
 ---------------------------------------------------------------------
 #P TD(Nstates=10000) tpssh/Gen SCF(maxcycles=100) Int(Grid=ultrafine)
 ---------------------------------------------------------------------
 1/38=1,172=1/1;
 2/12=2,17=6,18=5,40=1/2;
 3/5=7,11=9,25=1,30=1,74=-35,75=-5/1,2,3,8;
 4//1;
 5/5=2,7=100,38=5/2;
 8/6=1,10=1,108=10000/1;
 9/41=10000,42=1,70=2/14;
 6/7=2,8=2,9=2,10=2/1;
 99/5=1,9=1/99;
 Leave Link    1 at Mon Mar 21 20:00:12 2022, MaxMem=  8589934592 cpu:               0.3 elap:               0.0
 (Enter /home/sabyasachi/g16/l101.exe)
 ---------------------
 xGDB7_00001_tier4.com
 ---------------------
 Symbolic Z-matrix:
 Charge =  0 Multiplicity = 1
 6                     0.        0.        0.7614 
 6                     0.        0.       -0.7614 
 1                     0.        1.01711   1.15725 
 1                     0.88084  -0.50856   1.15725 
 1                    -0.88084  -0.50856   1.15725 
 1                     0.88084   0.50856  -1.15725 
 1                    -0.88084   0.50856  -1.15725 
 1                     0.       -1.01711  -1.15725 
 
 ITRead=  0  0  0  0  0  0  0  0
 MicOpt= -1 -1 -1 -1 -1 -1 -1 -1
 NAtoms=      8 NQM=        8 NQMF=       0 NMMI=      0 NMMIF=      0
                NMic=       0 NMicF=      0.
                    Isotopes and Nuclear Properties:
 (Nuclear quadrupole moments (NQMom) in fm**2, nuclear magnetic moments (NMagM)
  in nuclear magnetons)

  Atom         1           2           3           4           5           6           7           8
 IAtWgt=          12          12           1           1           1           1           1           1
 AtmWgt=  12.0000000  12.0000000   1.0078250   1.0078250   1.0078250   1.0078250   1.0078250   1.0078250
 NucSpn=           0           0           1           1           1           1           1           1
 AtZEff=  -0.0000000  -0.0000000  -0.0000000  -0.0000000  -0.0000000  -0.0000000  -0.0000000  -0.0000000
 NQMom=    0.0000000   0.0000000   0.0000000   0.0000000   0.0000000   0.0000000   0.0000000   0.0000000
 NMagM=    0.0000000   0.0000000   2.7928460   2.7928460   2.7928460   2.7928460   2.7928460   2.7928460
 AtZNuc=   6.0000000   6.0000000   1.0000000   1.0000000   1.0000000   1.0000000   1.0000000   1.0000000
 Leave Link  101 at Mon Mar 21 20:00:12 2022, MaxMem=  8589934592 cpu:               0.6 elap:               0.1
 (Enter /home/sabyasachi/g16/l202.exe)
                          Input orientation:                          
 ---------------------------------------------------------------------
 Center     Atomic      Atomic             Coordinates (Angstroms)
 Number     Number       Type             X           Y           Z
 ---------------------------------------------------------------------
      1          6           0        0.000000    0.000000    0.761397
      2          6           0        0.000000    0.000000   -0.761397
      3          1           0        0.000000    1.017110    1.157248
      4          1           0        0.880843   -0.508555    1.157248
      5          1           0       -0.880843   -0.508555    1.157248
      6          1           0        0.880843    0.508555   -1.157248
      7          1           0       -0.880843    0.508555   -1.157248
      8          1           0        0.000000   -1.017110   -1.157248
 ---------------------------------------------------------------------
                    Distance matrix (angstroms):
                    1          2          3          4          5
     1  C    0.000000
     2  C    1.522794   0.000000
     3  H    1.091426   2.171569   0.000000
     4  H    1.091426   2.171569   1.761686   0.000000
     5  H    1.091426   2.171569   1.761686   1.761686   0.000000
     6  H    2.171569   1.091426   2.528123   2.528123   3.081386
     7  H    2.171569   1.091426   2.528123   3.081386   2.528123
     8  H    2.171569   1.091426   3.081386   2.528123   2.528123
                    6          7          8
     6  H    0.000000
     7  H    1.761686   0.000000
     8  H    1.761686   1.761686   0.000000
 Stoichiometry    C2H6
 Framework group  D3D[C3(C.C),3SGD(H2)]
 Deg. of freedom     3
 Full point group                 D3D     NOp  12
 Largest Abelian subgroup         C2H     NOp   4
 Largest concise Abelian subgroup C2H     NOp   4
                         Standard orientation:                         
 ---------------------------------------------------------------------
 Center     Atomic      Atomic             Coordinates (Angstroms)
 Number     Number       Type             X           Y           Z
 ---------------------------------------------------------------------
      1          6           0        0.000000    0.000000    0.761397
      2          6           0       -0.000000   -0.000000   -0.761397
      3          1           0        0.000000    1.017110    1.157248
      4          1           0        0.880843   -0.508555    1.157248
      5          1           0       -0.880843   -0.508555    1.157248
      6          1           0        0.880843    0.508555   -1.157248
      7          1           0       -0.880843    0.508555   -1.157248
      8          1           0       -0.000000   -1.017110   -1.157248
 ---------------------------------------------------------------------
 Rotational constants (GHZ):          80.7876467          20.1030278          20.1030278
 Leave Link  202 at Mon Mar 21 20:00:12 2022, MaxMem=  8589934592 cpu:               0.1 elap:               0.0
 (Enter /home/sabyasachi/g16/l301.exe)
 General basis read from cards:  (5D, 7F)
 Centers:       3      4      5      6      7      8
 S 3 1.00
     Exponent=  1.3010701000D+01 Coefficients=  1.9682158000D-02
     Exponent=  1.9622572000D+00 Coefficients=  1.3796524000D-01
     Exponent=  4.4453796000D-01 Coefficients=  4.7831935000D-01
 S 1 1.00
     Exponent=  1.2194962000D-01 Coefficients=  1.0000000000D+00
 P 1 1.00
     Exponent=  8.0000000000D-01 Coefficients=  1.0000000000D+00
 P 1 1.00
     Exponent=  1.1704099050D-01 Coefficients=  1.0000000000D+00
 ****
 Centers:       1      2
 S 5 1.00
     Exponent=  1.2384016938D+03 Coefficients=  5.4568832082D-03
     Exponent=  1.8629004992D+02 Coefficients=  4.0638409211D-02
     Exponent=  4.2251176346D+01 Coefficients=  1.8025593888D-01
     Exponent=  1.1676557932D+01 Coefficients=  4.6315121755D-01
     Exponent=  3.5930506482D+00 Coefficients=  4.4087173314D-01
 S 1 1.00
     Exponent=  4.0245147363D-01 Coefficients=  1.0000000000D+00
 S 1 1.00
     Exponent=  1.3090182668D-01 Coefficients=  1.0000000000D+00
 S 1 1.00
     Exponent=  6.7053540256D-02 Coefficients=  1.0000000000D+00
 P 3 1.00
     Exponent=  9.4680970621D+00 Coefficients=  3.8387871728D-02
     Exponent=  2.0103545142D+00 Coefficients=  2.1117025112D-01
     Exponent=  5.4771004707D-01 Coefficients=  5.1328172114D-01
 P 1 1.00
     Exponent=  1.5268613795D-01 Coefficients=  1.0000000000D+00
 D 1 1.00
     Exponent=  8.0000000000D-01 Coefficients=  1.0000000000D+00
 D 1 1.00
     Exponent=  1.1713185140D-01 Coefficients=  1.0000000000D+00
 ****
 Ernie: Thresh=  0.10000D-02 Tol=  0.10000D-05 Strict=F.
 There are    30 symmetry adapted cartesian basis functions of AG  symmetry.
 There are    16 symmetry adapted cartesian basis functions of BG  symmetry.
 There are    16 symmetry adapted cartesian basis functions of AU  symmetry.
 There are    30 symmetry adapted cartesian basis functions of BU  symmetry.
 There are    28 symmetry adapted basis functions of AG  symmetry.
 There are    16 symmetry adapted basis functions of BG  symmetry.
 There are    16 symmetry adapted basis functions of AU  symmetry.
 There are    28 symmetry adapted basis functions of BU  symmetry.
    88 basis functions,   124 primitive gaussians,    92 cartesian basis functions
     9 alpha electrons        9 beta electrons
       nuclear repulsion energy        42.3107446799 Hartrees.
 IExCor= 2523 DFT=T Ex+Corr=TPSSh ExCW=0 ScaHFX=  0.100000
 ScaDFX=  0.900000  0.900000  1.000000  1.000000 ScalE2=  1.000000  1.000000
 IRadAn=      5 IRanWt=     -1 IRanGd=            0 ICorTp=0 IEmpDi=  4
 NAtoms=    8 NActive=    8 NUniq=    2 SFac= 4.00D+00 NAtFMM=   60 NAOKFM=F Big=F
 Integral buffers will be    131072 words long.
 Regular integral format.
 Two-electron integral symmetry is turned on.
 Leave Link  301 at Mon Mar 21 20:00:12 2022, MaxMem=  8589934592 cpu:               0.5 elap:               0.1
 (Enter /home/sabyasachi/g16/l302.exe)
 NPDir=0 NMtPBC=     1 NCelOv=     1 NCel=       1 NClECP=     1 NCelD=      1
         NCelK=      1 NCelE2=     1 NClLst=     1 CellRange=     0.0.
 One-electron integrals computed using PRISM.
 One-electron integral symmetry used in STVInt
 NBasis=    88 RedAO= T EigKep=  3.75D-04  NBF=    28    16    16    28
 NBsUse=    88 1.00D-06 EigRej= -1.00D+00 NBFU=    28    16    16    28
 Precomputing XC quadrature grid using
 IXCGrd= 4 IRadAn=           5 IRanWt=          -1 IRanGd=           0 AccXCQ= 0.00D+00.
 Generated NRdTot=       0 NPtTot=           0 NUsed=           0 NTot=          32
 NSgBfM=    92    92    92    92    92 MxSgAt=     8 MxSgA2=     8.
 Leave Link  302 at Mon Mar 21 20:00:12 2022, MaxMem=  8589934592 cpu:               1.0 elap:               0.1
 (Enter /home/sabyasachi/g16/l303.exe)
 DipDrv:  MaxL=1.
 Leave Link  303 at Mon Mar 21 20:00:12 2022, MaxMem=  8589934592 cpu:               0.2 elap:               0.0
 (Enter /home/sabyasachi/g16/l308.exe)
 Leave Link  308 at Mon Mar 21 20:00:12 2022, MaxMem=  8589934592 cpu:               0.2 elap:               0.0
 (Enter /home/sabyasachi/g16/l401.exe)
 ExpMin= 6.71D-02 ExpMax= 1.24D+03 ExpMxC= 1.86D+02 IAcc=3 IRadAn=         5 AccDes= 0.00D+00
 Harris functional with IExCor= 1009 and IRadAn=       5 diagonalized for initial guess.
 HarFok:  IExCor= 1009 AccDes= 0.00D+00 IRadAn=         5 IDoV= 1 UseB2=F ITyADJ=14
 ICtDFT=  3500011 ScaDFX=  1.000000  1.000000  1.000000  1.000000
 FoFCou: FMM=F IPFlag=           0 FMFlag=      100000 FMFlg1=           0
         NFxFlg=           0 DoJE=T BraDBF=F KetDBF=T FulRan=T
         wScrn=  0.000000 ICntrl=       500 IOpCl=  0 I1Cent=   200000004 NGrid=           0
         NMat0=    1 NMatS0=      1 NMatT0=    0 NMatD0=    1 NMtDS0=    0 NMtDT0=    0
 Petite list used in FoFCou.
 Harris En= -79.7457120590591    
 JPrj=0 DoOrth=F DoCkMO=F.
 Initial guess orbital symmetries:
       Occupied  (A2U) (A1G) (A1G) (A2U) (EU) (EU) (A1G) (EG) (EG)
       Virtual   (A1G) (A2U) (EU) (EU) (EG) (EG) (A2U) (A1G) (EG)
                 (EG) (EU) (EU) (EU) (EU) (A2U) (A1G) (EG) (EG)
                 (A1U) (EU) (EU) (A2U) (A2U) (A1G) (EG) (EG) (A2G)
                 (EG) (EG) (A1G) (EU) (EU) (EG) (EG) (EU) (EU)
                 (A2U) (A1G) (A2U) (A1G) (EG) (EG) (A2U) (EU) (EU)
                 (EU) (EU) (A1G) (EG) (EG) (A2U) (EU) (EU) (EG)
                 (EG) (A1U) (A2G) (A1G) (EU) (EU) (EU) (EU) (EG)
                 (EG) (A2U) (EG) (EG) (A1G) (A2U) (EU) (EU) (EG)
                 (EG) (A1G) (A2U) (EG) (EG) (EU) (EU)
 The electronic state of the initial guess is 1-A1G.
 Leave Link  401 at Mon Mar 21 20:00:12 2022, MaxMem=  8589934592 cpu:               1.4 elap:               0.2
 (Enter /home/sabyasachi/g16/l502.exe)
 Keep R1 ints in memory in symmetry-blocked form, NReq=15033270.
 FoFCou: FMM=F IPFlag=           0 FMFlag=           0 FMFlg1=           0
         NFxFlg=           0 DoJE=F BraDBF=F KetDBF=F FulRan=T
         wScrn=  0.000000 ICntrl=       600 IOpCl=  0 I1Cent=           0 NGrid=           0
         NMat0=    1 NMatS0=   3916 NMatT0=    0 NMatD0=    1 NMtDS0=    0 NMtDT0=    0
 Petite list used in FoFCou.
 Closed shell SCF:
 Using DIIS extrapolation, IDIIS=  1040.
 NGot=  8589934592 LenX=  8587972308 LenY=  8587963403
 Requested convergence on RMS density matrix=1.00D-08 within 100 cycles.
 Requested convergence on MAX density matrix=1.00D-06.
 Requested convergence on             energy=1.00D-06.
 No special actions if energy rises.
 Integral accuracy reduced to 1.0D-05 until final iterations.

 Cycle   1  Pass 0  IDiag  1:
 E= -79.6701206326741    
 DIIS: error= 3.57D-02 at cycle   1 NSaved=   1.
 NSaved= 1 IEnMin= 1 EnMin= -79.6701206326741     IErMin= 1 ErrMin= 3.57D-02
 ErrMax= 3.57D-02  0.00D+00 EMaxC= 1.00D-01 BMatC= 9.99D-02 BMatP= 9.99D-02
 IDIUse=3 WtCom= 6.43D-01 WtEn= 3.57D-01
 Coeff-Com:  0.100D+01
 Coeff-En:   0.100D+01
 Coeff:      0.100D+01
 Gap=     0.280 Goal=   None    Shift=    0.000
 GapD=    0.280 DampG=1.000 DampE=0.500 DampFc=0.5000 IDamp=-1.
 Damping current iteration by 5.00D-01
 RMSDP=7.75D-03 MaxDP=1.53D-01              OVMax= 1.90D-01

 Cycle   2  Pass 0  IDiag  1:
 E= -79.7160754183611     Delta-E=       -0.045954785687 Rises=F Damp=T
 DIIS: error= 1.24D-02 at cycle   2 NSaved=   2.
 NSaved= 2 IEnMin= 2 EnMin= -79.7160754183611     IErMin= 2 ErrMin= 1.24D-02
 ErrMax= 1.24D-02  0.00D+00 EMaxC= 1.00D-01 BMatC= 4.73D-03 BMatP= 9.99D-02
 IDIUse=3 WtCom= 8.76D-01 WtEn= 1.24D-01
 Coeff-Com:  0.115D+00 0.885D+00
 Coeff-En:   0.206D+00 0.794D+00
 Coeff:      0.126D+00 0.874D+00
 Gap=     0.348 Goal=   None    Shift=    0.000
 RMSDP=2.10D-03 MaxDP=3.54D-02 DE=-4.60D-02 OVMax= 1.16D-01

 Cycle   3  Pass 0  IDiag  1:
 E= -79.7833105843349     Delta-E=       -0.067235165974 Rises=F Damp=F
 DIIS: error= 2.28D-03 at cycle   3 NSaved=   3.
 NSaved= 3 IEnMin= 3 EnMin= -79.7833105843349     IErMin= 3 ErrMin= 2.28D-03
 ErrMax= 2.28D-03  0.00D+00 EMaxC= 1.00D-01 BMatC= 2.58D-04 BMatP= 4.73D-03
 IDIUse=3 WtCom= 9.77D-01 WtEn= 2.28D-02
 Coeff-Com:  0.108D-01 0.149D+00 0.841D+00
 Coeff-En:   0.000D+00 0.000D+00 0.100D+01
 Coeff:      0.106D-01 0.145D+00 0.844D+00
 Gap=     0.354 Goal=   None    Shift=    0.000
 RMSDP=4.10D-04 MaxDP=3.81D-03 DE=-6.72D-02 OVMax= 6.44D-03

 Cycle   4  Pass 0  IDiag  1:
 E= -79.7835476004316     Delta-E=       -0.000237016097 Rises=F Damp=F
 DIIS: error= 6.03D-04 at cycle   4 NSaved=   4.
 NSaved= 4 IEnMin= 4 EnMin= -79.7835476004316     IErMin= 4 ErrMin= 6.03D-04
 ErrMax= 6.03D-04  0.00D+00 EMaxC= 1.00D-01 BMatC= 1.75D-05 BMatP= 2.58D-04
 IDIUse=3 WtCom= 9.94D-01 WtEn= 6.03D-03
 Coeff-Com: -0.811D-03-0.595D-02 0.196D+00 0.811D+00
 Coeff-En:   0.000D+00 0.000D+00 0.000D+00 0.100D+01
 Coeff:     -0.806D-03-0.592D-02 0.195D+00 0.812D+00
 Gap=     0.354 Goal=   None    Shift=    0.000
 RMSDP=9.18D-05 MaxDP=8.12D-04 DE=-2.37D-04 OVMax= 1.54D-03

 Cycle   5  Pass 0  IDiag  1:
 E= -79.7835655799641     Delta-E=       -0.000017979533 Rises=F Damp=F
 DIIS: error= 2.88D-05 at cycle   5 NSaved=   5.
 NSaved= 5 IEnMin= 5 EnMin= -79.7835655799641     IErMin= 5 ErrMin= 2.88D-05
 ErrMax= 2.88D-05  0.00D+00 EMaxC= 1.00D-01 BMatC= 3.98D-08 BMatP= 1.75D-05
 IDIUse=1 WtCom= 1.00D+00 WtEn= 0.00D+00
 Coeff-Com:  0.538D-03-0.723D-03-0.475D-02-0.734D-03 0.101D+01
 Coeff:      0.538D-03-0.723D-03-0.475D-02-0.734D-03 0.101D+01
 Gap=     0.354 Goal=   None    Shift=    0.000
 RMSDP=2.56D-06 MaxDP=4.36D-05 DE=-1.80D-05 OVMax= 7.06D-05

 Initial convergence to 1.0D-05 achieved.  Increase integral accuracy.
 Cycle   6  Pass 1  IDiag  1:
 E= -79.7835675957536     Delta-E=       -0.000002015790 Rises=F Damp=F
 DIIS: error= 9.78D-07 at cycle   1 NSaved=   1.
 NSaved= 1 IEnMin= 1 EnMin= -79.7835675957536     IErMin= 1 ErrMin= 9.78D-07
 ErrMax= 9.78D-07  0.00D+00 EMaxC= 1.00D-01 BMatC= 8.64D-11 BMatP= 8.64D-11
 IDIUse=1 WtCom= 1.00D+00 WtEn= 0.00D+00
 Coeff-Com:  0.100D+01
 Coeff:      0.100D+01
 Gap=     0.354 Goal=   None    Shift=    0.000
 RMSDP=2.56D-06 MaxDP=4.36D-05 DE=-2.02D-06 OVMax= 4.63D-06

 Cycle   7  Pass 1  IDiag  1:
 E= -79.7835675958224     Delta-E=       -0.000000000069 Rises=F Damp=F
 DIIS: error= 6.64D-07 at cycle   2 NSaved=   2.
 NSaved= 2 IEnMin= 2 EnMin= -79.7835675958224     IErMin= 2 ErrMin= 6.64D-07
 ErrMax= 6.64D-07  0.00D+00 EMaxC= 1.00D-01 BMatC= 3.39D-11 BMatP= 8.64D-11
 IDIUse=1 WtCom= 1.00D+00 WtEn= 0.00D+00
 Coeff-Com:  0.338D+00 0.662D+00
 Coeff:      0.338D+00 0.662D+00
 Gap=     0.354 Goal=   None    Shift=    0.000
 RMSDP=1.07D-07 MaxDP=2.00D-06 DE=-6.88D-11 OVMax= 2.19D-06

 Cycle   8  Pass 1  IDiag  1:
 E= -79.7835675958513     Delta-E=       -0.000000000029 Rises=F Damp=F
 DIIS: error= 4.10D-07 at cycle   3 NSaved=   3.
 NSaved= 3 IEnMin= 3 EnMin= -79.7835675958513     IErMin= 3 ErrMin= 4.10D-07
 ErrMax= 4.10D-07  0.00D+00 EMaxC= 1.00D-01 BMatC= 8.24D-12 BMatP= 3.39D-11
 IDIUse=1 WtCom= 1.00D+00 WtEn= 0.00D+00
 Coeff-Com: -0.243D-02 0.327D+00 0.675D+00
 Coeff:     -0.243D-02 0.327D+00 0.675D+00
 Gap=     0.354 Goal=   None    Shift=    0.000
 RMSDP=2.80D-08 MaxDP=6.15D-07 DE=-2.89D-11 OVMax= 7.49D-07

 Cycle   9  Pass 1  IDiag  1:
 E= -79.7835675958618     Delta-E=       -0.000000000010 Rises=F Damp=F
 DIIS: error= 3.48D-08 at cycle   4 NSaved=   4.
 NSaved= 4 IEnMin= 4 EnMin= -79.7835675958618     IErMin= 4 ErrMin= 3.48D-08
 ErrMax= 3.48D-08  0.00D+00 EMaxC= 1.00D-01 BMatC= 6.28D-14 BMatP= 8.24D-12
 IDIUse=1 WtCom= 1.00D+00 WtEn= 0.00D+00
 Coeff-Com: -0.805D-02 0.908D-01 0.210D+00 0.708D+00
 Coeff:     -0.805D-02 0.908D-01 0.210D+00 0.708D+00
 Gap=     0.354 Goal=   None    Shift=    0.000
 RMSDP=5.60D-09 MaxDP=5.01D-08 DE=-1.05D-11 OVMax= 8.27D-08

 SCF Done:  E(RTPSSh) =  -79.7835675959     A.U. after    9 cycles
            NFock=  9  Conv=0.56D-08     -V/T= 2.0131
 KE= 7.875316141448D+01 PE=-2.680153497931D+02 EE= 6.716787610285D+01
 Leave Link  502 at Mon Mar 21 20:00:13 2022, MaxMem=  8589934592 cpu:               5.1 elap:               0.7
 (Enter /home/sabyasachi/g16/l801.exe)
 DoSCS=F DFT=T ScalE2(SS,OS)=  1.000000  1.000000
 ExpMin= 6.71D-02 ExpMax= 1.24D+03 ExpMxC= 1.86D+02 IAcc=3 IRadAn=         5 AccDes= 0.00D+00
 HarFok:  IExCor=  205 AccDes= 0.00D+00 IRadAn=         5 IDoV=-2 UseB2=F ITyADJ=14
 ICtDFT= 12500011 ScaDFX=  1.000000  1.000000  1.000000  1.000000
 Largest valence mixing into a core orbital is  8.70D-05
 Largest core mixing into a valence orbital is  2.58D-05
 Range of M.O.s used for correlation:     3    88
 NBasis=    88 NAE=     9 NBE=     9 NFC=     2 NFV=     0
 NROrb=     86 NOA=     7 NOB=     7 NVA=    79 NVB=    79

 **** Warning!!: The largest alpha MO coefficient is  0.24799889D+02

 Leave Link  801 at Mon Mar 21 20:00:13 2022, MaxMem=  8589934592 cpu:               0.6 elap:               0.1
 (Enter /home/sabyasachi/g16/l914.exe)
 RHF ground state
 Keep R1, R2, and R3 ints in memory in symmetry-blocked form, NReq=404265058.
 FoFCou: FMM=F IPFlag=           0 FMFlag=           0 FMFlg1=           0
         NFxFlg=           0 DoJE=F BraDBF=F KetDBF=F FulRan=T
         wScrn=  0.000000 ICntrl=       600 IOpCl=  0 I1Cent=           0 NGrid=           0
         NMat0=    1 NMatS0=   3916 NMatT0=    0 NMatD0=    1 NMtDS0=    0 NMtDT0=    0
 Petite list used in FoFCou.
 MDV=  8589934592 DFT=T DoStab=F Mixed=T DoRPA=T DoScal=F NonHer=T
 Making orbital integer symmetry assigments:
 Orbital symmetries:
       Occupied  (A1G) (A2U) (A1G) (A2U) (EU) (EU) (A1G) (EG) (EG)
       Virtual   (A1G) (A2U) (EU) (EU) (EG) (EG) (A1G) (EG) (EG)
                 (EU) (EU) (A2U) (EU) (EU) (A2U) (A1G) (A1U) (EG)
                 (EG) (EU) (EU) (A2U) (A1G) (A2U) (EG) (EG) (A2G)
                 (A1G) (EG) (EG) (EU) (EU) (EG) (EG) (A2U) (EU)
                 (EU) (A1G) (A2U) (A1G) (EG) (EG) (EU) (EU) (A2U)
                 (EU) (EU) (A1G) (EG) (EG) (A2U) (EU) (EU) (EG)
                 (EG) (A1U) (A2G) (EU) (EU) (A1G) (EU) (EU) (EG)
                 (EG) (A2U) (EG) (EG) (A1G) (A2U) (EU) (EU) (EG)
                 (EG) (A1G) (A2U) (EG) (EG) (EU) (EU)
   553 initial guesses have been made.
 Convergence on wavefunction:    0.001000000000000
 Davidson Disk Diagonalization:  ConvIn= 1.00D-03 SkipCon=T Conv= 1.00D-03.
 Max sub-space:  3318 roots to seek:  1106 dimension of matrix:         1106
 *** WARNING: Number of orthogonal guesses is          553
 Iteration     1 Dimension   553 NMult     0 NNew    553
 CISAX will form   553 AO SS matrices at one time.
 NMat=   553 NSing=   553 JSym2X=-1.
 New state      7 was old state      8
 New state      8 was old state      7
 New state      9 was old state     10
 New state     10 was old state      9
 New state     11 was old state     13
 New state     13 was old state     11
 New state     17 was old state     18
 New state     18 was old state     17
 New state     19 was old state     20
 New state     20 was old state     19
 New state     21 was old state     22
 New state     22 was old state     21
 New state     27 was old state     28
 New state     28 was old state     27
 New state     30 was old state     32
 New state     31 was old state     40
 New state     32 was old state     41
 New state     33 was old state     31
 New state     34 was old state     30
 New state     35 was old state     37
 New state     36 was old state     38
 New state     37 was old state     36
 New state     38 was old state     33
 New state     39 was old state     35
 New state     40 was old state     34
 New state     41 was old state     44
 New state     42 was old state     45
 New state     43 was old state     46
 New state     44 was old state     47
 New state     45 was old state     43
 New state     46 was old state     42
 New state     47 was old state     48
 New state     48 was old state     39
 New state     50 was old state     54
 New state     51 was old state     53
 New state     52 was old state     50
 New state     53 was old state     52
 New state     54 was old state     51
 New state     55 was old state     57
 New state     57 was old state     58
 New state     58 was old state     55
 New state     61 was old state     63
 New state     62 was old state     65
 New state     63 was old state     66
 New state     65 was old state     62
 New state     66 was old state     61
 New state     67 was old state     68
 New state     68 was old state     67
 New state     72 was old state     75
 New state     73 was old state     74
 New state     74 was old state     72
 New state     75 was old state     73
 New state     76 was old state     77
 New state     77 was old state     78
 New state     78 was old state     76
 New state     83 was old state     88
 New state     84 was old state     90
 New state     85 was old state     91
 New state     86 was old state     93
 New state     87 was old state     92
 New state     88 was old state     85
 New state     89 was old state     84
 New state     90 was old state     89
 New state     91 was old state     87
 New state     92 was old state     83
 New state     93 was old state     94
 New state     94 was old state     95
 New state     95 was old state     86
 New state     96 was old state     99
 New state     97 was old state     98
 New state     98 was old state     97
 New state     99 was old state     96
 New state    100 was old state    102
 New state    101 was old state    103
 New state    102 was old state    104
 New state    103 was old state    101
 New state    104 was old state    100
 New state    105 was old state    107
 New state    106 was old state    113
 New state    107 was old state    112
 New state    108 was old state    110
 New state    109 was old state    108
 New state    110 was old state    109
 New state    111 was old state    106
 New state    112 was old state    105
 New state    113 was old state    111
 New state    116 was old state    118
 New state    117 was old state    116
 New state    118 was old state    117
 New state    119 was old state    121
 New state    121 was old state    122
 New state    122 was old state    124
 New state    124 was old state    119
 New state    126 was old state    128
 New state    127 was old state    133
 New state    128 was old state    135
 New state    129 was old state    134
 New state    132 was old state    138
 New state    133 was old state    136
 New state    134 was old state    137
 New state    135 was old state    140
 New state    136 was old state    141
 New state    137 was old state    139
 New state    138 was old state    127
 New state    139 was old state    129
 New state    140 was old state    132
 New state    141 was old state    126
 New state    142 was old state    143
 New state    143 was old state    142
 New state    144 was old state    146
 New state    145 was old state    147
 New state    146 was old state    144
 New state    147 was old state    149
 New state    149 was old state    150
 New state    150 was old state    151
 New state    151 was old state    153
 New state    153 was old state    164
 New state    154 was old state    160
 New state    156 was old state    157
 New state    157 was old state    156
 New state    158 was old state    161
 New state    159 was old state    163
 New state    160 was old state    162
 New state    161 was old state    165
 New state    162 was old state    166
 New state    163 was old state    159
 New state    164 was old state    158
 New state    165 was old state    169
 New state    166 was old state    170
 New state    167 was old state    168
 New state    168 was old state    167
 New state    169 was old state    174
 New state    170 was old state    173
 New state    171 was old state    154
 New state    172 was old state    183
 New state    173 was old state    176
 New state    174 was old state    175
 New state    175 was old state    172
 New state    176 was old state    171
 New state    180 was old state    181
 New state    181 was old state    182
 New state    182 was old state    180
 New state    183 was old state    184
 New state    184 was old state    185
 New state    185 was old state    191
 New state    186 was old state    190
 New state    188 was old state    186
 New state    189 was old state    195
 New state    190 was old state    193
 New state    191 was old state    194
 New state    193 was old state    198
 New state    194 was old state    197
 New state    195 was old state    200
 New state    196 was old state    199
 New state    197 was old state    206
 New state    198 was old state    207
 New state    199 was old state    204
 New state    200 was old state    205
 New state    202 was old state    203
 New state    203 was old state    202
 New state    204 was old state    215
 New state    205 was old state    208
 New state    206 was old state    188
 New state    207 was old state    189
 New state    208 was old state    227
 New state    209 was old state    211
 New state    210 was old state    212
 New state    211 was old state    210
 New state    212 was old state    209
 New state    215 was old state    218
 New state    218 was old state    219
 New state    219 was old state    220
 New state    220 was old state    223
 New state    223 was old state    225
 New state    225 was old state    228
 New state    227 was old state    239
 No map to state    228
 New state    231 was old state    232
 New state    232 was old state    231
 New state    233 was old state    241
 New state    234 was old state    240
 New state    235 was old state    234
 New state    236 was old state    233
 No map to state    239
 New state    240 was old state    235
 New state    241 was old state    236
 New state    244 was old state    245
 New state    245 was old state    246
 New state    246 was old state    250
 New state    247 was old state    249
 New state    248 was old state    244
 New state    249 was old state    248
 New state    250 was old state    247
 New state    253 was old state    254
 New state    254 was old state    253
 New state    256 was old state    258
 New state    258 was old state    256
 New state    259 was old state    260
 New state    260 was old state    259
 New state    261 was old state    264
 New state    262 was old state    263
 New state    263 was old state    266
 New state    264 was old state    265
 New state    265 was old state    261
 New state    266 was old state    262
 New state    269 was old state    270
 New state    270 was old state    271
 New state    271 was old state    274
 New state    272 was old state    273
 New state    273 was old state    272
 New state    274 was old state    275
 New state    275 was old state    276
 New state    276 was old state    278
 New state    278 was old state    269
 New state    279 was old state    283
 New state    280 was old state    284
 New state    281 was old state    282
 New state    282 was old state    280
 New state    283 was old state    279
 New state    284 was old state    285
 New state    285 was old state    286
 New state    286 was old state    293
 New state    287 was old state    288
 New state    288 was old state    289
 New state    289 was old state    290
 New state    290 was old state    287
 New state    291 was old state    292
 New state    292 was old state    291
 New state    293 was old state    296
 New state    294 was old state    297
 New state    296 was old state    294
 New state    297 was old state    301
 New state    298 was old state    302
 New state    299 was old state    298
 New state    300 was old state    305
 New state    301 was old state    306
 New state    302 was old state    303
 New state    303 was old state    307
 New state    304 was old state    308
 New state    305 was old state    299
 New state    306 was old state    300
 New state    307 was old state    309
 New state    308 was old state    310
 New state    309 was old state    315
 New state    310 was old state    311
 New state    311 was old state    304
 New state    312 was old state    314
 New state    313 was old state    312
 New state    314 was old state    313
 New state    315 was old state    317
 New state    317 was old state    327
 New state    318 was old state    319
 New state    319 was old state    318
 New state    321 was old state    324
 New state    322 was old state    323
 New state    323 was old state    321
 New state    324 was old state    330
 New state    327 was old state    328
 New state    328 was old state    329
 New state    329 was old state    337
 New state    330 was old state    331
 New state    331 was old state    336
 New state    332 was old state    333
 New state    333 was old state    332
 New state    336 was old state    340
 New state    337 was old state    339
 New state    339 was old state    343
 New state    340 was old state    353
 New state    343 was old state    348
 New state    344 was old state    345
 New state    345 was old state    344
 No map to state    348
 New state    351 was old state    352
 New state    352 was old state    351
 No map to state    353
 New state    356 was old state    357
 New state    357 was old state    359
 New state    358 was old state    360
 New state    359 was old state    356
 New state    360 was old state    358
 New state    362 was old state    364
 New state    364 was old state    365
 New state    365 was old state    366
 New state    366 was old state    362
 New state    369 was old state    370
 New state    370 was old state    372
 New state    371 was old state    369
 New state    372 was old state    371
 New state    378 was old state    379
 New state    379 was old state    382
 New state    380 was old state    381
 New state    381 was old state    378
 New state    382 was old state    380
 New state    384 was old state    385
 New state    385 was old state    384
 New state    386 was old state    387
 New state    387 was old state    386
 New state    388 was old state    394
 New state    389 was old state    395
 New state    390 was old state    392
 New state    391 was old state    390
 New state    392 was old state    393
 New state    393 was old state    391
 New state    394 was old state    388
 New state    395 was old state    389
 New state    396 was old state    399
 New state    397 was old state    398
 New state    398 was old state    397
 New state    399 was old state    396
 New state    401 was old state    402
 New state    402 was old state    404
 New state    404 was old state    407
 New state    405 was old state    406
 New state    406 was old state    405
 New state    407 was old state    401
 New state    409 was old state    412
 New state    410 was old state    409
 New state    411 was old state    410
 New state    412 was old state    411
 New state    419 was old state    420
 New state    420 was old state    419
 New state    423 was old state    424
 New state    424 was old state    423
 New state    425 was old state    427
 New state    426 was old state    425
 New state    427 was old state    428
 New state    428 was old state    426
 New state    433 was old state    434
 New state    434 was old state    433
 New state    441 was old state    443
 New state    442 was old state    445
 New state    443 was old state    446
 New state    444 was old state    442
 New state    445 was old state    441
 New state    446 was old state    444
 New state    449 was old state    450
 New state    450 was old state    449
 New state    452 was old state    453
 New state    453 was old state    452
 New state    456 was old state    457
 New state    457 was old state    458
 New state    458 was old state    459
 New state    459 was old state    460
 New state    460 was old state    461
 New state    461 was old state    456
 New state    465 was old state    466
 New state    466 was old state    465
 New state    472 was old state    476
 New state    473 was old state    472
 New state    474 was old state    473
 New state    475 was old state    474
 New state    476 was old state    475
 New state    479 was old state    480
 New state    480 was old state    479
 New state    483 was old state    488
 New state    485 was old state    483
 New state    487 was old state    485
 New state    488 was old state    487
 New state    489 was old state    490
 New state    490 was old state    489
 New state    491 was old state    494
 New state    494 was old state    491
 New state    498 was old state    499
 New state    499 was old state    501
 New state    500 was old state    498
 New state    501 was old state    500
 New state    505 was old state    507
 New state    507 was old state    505
 New state    508 was old state    509
 New state    509 was old state    508
 New state    513 was old state    514
 New state    514 was old state    513
 New state    515 was old state    516
 New state    516 was old state    515
 New state    523 was old state    525
 New state    524 was old state    526
 New state    525 was old state    524
 New state    526 was old state    523
 New state    527 was old state    528
 New state    528 was old state    527
 New state    529 was old state    530
 New state    530 was old state    533
 New state    533 was old state    529
 New state    534 was old state    539
 New state    535 was old state    538
 New state    536 was old state    537
 New state    537 was old state    535
 New state    538 was old state    534
 New state    539 was old state    536
 New state    541 was old state    543
 New state    543 was old state    541
 New state    545 was old state    546
 New state    546 was old state    545
 New state    550 was old state    551
 New state    551 was old state    550
 Excitation Energies [eV] at current iteration:
 Root      1 :     9.087166948588449
 Root      2 :     9.087167482279691
 Root      3 :     9.832513221002703
 Root      4 :     9.975264026630075
 Root      5 :     9.975264273463980
 Root      6 :    10.635984508844090
 Root      7 :    11.010273307235080
 Root      8 :    11.010273743011720
 Root      9 :    11.025956557549960
 Root     10 :    11.306857904292950
 Root     11 :    11.476611109201740
 Root     12 :    11.598023299420700
 Root     13 :    11.598024178283180
 Root     14 :    11.687697745953010
 Root     15 :    11.689373208493840
 Root     16 :    11.689374126119310
 Root     17 :    11.713808356808930
 Root     18 :    11.713809257312040
 Root     19 :    12.164291495654850
 Root     20 :    12.164292282290830
 Root     21 :    12.391626705291360
 Root     22 :    12.391627222940810
 Root     23 :    12.550234104228280
 Root     24 :    12.550234157731670
 Root     25 :    12.810629550804010
 Root     26 :    12.811418982328930
 Root     27 :    12.811419338129830
 Root     28 :    13.058232504087750
 Root     29 :    13.270519495451940
 Root     30 :    13.331954275348680
 Root     31 :    13.444303643007310
 Root     32 :    13.444303784104730
 Root     33 :    13.457203836540630
 Root     34 :    13.457204135632630
 Root     35 :    13.491846649445500
 Root     36 :    13.509423435850710
 Root     37 :    13.509423514185530
 Root     38 :    13.674603247466900
 Root     39 :    13.674604291335180
 Root     40 :    13.730570552172530
 Root     41 :    13.982697791001840
 Root     42 :    13.992371964087380
 Root     43 :    14.085354421510970
 Root     44 :    14.085354510616260
 Root     45 :    14.454736573392500
 Root     46 :    14.454737208186800
 Root     47 :    14.617629378102590
 Root     48 :    14.655843621630600
 Root     49 :    14.941155062707260
 Root     50 :    14.973533859627390
 Root     51 :    14.973534076030080
 Root     52 :    15.106837011021580
 Root     53 :    15.106837569895430
 Root     54 :    15.240385173012320
 Root     55 :    15.324085473233200
 Root     56 :    15.405505127986930
 Root     57 :    15.405505781221810
 Root     58 :    15.552295977746260
 Root     59 :    15.776535284014230
 Root     60 :    15.776535304599380
 Root     61 :    15.827527743522990
 Root     62 :    15.926212322260500
 Root     63 :    15.926212322542420
 Root     64 :    16.127269320088150
 Root     65 :    16.185588765037540
 Root     66 :    16.185590276289600
 Root     67 :    16.215979219076990
 Root     68 :    16.215979785969250
 Root     69 :    16.455911218939310
 Root     70 :    16.737674363456360
 Root     71 :    16.737676026292450
 Root     72 :    17.089362095078800
 Root     73 :    17.089362323944060
 Root     74 :    17.222404221507280
 Root     75 :    17.234059970135500
 Root     76 :    17.404345011226070
 Root     77 :    17.404345647375490
 Root     78 :    17.428238750749700
 Root     79 :    17.435309799347820
 Root     80 :    17.632075596046420
 Root     81 :    17.771771694266700
 Root     82 :    17.941547851685760
 Root     83 :    18.103011288351400
 Root     84 :    18.123384061353960
 Root     85 :    18.123384569350830
 Root     86 :    18.227223324612770
 Root     87 :    18.227223475710870
 Root     88 :    18.268236754154690
 Root     89 :    18.268236925055460
 Root     90 :    18.320495512697310
 Root     91 :    18.320495704536890
 Root     92 :    18.324617330031270
 Root     93 :    18.483604816750950
 Root     94 :    18.483605493772400
 Root     95 :    18.597255100306330
 Root     96 :    18.651020740728390
 Root     97 :    18.651022187687670
 Root     98 :    18.716459068985790
 Root     99 :    18.716459546602890
 Root    100 :    18.742658282637830
 Root    101 :    18.742658897832560
 Root    102 :    18.857430093804950
 Root    103 :    18.867257007312500
 Root    104 :    18.867258105435770
 Root    105 :    19.105825731501980
 Root    106 :    19.176022232934890
 Root    107 :    19.176022883412430
 Root    108 :    19.197534866171910
 Root    109 :    19.202193037554750
 Root    110 :    19.202193200460670
 Root    111 :    19.244047531924570
 Root    112 :    19.244049887847160
 Root    113 :    19.316050614033040
 Root    114 :    19.506328313854690
 Root    115 :    19.506328523108760
 Root    116 :    19.715694985216600
 Root    117 :    19.756668210768240
 Root    118 :    19.756668446241360
 Root    119 :    19.844934556691040
 Root    120 :    19.844934802020540
 Root    121 :    20.083330770256620
 Root    122 :    20.089767601970440
 Root    123 :    20.089767864937460
 Root    124 :    20.096998080591110
 Root    125 :    20.353087170112490
 Root    126 :    20.381330462604160
 Root    127 :    20.555665042441150
 Root    128 :    20.582509195616110
 Root    129 :    20.582509982020440
 Root    130 :    20.603480529125980
 Root    131 :    20.603481113434110
 Root    132 :    20.641847729767090
 Root    133 :    20.851485485376980
 Root    134 :    20.851485539429180
 Root    135 :    20.876264581776970
 Root    136 :    20.876265207652930
 Root    137 :    20.971830750082990
 Root    138 :    21.009301174000960
 Root    139 :    21.009302517170280
 Root    140 :    21.044450219706620
 Root    141 :    21.151422656420620
 Root    142 :    21.239768639498210
 Root    143 :    21.239768839194760
 Root    144 :    21.406544271824980
 Root    145 :    21.406545478600040
 Root    146 :    21.408237269891880
 Root    147 :    21.602893534525870
 Root    148 :    21.602895971572270
 Root    149 :    21.610541343327920
 Root    150 :    21.629432766461560
 Root    151 :    21.680144800916660
 Root    152 :    21.680146438088960
 Root    153 :    21.742109328552110
 Root    154 :    21.801848109434240
 Root    155 :    21.814258799185050
 Root    156 :    21.859246565189040
 Root    157 :    21.859246681970090
 Root    158 :    21.868251105512410
 Root    159 :    21.868252253918100
 Root    160 :    21.977147032621730
 Root    161 :    22.049069554265940
 Root    162 :    22.049069868374810
 Root    163 :    22.110114737775400
 Root    164 :    22.110115364402230
 Root    165 :    22.148323342567640
 Root    166 :    22.148324452220350
 Root    167 :    22.214811867053640
 Root    168 :    22.214812230138420
 Root    169 :    22.410394524607290
 Root    170 :    22.410394670777260
 Root    171 :    22.417930786634390
 Root    172 :    22.467316061856450
 Root    173 :    22.481197987694470
 Root    174 :    22.481198376975100
 Root    175 :    22.585643261212810
 Root    176 :    22.585643379119420
 Root    177 :    22.812101608661200
 Root    178 :    22.812102358842940
 Root    179 :    22.936096655479980
 Root    180 :    23.284023451628380
 Root    181 :    23.284023766461830
 Root    182 :    23.332274994173620
 Root    183 :    23.462472683007760
 Root    184 :    23.488940235603510
 Root    185 :    23.700033915981190
 Root    186 :    23.700034045092100
 Root    187 :    23.786822143072980
 Root    188 :    23.786822436927720
 Root    189 :    23.820979966576530
 Root    190 :    23.820980211676980
 Root    191 :    23.866810257124430
 Root    192 :    23.903421651251750
 Root    193 :    23.918679840828680
 Root    194 :    24.260165780184010
 Root    195 :    24.274394262144680
 Root    196 :    24.274394490200480
 Root    197 :    24.276797340015740
 Root    198 :    24.276800123802560
 Root    199 :    24.292278792577220
 Root    200 :    24.303227659626110
 Root    201 :    24.314659533145440
 Root    202 :    24.380246167726370
 Root    203 :    24.380246411856270
 Root    204 :    24.514201087634990
 Root    205 :    24.586064831921240
 Root    206 :    24.598357600422620
 Root    207 :    24.598358613866260
 Root    208 :    25.238276759662110
 Root    209 :    25.274579118092730
 Root    210 :    25.274579914931220
 Root    211 :    25.414524395945370
 Root    212 :    25.414524868983280
 Root    213 :    25.422436046323470
 Root    214 :    25.422436632686820
 Root    215 :    25.435475368506150
 Root    216 :    25.623370762006320
 Root    217 :    25.628089105751800
 Root    218 :    25.628089425305600
 Root    219 :    25.752426139241410
 Root    220 :    25.840791462573200
 Root    221 :    25.888643260069100
 Root    222 :    25.888643477865640
 Root    223 :    26.436756222391930
 Root    224 :    26.436756418645210
 Root    225 :    26.795106067726630
 Root    226 :    26.886919875875320
 Root    227 :    27.506932687268660
 Root    228 :    27.877814138204190
 Root    229 :    27.994816979773740
 Root    230 :    28.465713819933670
 Root    231 :    28.664825150910020
 Root    232 :    28.664826348501210
 Root    233 :    29.034257405356030
 Root    234 :    29.034257634614270
 Root    235 :    29.038092784739060
 Root    236 :    29.038093899545070
 Root    237 :    29.089467301538450
 Root    238 :    29.089467392006580
 Root    239 :    29.188700403589670
 Root    240 :    29.263957359332480
 Root    241 :    29.263958443023980
 Root    242 :    29.418414641197360
 Root    243 :    30.037518167044890
 Root    244 :    30.087461611907400
 Root    245 :    30.087461674356550
 Root    246 :    30.224235130643420
 Root    247 :    30.224237019772270
 Root    248 :    30.228760287741310
 Root    249 :    30.442995045091140
 Root    250 :    30.442995354182550
 Root    251 :    30.587421415589730
 Root    252 :    31.473228271130370
 Root    253 :    31.588360491189360
 Root    254 :    31.588362685191030
 Root    255 :    32.220897530436200
 Root    256 :    32.361574362220010
 Root    257 :    32.361575212725920
 Root    258 :    32.439489468615770
 Root    259 :    32.632152609834900
 Root    260 :    32.632155335452220
 Root    261 :    32.705237283729570
 Root    262 :    32.705237828357760
 Root    263 :    32.784400601869110
 Root    264 :    32.784401629877170
 Root    265 :    32.795583780853920
 Root    266 :    32.795585767312820
 Root    267 :    33.051168380778500
 Root    268 :    33.180779117525790
 Root    269 :    33.180781960184280
 Root    270 :    33.287208815821250
 Root    271 :    33.622153645606080
 Root    272 :    33.622153694936180
 Root    273 :    33.747251073114780
 Root    274 :    33.983749632405490
 Root    275 :    33.983750130542190
 Root    276 :    34.167155354644390
 Root    277 :    34.167156566623200
 Root    278 :    34.823900343492110
 Root    279 :    35.012367031248410
 Root    280 :    35.012369273629140
 Root    281 :    35.203722487911230
 Root    282 :    35.220362787681180
 Root    283 :    35.220363289488940
 Root    284 :    35.436257754899810
 Root    285 :    35.436259745554390
 Root    286 :    35.540828719424440
 Root    287 :    35.632093734128620
 Root    288 :    35.682208236603920
 Root    289 :    35.682210153225010
 Root    290 :    35.736506076643880
 Root    291 :    35.781132303386060
 Root    292 :    35.781133192369170
 Root    293 :    36.993042805888190
 Root    294 :    37.207110642061960
 Root    295 :    37.207113091600010
 Root    296 :    37.296653386579340
 Root    297 :    37.467780912731660
 Root    298 :    37.467785630815070
 Root    299 :    37.539666317920090
 Root    300 :    37.654217662383180
 Root    301 :    37.654217673181950
 Root    302 :    37.795841966923550
 Root    303 :    37.971351315918990
 Root    304 :    37.971352345713310
 Root    305 :    37.976255726584760
 Root    306 :    37.976257088100060
 Root    307 :    38.152268096788070
 Root    308 :    38.434641755728450
 Root    309 :    38.513236760691850
 Root    310 :    39.392350577703770
 Root    311 :    39.439838601381890
 Root    312 :    39.644312457564990
 Root    313 :    39.644313640843820
 Root    314 :    39.886283929529920
 Root    315 :    40.007515512623240
 Root    316 :    40.007517490065120
 Root    317 :    40.434188599363910
 Root    318 :    40.457429354968750
 Root    319 :    40.457431200910950
 Root    320 :    40.989699510020240
 Root    321 :    41.034286299458910
 Root    322 :    41.369563364176100
 Root    323 :    41.369563516721240
 Root    324 :    41.584779587362060
 Root    325 :    41.618988298030470
 Root    326 :    41.618988991527840
 Root    327 :    42.521352872741630
 Root    328 :    42.521357147155200
 Root    329 :    42.797518537808230
 Root    330 :    43.302090704448130
 Root    331 :    43.348150453886880
 Root    332 :    43.389594280021010
 Root    333 :    43.389594629831390
 Root    334 :    43.700561387184380
 Root    335 :    43.700562020393920
 Root    336 :    43.711802009216260
 Root    337 :    44.004874126744970
 Root    338 :    44.004875855557080
 Root    339 :    44.066623851298930
 Root    340 :    44.164886090809670
 Root    341 :    44.387763139880530
 Root    342 :    44.387763268028170
 Root    343 :    45.731455069522040
 Root    344 :    45.739106191321640
 Root    345 :    45.739106566762840
 Root    346 :    46.141054640767940
 Root    347 :    46.141055399351740
 Root    348 :    46.459097887347480
 Root    349 :    48.060932501042220
 Root    350 :    48.060932751009370
 Root    351 :    48.380446522286650
 Root    352 :    48.380447060078200
 Root    353 :    48.956066013666610
 Root    354 :    50.699139997710800
 Root    355 :    51.506811004613280
 Root    356 :    51.811653356569500
 Root    357 :    51.842062038443560
 Root    358 :    51.842063125403720
 Root    359 :    51.847071604248400
 Root    360 :    51.847072825222380
 Root    361 :    52.185343085418280
 Root    362 :    52.422671739289030
 Root    363 :    52.422672996746850
 Root    364 :    52.551815498971360
 Root    365 :    52.551823887901870
 Root    366 :    52.728856077314080
 Root    367 :    52.931437950847290
 Root    368 :    52.931443606171430
 Root    369 :    54.052722783317440
 Root    370 :    54.290739205781270
 Root    371 :    54.337559444491860
 Root    372 :    54.337569190226580
 Root    373 :    54.340771709733670
 Root    374 :    54.397920446159160
 Root    375 :    54.397929596212380
 Root    376 :    54.654541794053100
 Root    377 :    54.654550167748280
 Root    378 :    54.687111569279940
 Root    379 :    54.939423303168490
 Root    380 :    54.983288820360730
 Root    381 :    55.116995721048470
 Root    382 :    55.117003313693110
 Root    383 :    55.133957321243330
 Root    384 :    56.895374458068450
 Root    385 :    56.895379124163870
 Root    386 :    57.095647999894780
 Root    387 :    57.095652901466460
 Root    388 :    58.845832995531510
 Root    389 :    58.845839615901800
 Root    390 :    58.861200673767660
 Root    391 :    58.861203445269940
 Root    392 :    58.863191305762790
 Root    393 :    59.016536607665370
 Root    394 :    59.216614809722880
 Root    395 :    59.216617677140800
 Root    396 :    59.589794766941950
 Root    397 :    59.589796759847490
 Root    398 :    59.666524560558970
 Root    399 :    59.666529453740840
 Root    400 :    59.971712187413520
 Root    401 :    61.197775467493600
 Root    402 :    61.259064890941960
 Root    403 :    61.259065052656560
 Root    404 :    61.368479413385180
 Root    405 :    61.368481212077130
 Root    406 :    61.391225376136000
 Root    407 :    61.591382788372350
 Root    408 :    61.731582042510900
 Root    409 :    61.791355560576760
 Root    410 :    61.793350507428280
 Root    411 :    61.793355552586180
 Root    412 :    61.933445505102550
 Root    413 :    62.657619275114260
 Root    414 :    62.657622611575410
 Root    415 :    62.803122708934410
 Root    416 :    62.803125304485820
 Root    417 :    63.270105967729590
 Root    418 :    63.270106957582690
 Root    419 :    63.384062524283440
 Root    420 :    63.384066958371980
 Root    421 :    63.420617157556500
 Root    422 :    63.564829077982320
 Root    423 :    64.111624342417470
 Root    424 :    64.111624477495300
 Root    425 :    64.322370472918680
 Root    426 :    64.322371284581110
 Root    427 :    64.386091255848430
 Root    428 :    64.623081492873550
 Root    429 :    65.241938587000160
 Root    430 :    65.445545753197290
 Root    431 :    65.710739627538790
 Root    432 :    66.050349135061950
 Root    433 :    66.063079451724870
 Root    434 :    66.063082072819230
 Root    435 :    66.096229315339810
 Root    436 :    66.096230384894700
 Root    437 :    66.366001548973170
 Root    438 :    67.786139976447020
 Root    439 :    67.786143204295640
 Root    440 :    68.351648231321930
 Root    441 :    68.738266109929370
 Root    442 :    68.863793838421050
 Root    443 :    68.863794785639360
 Root    444 :    69.048018749753270
 Root    445 :    69.048019531102550
 Root    446 :    69.129072051103290
 Root    447 :    69.625347311488010
 Root    448 :    69.625349703667140
 Root    449 :    69.731110649978280
 Root    450 :    69.731111943843300
 Root    451 :    69.975771235421380
 Root    452 :    70.239973390887730
 Root    453 :    70.239975200767620
 Root    454 :    70.710772813075000
 Root    455 :    70.710773757699300
 Root    456 :    71.225950454472640
 Root    457 :    71.428305525500040
 Root    458 :    71.428305624150410
 Root    459 :    71.447595386860290
 Root    460 :    71.447596425049880
 Root    461 :    71.528151643422830
 Root    462 :    72.192131347282310
 Root    463 :    72.769411948504900
 Root    464 :    72.769414088552080
 Root    465 :    73.813775338239400
 Root    466 :    73.813775741850610
 Root    467 :    74.377056850624270
 Root    468 :    74.377057111654640
 Root    469 :    74.976061914968010
 Root    470 :    76.028249884630980
 Root    471 :    76.028253751862320
 Root    472 :    76.683280490774580
 Root    473 :    76.882647235856440
 Root    474 :    76.882647539114520
 Root    475 :    77.044665115714920
 Root    476 :    77.254922584500660
 Root    477 :    77.254922664892700
 Root    478 :    77.588998885615690
 Root    479 :    77.758235488378450
 Root    480 :    77.758235741648290
 Root    481 :    78.407433567632590
 Root    482 :    78.951663860386520
 Root    483 :    78.970797681934200
 Root    484 :    79.312081382125880
 Root    485 :    79.312082445812020
 Root    486 :    79.431656750423660
 Root    487 :    79.431659466017720
 Root    488 :    79.445009132328140
 Root    489 :    79.881110188169910
 Root    490 :    79.881112503253280
 Root    491 :    80.111261835243250
 Root    492 :    80.111262707429030
 Root    493 :    80.199829422678380
 Root    494 :    80.310904276308250
 Root    495 :    80.724618326013020
 Root    496 :    80.724628034534210
 Root    497 :    82.355425023623440
 Root    498 :    82.505508575658990
 Root    499 :    82.510682136948700
 Root    500 :    82.637099841394250
 Root    501 :    82.637102246866390
 Root    502 :    83.388697791222100
 Root    503 :    83.388699169919180
 Root    504 :    84.182302541954630
 Root    505 :    84.233772295716960
 Root    506 :    84.233773559584110
 Root    507 :    84.247132516310070
 Root    508 :    85.814750936448250
 Root    509 :    85.814752283385540
 Root    510 :    87.194354102364240
 Root    511 :    87.194355901930050
 Root    512 :    87.902311661287110
 Root    513 :    88.047129494288280
 Root    514 :    88.047131103842830
 Root    515 :    88.987375025268750
 Root    516 :    88.987375143108580
 Root    517 :    89.656510432363670
 Root    518 :    90.806886166400820
 Root    519 :    90.888313430279950
 Root    520 :    90.888315258105480
 Root    521 :    91.360542637682140
 Root    522 :    91.360542659194340
 Root    523 :    91.822110188110730
 Root    524 :    91.822115069124880
 Root    525 :    91.845975723407920
 Root    526 :    92.173517315013560
 Root    527 :    92.587785278510010
 Root    528 :    92.587790102549660
 Root    529 :    93.559913978915500
 Root    530 :    93.744123527456440
 Root    531 :    93.744129223303150
 Root    532 :    94.129476369640760
 Root    533 :    94.452310332665420
 Root    534 :    94.737751042302720
 Root    535 :    94.737751382142390
 Root    536 :    94.888669592313460
 Root    537 :    94.901627488875420
 Root    538 :    94.901628784545720
 Root    539 :    94.921202059470940
 Root    540 :    96.251962578186410
 Root    541 :    96.590165072578020
 Root    542 :    96.768137523491280
 Root    543 :    96.768137670033300
 Root    544 :    96.818586844059240
 Root    545 :    99.140248566118390
 Root    546 :    99.140262892882220
 Root    547 :    99.756400792569750
 Root    548 :   101.248718341946300
 Root    549 :   101.248734441631100
 Root    550 :   102.979414877117000
 Root    551 :   102.979415154179300
 Root    552 :   105.064460953374800
 Root    553 :   105.064464680611700
 Convergence achieved for final wavefunctions.
 ***********************************************************************
 Excited states from <AA,BB:AA,BB> singles matrix:
 ***********************************************************************
 
 1PDM for each excited state written to RWF  633
 Ground to excited state transition densities written to RWF  633
 Ground to excited state transition electric dipole moments (Au):
       state          X           Y           Z        Dip. S.      Osc.
         1         0.0000     -0.0000      0.0000      0.0000      0.0000
         2         0.0000      0.0000      0.0000      0.0000      0.0000
         3         0.0000     -0.0000     -0.0000      0.0000      0.0000
         4        -0.5923     -0.0000     -0.0000      0.3508      0.0857
         5         0.0000     -0.5923      0.0000      0.3508      0.0857
         6         0.0000     -0.0000     -0.8671      0.7519      0.1959
         7        -0.0000      0.4686      0.0000      0.2196      0.0592
         8        -0.4686     -0.0000     -0.0000      0.2196      0.0592
         9        -0.0000      0.0000      0.0000      0.0000      0.0000
        10         0.0000      0.0000      1.0239      1.0483      0.2904
        11         0.0000      0.0000     -0.0000      0.0000      0.0000
        12        -0.4986      0.0000     -0.0000      0.2486      0.0706
        13        -0.0000     -0.4986      0.0000      0.2486      0.0706
        14         0.0000     -0.0000     -0.0000      0.0000      0.0000
        15        -0.0000      0.0000     -0.0000      0.0000      0.0000
        16        -0.0000     -0.0000      0.0000      0.0000      0.0000
        17         0.6417      0.0000     -0.0000      0.4118      0.1182
        18        -0.0000      0.6417     -0.0000      0.4118      0.1182
        19         0.0000      0.0000      0.0000      0.0000      0.0000
        20        -0.0000      0.0000      0.0000      0.0000      0.0000
        21         0.0000      0.0000     -0.0000      0.0000      0.0000
        22         0.0000      0.0000      0.0000      0.0000      0.0000
        23        -0.0000     -0.0000     -0.0000      0.0000      0.0000
        24        -0.0000      0.0000     -0.0000      0.0000      0.0000
        25         0.0000     -0.0000      0.0000      0.0000      0.0000
        26         0.0000      0.0000     -0.0000      0.0000      0.0000
        27         0.0000     -0.0000      0.0000      0.0000      0.0000
        28        -0.0000     -0.0000      0.0000      0.0000      0.0000
        29         0.0000      0.0000      0.0000      0.0000      0.0000
        30         0.0000     -0.0000     -0.0000      0.0000      0.0000
        31        -0.1469      0.0000      0.0000      0.0216      0.0071
        32        -0.0000     -0.1469     -0.0000      0.0216      0.0071
        33        -0.0000      0.0000     -0.0000      0.0000      0.0000
        34        -0.0000     -0.0000     -0.0000      0.0000      0.0000
        35        -0.0000     -0.0000     -0.0000      0.0000      0.0000
        36        -0.0000      0.0000     -0.0000      0.0000      0.0000
        37         0.0000      0.0000      0.0000      0.0000      0.0000
        38        -0.0000     -0.4520     -0.0000      0.2043      0.0685
        39         0.4520     -0.0000      0.0000      0.2043      0.0685
        40        -0.0000      0.0000     -0.5936      0.3524      0.1185
        41        -0.0000      0.0000     -0.0000      0.0000      0.0000
        42        -0.0000     -0.0000      0.3505      0.1228      0.0421
        43        -0.0000      0.3549      0.0000      0.1259      0.0435
        44         0.3549      0.0000     -0.0000      0.1259      0.0435
        45        -0.8617      0.0000      0.0000      0.7426      0.2630
        46        -0.0000     -0.8617     -0.0000      0.7426      0.2630
        47        -0.0000     -0.0000      0.4886      0.2387      0.0855
        48        -0.0000      0.0000     -0.0000      0.0000      0.0000
        49         0.0000     -0.0000      0.0000      0.0000      0.0000
        50        -0.3444      0.0000     -0.0000      0.1186      0.0435
        51        -0.0000     -0.3444     -0.0000      0.1186      0.0435
        52         0.0000      0.7737     -0.0000      0.5987      0.2216
        53         0.7737     -0.0000     -0.0000      0.5987      0.2216
        54         0.0000      0.0000      1.4629      2.1401      0.7991
        55         0.0000     -0.0000      0.0000      0.0000      0.0000
        56         0.4104      0.0000      0.0000      0.1684      0.0636
        57        -0.0000      0.4104      0.0000      0.1684      0.0636
        58         0.0000     -0.0000     -0.0015      0.0000      0.0000
        59         0.0000      0.9339      0.0000      0.8721      0.3371
        60         0.9339     -0.0000      0.0000      0.8721      0.3371
        61        -0.0000      0.0000      0.0000      0.0000      0.0000
        62        -0.0000      0.0000     -0.0000      0.0000      0.0000
        63         0.0000      0.0000     -0.0000      0.0000      0.0000
        64        -0.0000      0.0000      0.0000      0.0000      0.0000
        65         0.0000      0.0000     -0.0000      0.0000      0.0000
        66        -0.0000     -0.0000      0.0000      0.0000      0.0000
        67        -0.0000      0.4062      0.0000      0.1650      0.0655
        68         0.4062      0.0000     -0.0000      0.1650      0.0655
        69         0.0000      0.0000     -0.2462      0.0606      0.0244
        70        -0.0000     -0.0000      0.0000      0.0000      0.0000
        71         0.0000      0.0000      0.0000      0.0000      0.0000
        72        -0.2064     -0.0000     -0.0000      0.0426      0.0178
        73        -0.0000      0.2064     -0.0000      0.0426      0.0178
        74        -0.0000      0.0000      0.9024      0.8143      0.3436
        75        -0.0000      0.0000     -0.0000      0.0000      0.0000
        76        -0.0000      0.0000     -0.0000      0.0000      0.0000
        77        -0.0000      0.0000     -0.0000      0.0000      0.0000
        78        -0.0000     -0.0000     -0.0000      0.0000      0.0000
        79         0.0000      0.0000      0.0000      0.0000      0.0000
        80         0.0000     -0.0000      0.0000      0.0000      0.0000
        81         0.0000      0.0000      0.0000      0.0000      0.0000
        82        -0.0000      0.0000     -0.0000      0.0000      0.0000
        83        -0.0000     -0.0000     -0.0000      0.0000      0.0000
        84         0.2670     -0.0000     -0.0000      0.0713      0.0317
        85         0.0000      0.2670     -0.0000      0.0713      0.0317
        86         0.0000     -0.0000      0.0000      0.0000      0.0000
        87        -0.0000      0.0000     -0.0000      0.0000      0.0000
        88        -0.0000      0.0000     -0.0000      0.0000      0.0000
        89         0.0000     -0.0000      0.0000      0.0000      0.0000
        90         0.0000      0.5198     -0.0000      0.2702      0.1213
        91         0.5198     -0.0000     -0.0000      0.2702      0.1213
        92        -0.0000      0.0000      0.0000      0.0000      0.0000
        93        -0.0000     -0.0000     -0.0000      0.0000      0.0000
        94         0.0000      0.0000      0.0000      0.0000      0.0000
        95         0.0000      0.0000     -0.7758      0.6018      0.2742
        96        -0.0000      0.0000      0.0000      0.0000      0.0000
        97        -0.0000      0.0000     -0.0000      0.0000      0.0000
        98         0.0000     -0.0000     -0.0000      0.0000      0.0000
        99        -0.0000      0.0000     -0.0000      0.0000      0.0000
       100        -0.1946      0.0000      0.0000      0.0379      0.0174
       101        -0.0000     -0.1946     -0.0000      0.0379      0.0174
       102        -0.0000     -0.0000      0.3027      0.0916      0.0423
       103        -0.0509      0.0000     -0.0000      0.0026      0.0012
       104        -0.0000     -0.0509      0.0000      0.0026      0.0012
       105         0.0000      0.0000      0.0000      0.0000      0.0000
       106        -0.0000      0.0000     -0.0000      0.0000      0.0000
       107        -0.0000      0.0000      0.0000      0.0000      0.0000
       108         0.0000      0.0000      0.0000      0.0000      0.0000
       109        -0.2665      0.0000     -0.0000      0.0710      0.0334
       110        -0.0000     -0.2665      0.0000      0.0710      0.0334
       111         0.5975      0.0000     -0.0000      0.3570      0.1683
       112        -0.0000      0.5975     -0.0000      0.3570      0.1683
       113         0.0000     -0.0000      0.0000      0.0000      0.0000
       114        -0.0000     -0.0000     -0.0000      0.0000      0.0000
       115         0.0000     -0.0000     -0.0000      0.0000      0.0000
       116        -0.0000      0.0000     -0.4082      0.1666      0.0805
       117         0.0000      0.0000      0.0000      0.0000      0.0000
       118        -0.0000      0.0000     -0.0000      0.0000      0.0000
       119        -0.0000     -0.0000      0.0000      0.0000      0.0000
       120         0.0000     -0.0000     -0.0000      0.0000      0.0000
       121         0.0000      0.0000      0.0000      0.0000      0.0000
       122         0.3533     -0.0000     -0.0000      0.1248      0.0614
       123         0.0000      0.3533     -0.0000      0.1248      0.0614
       124         0.0000      0.0000      0.6162      0.3797      0.1869
       125         0.0000      0.0000      0.0000      0.0000      0.0000
       126         0.0000      0.0000     -0.0000      0.0000      0.0000
       127        -0.0000      0.0000      0.0000      0.0000      0.0000
       128         0.0000     -0.0000      0.0000      0.0000      0.0000
       129         0.0000      0.0000      0.0000      0.0000      0.0000
       130        -0.0000     -0.0000      0.0000      0.0000      0.0000
       131         0.0000     -0.0000     -0.0000      0.0000      0.0000
       132         0.0000      0.0000     -0.1501      0.0225      0.0114
       133        -0.0000     -0.0000      0.0000      0.0000      0.0000
       134        -0.0000      0.0000     -0.0000      0.0000      0.0000
       135        -0.0000      0.5551     -0.0000      0.3081      0.1576
       136         0.5551      0.0000      0.0000      0.3081      0.1576
       137        -0.0000      0.0000     -0.0000      0.0000      0.0000
       138        -0.3689     -0.0000      0.0000      0.1361      0.0701
       139         0.0000     -0.3689      0.0000      0.1361      0.0701
       140        -0.0000      0.0000     -0.0000      0.0000      0.0000
       141         0.0000     -0.0000     -0.1392      0.0194      0.0100
       142        -0.0000      0.0000      0.0000      0.0000      0.0000
       143         0.0000      0.0000     -0.0000      0.0000      0.0000
       144        -0.0000      0.0000      0.0000      0.0000      0.0000
       145         0.0000      0.0000     -0.0000      0.0000      0.0000
       146        -0.0000     -0.0000      0.0000      0.0000      0.0000
       147        -0.0000     -0.0000      0.0000      0.0000      0.0000
       148        -0.0000     -0.0000     -0.0000      0.0000      0.0000
       149        -0.0000      0.0000     -0.1259      0.0159      0.0084
       150        -0.0000     -0.0000     -0.0000      0.0000      0.0000
       151        -0.0000     -0.1515     -0.0000      0.0230      0.0122
       152        -0.1515      0.0000      0.0000      0.0230      0.0122
       153         0.0000     -0.0000      0.0000      0.0000      0.0000
       154         0.0000      0.0000     -0.0000      0.0000      0.0000
       155         0.0000      0.0000      0.0000      0.0000      0.0000
       156        -0.0000     -0.4298      0.0000      0.1847      0.0989
       157        -0.4298      0.0000     -0.0000      0.1847      0.0989
       158         0.0000      0.0000      0.0000      0.0000      0.0000
       159        -0.0000      0.0000      0.0000      0.0000      0.0000
       160         0.0000     -0.0000      0.0000      0.0000      0.0000
       161        -0.0000      0.0000     -0.0000      0.0000      0.0000
       162         0.0000     -0.0000     -0.0000      0.0000      0.0000
       163         0.0512      0.0000      0.0000      0.0026      0.0014
       164        -0.0000      0.0512      0.0000      0.0026      0.0014
       165        -0.0861     -0.0000      0.0000      0.0074      0.0040
       166        -0.0000      0.0861     -0.0000      0.0074      0.0040
       167         0.0000      0.0000      0.0000      0.0000      0.0000
       168         0.0000      0.0000     -0.0000      0.0000      0.0000
       169         0.0000      0.0263     -0.0000      0.0007      0.0004
       170         0.0263     -0.0000      0.0000      0.0007      0.0004
       171         0.0000      0.0000      0.2254      0.0508      0.0279
       172         0.0000     -0.0000      0.0000      0.0000      0.0000
       173        -0.0000      0.0000     -0.0000      0.0000      0.0000
       174        -0.0000      0.0000     -0.0000      0.0000      0.0000
       175         0.0000      0.0000      0.0000      0.0000      0.0000
       176         0.0000      0.0000      0.0000      0.0000      0.0000
       177        -0.1477     -0.0000      0.0000      0.0218      0.0122
       178         0.0000     -0.1477      0.0000      0.0218      0.0122
       179        -0.0000     -0.0000      0.0000      0.0000      0.0000
       180         0.0000      0.4314      0.0000      0.1861      0.1062
       181        -0.4314      0.0000     -0.0000      0.1861      0.1062
       182         0.0000      0.0000     -0.9368      0.8777      0.5017
       183        -0.0000     -0.0000      0.0000      0.0000      0.0000
       184         0.0000     -0.0000     -0.5136      0.2638      0.1518
       185         0.1618      0.0000      0.0000      0.0262      0.0152
       186        -0.0000      0.1618      0.0000      0.0262      0.0152
       187        -0.0000     -0.0000      0.0000      0.0000      0.0000
       188        -0.0000      0.0000     -0.0000      0.0000      0.0000
       189         0.1947      0.0000     -0.0000      0.0379      0.0221
       190         0.0000     -0.1947     -0.0000      0.0379      0.0221
       191         0.0000     -0.0000      0.0000      0.0000      0.0000
       192        -0.0000      0.0000     -0.1783      0.0318      0.0186
       193        -0.0000     -0.0000      0.0000      0.0000      0.0000
       194         0.0000      0.0000      0.0000      0.0000      0.0000
       195         0.0000      0.0000      0.0000      0.0000      0.0000
       196         0.0000      0.0000      0.0000      0.0000      0.0000
       197        -0.1637     -0.0000      0.0000      0.0268      0.0159
       198         0.0000     -0.1637      0.0000      0.0268      0.0159
       199        -0.0000      0.0000      0.1192      0.0142      0.0085
       200        -0.0000      0.0000     -0.0000      0.0000      0.0000
       201        -0.0000     -0.0000     -0.0000      0.0000      0.0000
       202        -0.3541      0.0000     -0.0000      0.1254      0.0749
       203        -0.0000     -0.3541      0.0000      0.1254      0.0749
       204         0.0000      0.0000      0.0000      0.0000      0.0000
       205        -0.0000     -0.0000      0.2542      0.0646      0.0389
       206        -0.0000     -1.0887     -0.0000      1.1853      0.7143
       207        -1.0887      0.0000     -0.0000      1.1853      0.7143
       208         0.0000      0.0000     -0.3699      0.1369      0.0846
       209         0.0000      0.0000     -0.0000      0.0000      0.0000
       210        -0.0000      0.0000     -0.0000      0.0000      0.0000
       211         0.2086      0.0000      0.0000      0.0435      0.0271
       212        -0.0000      0.2086     -0.0000      0.0435      0.0271
       213        -0.0000      0.0000      0.0000      0.0000      0.0000
       214         0.0000     -0.0000      0.0000      0.0000      0.0000
       215         0.0000      0.0000      0.0000      0.0000      0.0000
       216         0.0000      0.0000     -0.0000      0.0000      0.0000
       217        -0.0000      0.0000      0.0000      0.0000      0.0000
       218        -0.0000      0.0000     -0.0000      0.0000      0.0000
       219        -0.0000      0.0000     -0.1765      0.0312      0.0197
       220         0.0000     -0.0000      0.0000      0.0000      0.0000
       221        -0.0000     -0.0606     -0.0000      0.0037      0.0023
       222        -0.0606      0.0000      0.0000      0.0037      0.0023
       223         0.0152     -0.0000      0.0000      0.0002      0.0001
       224         0.0000      0.0152     -0.0000      0.0002      0.0001
       225         0.0000      0.0000     -0.0000      0.0000      0.0000
       226        -0.0000      0.0000      0.0000      0.0000      0.0000
       227        -0.0000      0.0000     -0.0917      0.0084      0.0057
       228        -0.0000     -0.0000     -0.0000      0.0000      0.0000
       229        -0.0000      0.0000      0.0000      0.0000      0.0000
       230        -0.0000      0.0000      0.1926      0.0371      0.0259
       231        -0.2115      0.0000      0.0000      0.0447      0.0314
       232        -0.0000     -0.2115      0.0000      0.0447      0.0314
       233        -0.0327      0.0000     -0.0000      0.0011      0.0008
       234        -0.0000     -0.0327      0.0000      0.0011      0.0008
       235         0.0000      0.0000     -0.0000      0.0000      0.0000
       236         0.0000      0.0000      0.0000      0.0000      0.0000
       237        -0.0000      0.0000      0.0000      0.0000      0.0000
       238         0.0000      0.0000     -0.0000      0.0000      0.0000
       239        -0.0000      0.0000      0.0239      0.0006      0.0004
       240        -0.0118     -0.0000      0.0000      0.0001      0.0001
       241         0.0000     -0.0118     -0.0000      0.0001      0.0001
       242         0.0000      0.0000     -0.0000      0.0000      0.0000
       243        -0.0000     -0.0000      0.0000      0.0000      0.0000
       244         0.0000      0.0000      0.0000      0.0000      0.0000
       245         0.0000     -0.0000      0.0000      0.0000      0.0000
       246         0.0000      0.0000      0.0000      0.0000      0.0000
       247         0.0000     -0.0000      0.0000      0.0000      0.0000
       248         0.0000      0.0000     -0.1048      0.0110      0.0081
       249         0.0000     -0.0000      0.0000      0.0000      0.0000
       250        -0.0000     -0.0000     -0.0000      0.0000      0.0000
       251         0.0000     -0.0000      0.0000      0.0000      0.0000
       252         0.0000      0.0000      0.0000      0.0000      0.0000
       253        -0.0000     -0.3678      0.0000      0.1353      0.1047
       254        -0.3678      0.0000      0.0000      0.1353      0.1047
       255         0.0000      0.0000      0.0000      0.0000      0.0000
       256        -0.0000      0.0000     -0.0000      0.0000      0.0000
       257        -0.0000     -0.0000      0.0000      0.0000      0.0000
       258        -0.0000      0.0000     -0.1229      0.0151      0.0120
       259        -0.0000     -0.2604     -0.0000      0.0678      0.0542
       260        -0.2604      0.0000      0.0000      0.0678      0.0542
       261         0.0000      0.0000     -0.0000      0.0000      0.0000
       262        -0.0000      0.0000     -0.0000      0.0000      0.0000
       263         0.0865      0.0000     -0.0000      0.0075      0.0060
       264        -0.0000      0.0865      0.0000      0.0075      0.0060
       265        -0.0000     -0.0000     -0.0000      0.0000      0.0000
       266         0.0000     -0.0000      0.0000      0.0000      0.0000
       267        -0.0000      0.0000      0.0000      0.0000      0.0000
[...]
      8   0.000000D+00  0.000000D+00  0.000000D+00  0.000000D+00 -0.519583D-01
      9   0.000000D+00  0.000000D+00  0.000000D+00  0.519584D-01  0.000000D+00
     10   0.000000D+00  0.000000D+00  0.443566D+00 -0.177061D-05  0.000000D+00
     11   0.000000D+00  0.000000D+00  0.000000D+00  0.000000D+00 -0.368261D+00
     12   0.000000D+00  0.000000D+00  0.000000D+00  0.000000D+00  0.368260D+00
     13   0.000000D+00  0.000000D+00  0.000000D+00  0.000000D+00  0.000000D+00
     14   0.000000D+00  0.000000D+00  0.192674D-05 -0.368260D+00  0.000000D+00
     15   0.000000D+00  0.000000D+00 -0.121292D-05 -0.267529D+00  0.000000D+00
     16   0.000000D+00  0.000000D+00  0.000000D+00  0.000000D+00 -0.267529D+00
               486           487           488           489           490 
      1  -0.768645D+02 -0.768645D+02 -0.768640D+02 -0.768480D+02 -0.768480D+02
      2   0.000000D+00  0.000000D+00  0.000000D+00  0.000000D+00  0.000000D+00
      3   0.000000D+00  0.000000D+00  0.000000D+00  0.000000D+00  0.000000D+00
      4   0.000000D+00  0.000000D+00  0.000000D+00  0.000000D+00  0.000000D+00
      5   0.000000D+00  0.000000D+00  0.000000D+00  0.000000D+00  0.000000D+00
      6   0.000000D+00  0.000000D+00  0.000000D+00  0.000000D+00  0.000000D+00
      7   0.000000D+00  0.000000D+00  0.000000D+00  0.000000D+00  0.000000D+00
      8   0.455067D-01  0.000000D+00  0.691232D-05  0.000000D+00 -0.120861D+00
      9   0.000000D+00 -0.455072D-01  0.000000D+00  0.120862D+00  0.000000D+00
     10   0.000000D+00  0.410684D-05  0.000000D+00  0.000000D+00  0.000000D+00
     11  -0.338718D+00  0.000000D+00 -0.419478D+00  0.000000D+00  0.349297D-01
     12   0.338843D+00  0.000000D+00 -0.419378D+00  0.000000D+00 -0.349305D-01
     13   0.559968D-05  0.000000D+00 -0.392472D-01  0.000000D+00  0.000000D+00
     14   0.000000D+00 -0.338782D+00  0.000000D+00  0.349307D-01  0.000000D+00
     15   0.000000D+00  0.131738D-01  0.000000D+00  0.179764D+00  0.000000D+00
     16   0.131749D-01  0.000000D+00  0.199158D-05  0.000000D+00  0.179760D+00
               491           492           493           494           495 
      1  -0.768395D+02 -0.768395D+02 -0.768363D+02 -0.768322D+02 -0.768170D+02
      2   0.000000D+00  0.000000D+00  0.000000D+00  0.000000D+00  0.000000D+00
      3   0.000000D+00  0.000000D+00  0.000000D+00  0.000000D+00  0.000000D+00
      4   0.000000D+00  0.000000D+00  0.000000D+00  0.000000D+00  0.000000D+00
      5   0.000000D+00  0.000000D+00  0.000000D+00  0.000000D+00  0.000000D+00
      6   0.000000D+00  0.000000D+00  0.000000D+00  0.000000D+00  0.000000D+00
      7   0.000000D+00  0.000000D+00  0.000000D+00  0.000000D+00  0.000000D+00
      8   0.000000D+00 -0.304118D-01  0.000000D+00  0.000000D+00  0.477027D+00
      9  -0.304104D-01  0.000000D+00  0.000000D+00 -0.136106D-05  0.000000D+00
     10   0.112858D-05  0.000000D+00  0.000000D+00  0.106967D-01  0.000000D+00
     11   0.000000D+00 -0.786572D-01  0.162516D-01  0.000000D+00  0.219227D+00
     12   0.000000D+00  0.786570D-01  0.162526D-01  0.000000D+00 -0.219228D+00
     13   0.000000D+00  0.000000D+00  0.209477D+00  0.000000D+00  0.000000D+00
     14   0.786580D-01  0.000000D+00  0.000000D+00  0.000000D+00  0.000000D+00
     15  -0.362802D+00  0.000000D+00  0.000000D+00 -0.154916D-05  0.000000D+00
     16   0.000000D+00  0.362804D+00  0.000000D+00  0.000000D+00 -0.246726D+00
               496           497           498           499           500 
      1  -0.768170D+02 -0.767571D+02 -0.767515D+02 -0.767514D+02 -0.767467D+02
      2   0.000000D+00  0.000000D+00  0.000000D+00  0.000000D+00  0.000000D+00
      3   0.000000D+00  0.000000D+00  0.000000D+00  0.000000D+00 -0.109203D+00
      4   0.000000D+00  0.000000D+00  0.000000D+00  0.419932D-01  0.000000D+00
      5   0.000000D+00  0.000000D+00 -0.116020D-05  0.000000D+00  0.000000D+00
      6   0.000000D+00  0.000000D+00  0.000000D+00  0.000000D+00  0.292088D+00
      7   0.000000D+00  0.000000D+00  0.000000D+00 -0.161337D+00  0.000000D+00
      8   0.000000D+00  0.000000D+00  0.000000D+00  0.000000D+00  0.000000D+00
      9  -0.477028D+00  0.000000D+00  0.000000D+00  0.000000D+00  0.000000D+00
     10  -0.161993D-05  0.000000D+00  0.000000D+00  0.000000D+00  0.000000D+00
     11   0.000000D+00  0.109490D+00  0.000000D+00  0.000000D+00  0.000000D+00
     12   0.000000D+00  0.109491D+00  0.000000D+00  0.000000D+00  0.000000D+00
     13   0.000000D+00 -0.657760D+00  0.000000D+00  0.000000D+00  0.000000D+00
     14   0.219228D+00  0.000000D+00  0.000000D+00  0.000000D+00  0.000000D+00
     15  -0.246729D+00  0.000000D+00  0.000000D+00  0.000000D+00  0.000000D+00
     16   0.000000D+00  0.000000D+00  0.000000D+00  0.000000D+00  0.000000D+00
               501           502           503           504           505 
      1  -0.767467D+02 -0.767191D+02 -0.767191D+02 -0.766899D+02 -0.766880D+02
      2   0.109204D+00  0.000000D+00  0.000000D+00  0.000000D+00  0.000000D+00
      3   0.000000D+00  0.000000D+00  0.000000D+00  0.000000D+00  0.000000D+00
      4   0.000000D+00  0.000000D+00  0.000000D+00  0.000000D+00  0.000000D+00
      5  -0.292089D+00  0.000000D+00  0.000000D+00  0.000000D+00  0.000000D+00
      6   0.000000D+00  0.000000D+00  0.000000D+00  0.000000D+00  0.000000D+00
      7   0.000000D+00  0.000000D+00  0.000000D+00  0.000000D+00  0.000000D+00
      8   0.000000D+00  0.000000D+00 -0.204304D+00  0.499492D-05 -0.149569D+00
      9   0.000000D+00  0.204303D+00  0.000000D+00  0.000000D+00  0.000000D+00
     10   0.000000D+00  0.000000D+00  0.000000D+00  0.000000D+00  0.000000D+00
     11   0.000000D+00  0.000000D+00 -0.109632D+00  0.147131D+00  0.319132D+00
     12   0.000000D+00  0.000000D+00  0.109630D+00  0.147147D+00 -0.319123D+00
     13   0.000000D+00  0.000000D+00  0.000000D+00 -0.155692D+00  0.430395D-04
     14   0.000000D+00 -0.109632D+00  0.000000D+00  0.000000D+00  0.000000D+00
     15   0.000000D+00  0.382175D+00  0.000000D+00  0.000000D+00  0.000000D+00
     16   0.000000D+00  0.000000D+00  0.382175D+00 -0.955700D-05  0.300513D+00
               506           507           508           509           510 
      1  -0.766880D+02 -0.766875D+02 -0.766299D+02 -0.766299D+02 -0.765792D+02
      2   0.000000D+00  0.000000D+00 -0.583744D-01  0.000000D+00  0.000000D+00
      3   0.000000D+00  0.000000D+00  0.000000D+00 -0.583745D-01  0.337921D-01
      4   0.000000D+00  0.000000D+00  0.000000D+00  0.000000D+00  0.000000D+00
      5   0.000000D+00  0.000000D+00  0.121527D+00  0.000000D+00  0.000000D+00
      6   0.000000D+00  0.000000D+00  0.000000D+00  0.121527D+00 -0.828804D-01
      7   0.000000D+00  0.000000D+00  0.000000D+00  0.000000D+00  0.000000D+00
      8   0.000000D+00 -0.106047D-04  0.000000D+00  0.000000D+00  0.000000D+00
      9  -0.149569D+00  0.000000D+00  0.000000D+00  0.000000D+00  0.000000D+00
     10   0.000000D+00  0.000000D+00  0.000000D+00  0.000000D+00  0.000000D+00
     11   0.000000D+00 -0.134606D-01  0.000000D+00  0.000000D+00  0.000000D+00
     12   0.000000D+00 -0.135066D-01  0.000000D+00  0.000000D+00  0.000000D+00
     13   0.000000D+00 -0.660468D+00  0.000000D+00  0.000000D+00  0.000000D+00
     14  -0.319128D+00  0.000000D+00  0.000000D+00  0.000000D+00  0.000000D+00
     15  -0.300512D+00  0.000000D+00  0.000000D+00  0.000000D+00  0.000000D+00
     16   0.000000D+00  0.215217D-04  0.000000D+00  0.000000D+00  0.000000D+00
               511           512           513           514           515 
      1  -0.765792D+02 -0.765532D+02 -0.765479D+02 -0.765479D+02 -0.765133D+02
      2   0.337923D-01  0.000000D+00  0.000000D+00  0.768496D-01  0.000000D+00
      3   0.000000D+00  0.000000D+00 -0.768496D-01  0.000000D+00 -0.872707D-01
      4   0.000000D+00  0.710891D-02  0.000000D+00  0.000000D+00  0.000000D+00
      5  -0.828810D-01  0.000000D+00  0.000000D+00 -0.187187D+00  0.000000D+00
      6   0.000000D+00  0.000000D+00  0.187187D+00  0.000000D+00  0.234725D+00
      7   0.000000D+00 -0.387237D-01  0.000000D+00  0.000000D+00  0.000000D+00
      8   0.000000D+00  0.000000D+00  0.000000D+00  0.000000D+00  0.000000D+00
      9   0.000000D+00  0.000000D+00  0.000000D+00  0.000000D+00  0.000000D+00
     10   0.000000D+00  0.000000D+00  0.000000D+00  0.000000D+00  0.000000D+00
     11   0.000000D+00  0.000000D+00  0.000000D+00  0.000000D+00  0.000000D+00
     12   0.000000D+00  0.000000D+00  0.000000D+00  0.000000D+00  0.000000D+00
     13   0.000000D+00  0.000000D+00  0.000000D+00  0.000000D+00  0.000000D+00
     14   0.000000D+00  0.000000D+00  0.000000D+00  0.000000D+00  0.000000D+00
     15   0.000000D+00  0.000000D+00  0.000000D+00  0.000000D+00  0.000000D+00
     16   0.000000D+00  0.000000D+00  0.000000D+00  0.000000D+00  0.000000D+00
               516           517           518           519           520 
      1  -0.765133D+02 -0.764888D+02 -0.764465D+02 -0.764435D+02 -0.764435D+02
      2  -0.872705D-01  0.000000D+00  0.000000D+00  0.000000D+00  0.000000D+00
      3   0.000000D+00  0.000000D+00  0.000000D+00  0.000000D+00  0.000000D+00
      4   0.000000D+00  0.137130D+00  0.627922D-01  0.000000D+00  0.000000D+00
      5   0.234725D+00  0.000000D+00  0.000000D+00  0.000000D+00  0.000000D+00
      6   0.000000D+00  0.000000D+00 -0.148934D-05  0.000000D+00  0.000000D+00
      7   0.000000D+00 -0.428666D+00 -0.184901D+00  0.000000D+00  0.000000D+00
      8   0.000000D+00  0.000000D+00  0.000000D+00  0.370536D-01  0.000000D+00
      9   0.000000D+00  0.000000D+00  0.000000D+00  0.000000D+00 -0.370522D-01
     10   0.000000D+00  0.000000D+00  0.000000D+00  0.000000D+00  0.000000D+00
     11   0.000000D+00  0.000000D+00  0.000000D+00  0.115759D-01  0.000000D+00
     12   0.000000D+00  0.000000D+00  0.000000D+00 -0.115775D-01  0.000000D+00
     13   0.000000D+00  0.000000D+00  0.000000D+00 -0.432775D-05  0.000000D+00
     14   0.000000D+00  0.000000D+00  0.000000D+00  0.000000D+00  0.115771D-01
     15   0.000000D+00  0.000000D+00  0.000000D+00  0.000000D+00  0.140764D+00
     16   0.000000D+00  0.000000D+00  0.000000D+00  0.140762D+00  0.000000D+00
               521           522           523           524           525 
      1  -0.764261D+02 -0.764261D+02 -0.764092D+02 -0.764092D+02 -0.764083D+02
      2   0.000000D+00  0.000000D+00  0.000000D+00  0.000000D+00  0.000000D+00
      3   0.000000D+00  0.000000D+00  0.000000D+00  0.000000D+00  0.000000D+00
      4   0.000000D+00  0.000000D+00  0.000000D+00  0.000000D+00  0.000000D+00
      5   0.000000D+00  0.000000D+00  0.000000D+00  0.000000D+00  0.000000D+00
      6   0.000000D+00  0.000000D+00  0.000000D+00  0.000000D+00  0.000000D+00
      7   0.000000D+00  0.000000D+00  0.000000D+00  0.000000D+00  0.000000D+00
      8  -0.408911D+00  0.000000D+00 -0.472985D+00  0.000000D+00  0.468979D-04
      9   0.000000D+00  0.408908D+00  0.000000D+00  0.472984D+00  0.000000D+00
     10   0.000000D+00  0.000000D+00  0.000000D+00 -0.151722D-05  0.000000D+00
     11   0.101788D+00  0.000000D+00 -0.641212D-01  0.000000D+00 -0.142116D+00
     12  -0.101791D+00  0.000000D+00  0.640940D-01  0.000000D+00 -0.142129D+00
     13  -0.774598D-05  0.000000D+00 -0.987791D-04  0.000000D+00 -0.104785D+01
     14   0.000000D+00  0.101789D+00  0.000000D+00 -0.641069D-01  0.000000D+00
     15   0.000000D+00  0.452272D+00  0.000000D+00  0.100747D+00  0.000000D+00
     16   0.452275D+00  0.000000D+00  0.100750D+00  0.000000D+00 -0.116225D-04
               526           527           528           529           530 
      1  -0.763963D+02 -0.763810D+02 -0.763810D+02 -0.763453D+02 -0.763385D+02
      2   0.000000D+00  0.000000D+00  0.000000D+00  0.000000D+00  0.000000D+00
      3   0.000000D+00  0.000000D+00  0.000000D+00 -0.195836D-05  0.166962D+00
      4   0.000000D+00  0.000000D+00  0.000000D+00  0.152192D+00  0.120948D-05
      5   0.000000D+00  0.000000D+00  0.000000D+00  0.000000D+00  0.000000D+00
      6   0.000000D+00  0.000000D+00  0.000000D+00  0.588319D-05 -0.504176D+00
      7   0.000000D+00  0.000000D+00  0.000000D+00 -0.457964D+00 -0.347035D-05
      8   0.000000D+00  0.000000D+00  0.476580D+00  0.000000D+00  0.000000D+00
      9   0.665605D-05 -0.476582D+00  0.000000D+00  0.000000D+00  0.000000D+00
     10   0.106838D+00  0.000000D+00  0.000000D+00  0.000000D+00  0.000000D+00
     11   0.000000D+00  0.000000D+00 -0.175195D+00  0.000000D+00  0.000000D+00
     12   0.000000D+00  0.000000D+00  0.175194D+00  0.000000D+00  0.000000D+00
     13   0.000000D+00  0.000000D+00  0.000000D+00  0.000000D+00  0.000000D+00
     14   0.000000D+00 -0.175195D+00  0.000000D+00  0.000000D+00  0.000000D+00
     15   0.307396D-05 -0.703459D+00  0.000000D+00  0.000000D+00  0.000000D+00
     16   0.000000D+00  0.000000D+00 -0.703458D+00  0.000000D+00  0.000000D+00
               531           532           533           534           535 
      1  -0.763385D+02 -0.763244D+02 -0.763125D+02 -0.763020D+02 -0.763020D+02
      2  -0.166961D+00 -0.389891D-05  0.000000D+00  0.000000D+00  0.544254D-01
      3   0.000000D+00  0.000000D+00  0.000000D+00  0.544246D-01  0.000000D+00
      4   0.000000D+00  0.000000D+00  0.000000D+00  0.000000D+00  0.000000D+00
      5   0.504174D+00  0.118983D-04  0.000000D+00  0.000000D+00 -0.149873D+00
      6   0.000000D+00  0.000000D+00  0.000000D+00 -0.149870D+00  0.000000D+00
      7   0.000000D+00  0.000000D+00  0.000000D+00 -0.160046D-05  0.000000D+00
      8   0.000000D+00  0.000000D+00  0.000000D+00  0.000000D+00  0.000000D+00
      9   0.000000D+00  0.000000D+00  0.000000D+00  0.000000D+00  0.000000D+00
     10   0.000000D+00  0.000000D+00  0.000000D+00  0.000000D+00  0.000000D+00
     11   0.000000D+00  0.000000D+00  0.153194D+00  0.000000D+00  0.000000D+00
     12   0.000000D+00  0.000000D+00  0.153193D+00  0.000000D+00  0.000000D+00
     13   0.000000D+00  0.000000D+00 -0.545169D+00  0.000000D+00  0.000000D+00
     14   0.000000D+00  0.000000D+00  0.000000D+00  0.000000D+00  0.000000D+00
     15   0.000000D+00  0.000000D+00  0.000000D+00  0.000000D+00  0.000000D+00
     16   0.000000D+00  0.000000D+00  0.000000D+00  0.000000D+00  0.000000D+00
               536           537           538           539           540 
      1  -0.762965D+02 -0.762960D+02 -0.762960D+02 -0.762953D+02 -0.762464D+02
      2   0.000000D+00  0.893755D-02  0.000000D+00  0.000000D+00  0.000000D+00
      3   0.000000D+00  0.000000D+00 -0.893825D-02  0.000000D+00  0.000000D+00
      4   0.398711D-01  0.000000D+00  0.000000D+00  0.000000D+00  0.000000D+00
      5   0.000000D+00 -0.551102D-01  0.000000D+00 -0.147211D-05  0.000000D+00
      6   0.000000D+00  0.000000D+00  0.551121D-01  0.000000D+00  0.000000D+00
      7  -0.128937D+00  0.000000D+00 -0.225211D-05  0.000000D+00  0.000000D+00
      8   0.000000D+00  0.000000D+00  0.000000D+00  0.000000D+00  0.272736D-05
      9   0.000000D+00  0.000000D+00  0.000000D+00  0.000000D+00  0.000000D+00
     10   0.000000D+00  0.000000D+00  0.000000D+00  0.000000D+00  0.000000D+00
     11   0.000000D+00  0.000000D+00  0.000000D+00  0.000000D+00  0.107890D+00
     12   0.000000D+00  0.000000D+00  0.000000D+00  0.000000D+00  0.107887D+00
     13   0.000000D+00  0.000000D+00  0.000000D+00  0.000000D+00 -0.875632D+00
     14   0.000000D+00  0.000000D+00  0.000000D+00  0.000000D+00  0.000000D+00
     15   0.000000D+00  0.000000D+00  0.000000D+00  0.000000D+00  0.000000D+00
     16   0.000000D+00  0.000000D+00  0.000000D+00  0.000000D+00 -0.320929D-05
               541           542           543           544           545 
      1  -0.762339D+02 -0.762274D+02 -0.762274D+02 -0.762255D+02 -0.761402D+02
      2   0.000000D+00  0.000000D+00  0.000000D+00  0.000000D+00 -0.834245D-01
      3   0.000000D+00  0.000000D+00  0.000000D+00  0.000000D+00  0.000000D+00
      4   0.000000D+00  0.000000D+00  0.000000D+00  0.000000D+00  0.000000D+00
      5   0.000000D+00  0.000000D+00  0.000000D+00  0.000000D+00  0.224029D+00
      6   0.000000D+00  0.000000D+00  0.000000D+00  0.000000D+00  0.000000D+00
      7   0.000000D+00  0.000000D+00  0.000000D+00  0.000000D+00  0.000000D+00
      8   0.695498D-05 -0.412949D+00  0.000000D+00  0.000000D+00  0.000000D+00
      9   0.000000D+00  0.000000D+00  0.412949D+00  0.406357D-04  0.000000D+00
     10   0.000000D+00  0.000000D+00  0.114062D-05 -0.124182D-01  0.000000D+00
     11   0.453331D-01 -0.117752D+00  0.000000D+00  0.000000D+00  0.000000D+00
     12   0.453280D-01  0.117757D+00  0.000000D+00  0.000000D+00  0.000000D+00
     13  -0.126666D+01 -0.326634D-04  0.000000D+00  0.000000D+00  0.000000D+00
     14   0.000000D+00  0.000000D+00 -0.117754D+00 -0.110796D-04  0.000000D+00
     15   0.000000D+00  0.000000D+00  0.399057D+00  0.391636D-04  0.000000D+00
     16  -0.681616D-05  0.399057D+00  0.000000D+00  0.000000D+00  0.000000D+00
               546           547           548           549           550 
      1  -0.761402D+02 -0.761176D+02 -0.760627D+02 -0.760627D+02 -0.759991D+02
      2   0.000000D+00  0.000000D+00  0.000000D+00  0.000000D+00  0.000000D+00
      3  -0.834240D-01  0.000000D+00  0.000000D+00  0.000000D+00  0.000000D+00
      4   0.000000D+00  0.875459D-01  0.000000D+00  0.000000D+00  0.000000D+00
      5   0.000000D+00  0.000000D+00  0.000000D+00  0.000000D+00  0.000000D+00
      6   0.224028D+00  0.000000D+00  0.000000D+00  0.000000D+00  0.000000D+00
      7   0.000000D+00 -0.203708D+00  0.000000D+00  0.000000D+00  0.000000D+00
      8   0.000000D+00  0.000000D+00  0.000000D+00 -0.474013D+00  0.000000D+00
      9   0.000000D+00  0.000000D+00  0.474016D+00  0.000000D+00  0.335820D+00
     10   0.000000D+00  0.000000D+00  0.000000D+00  0.000000D+00  0.000000D+00
     11   0.000000D+00  0.000000D+00  0.000000D+00  0.148766D+00  0.000000D+00
     12   0.000000D+00  0.000000D+00  0.000000D+00 -0.148765D+00  0.000000D+00
     13   0.000000D+00  0.000000D+00  0.000000D+00  0.000000D+00  0.000000D+00
     14   0.000000D+00  0.000000D+00  0.148766D+00  0.000000D+00  0.190925D+00
     15   0.000000D+00  0.000000D+00  0.265819D+00  0.000000D+00  0.316610D+00
     16   0.000000D+00  0.000000D+00  0.000000D+00  0.265816D+00  0.000000D+00
               551           552           553 
      1  -0.759991D+02 -0.759225D+02 -0.759225D+02
      2   0.000000D+00 -0.106525D+00  0.000000D+00
      3   0.000000D+00  0.000000D+00 -0.106525D+00
      4   0.000000D+00  0.000000D+00  0.000000D+00
      5   0.000000D+00  0.311950D+00  0.000000D+00
      6   0.000000D+00  0.000000D+00  0.311949D+00
      7   0.000000D+00  0.000000D+00  0.000000D+00
      8  -0.335821D+00  0.000000D+00  0.000000D+00
      9   0.000000D+00  0.000000D+00  0.000000D+00
     10   0.000000D+00  0.000000D+00  0.000000D+00
     11   0.190926D+00  0.000000D+00  0.000000D+00
     12  -0.190925D+00  0.000000D+00  0.000000D+00
     13   0.000000D+00  0.000000D+00  0.000000D+00
     14   0.000000D+00  0.000000D+00  0.000000D+00
     15   0.000000D+00  0.000000D+00  0.000000D+00
     16   0.316610D+00  0.000000D+00  0.000000D+00
 Unable to Open any file for archive entry.
 1\1\GINC-HEL25\SP\RTPSSh TD-FC\Gen\C2H6\SABYASACHI\21-Mar-2022\0\\#P T
 D(Nstates=10000) tpssh/Gen SCF(maxcycles=100) Int(Grid=ultrafine)\\xGD
 B7_00001_tier4.com\\0,1\C,0,0.,0.,0.761397\C,0,0.,0.,-0.761397\H,0,0.,
 1.01711,1.157248\H,0,0.880843,-0.508555,1.157248\H,0,-0.880843,-0.5085
 55,1.157248\H,0,0.880843,0.508555,-1.157248\H,0,-0.880843,0.508555,-1.
 157248\H,0,0.,-1.01711,-1.157248\\Version=EM64L-G16RevC.01\State=1-A1G
 \HF=-79.7835676\RMSD=5.598e-09\PG=D03D [C3(C1.C1),3SGD(H2)]\\@
 The archive entry for this job was punched.


 TOWERING GENIUS DISDAINS A BEATEN PATH.  IT SEEKS 
 REGIONS HITHERTO UNEXPLORED.

                                -- ABRAHAM LINCOLN
 Job cpu time:       0 days  0 hours  4 minutes 15.6 seconds.
 Elapsed time:       0 days  0 hours  0 minutes 32.2 seconds.
 File lengths (MBytes):  RWF=    401 Int=      0 D2E=      0 Chk=    102 Scr=      1
 Normal termination of Gaussian 16 at Mon Mar 21 20:00:44 2022.
