 Entering Gaussian System, Link 0=g16
 Input=000007.com
 Output=000007.log
 Initial command:
 /home/sabyasachi/g16/l1.exe "/scratch/sabyasachi/PBS_7976075.helios/Gau-105643.inp" -scrdir="/scratch/sabyasachi/PBS_7976075.helios/"
 Entering Link 1 = /home/sabyasachi/g16/l1.exe PID=    105644.
  
 Copyright (c) 1988-2019, Gaussian, Inc.  All Rights Reserved.
  
 This is part of the Gaussian(R) 16 program.  It is based on
 the Gaussian(R) 09 system (copyright 2009, Gaussian, Inc.),
 the Gaussian(R) 03 system (copyright 2003, Gaussian, Inc.),
 the Gaussian(R) 98 system (copyright 1998, Gaussian, Inc.),
 the Gaussian(R) 94 system (copyright 1995, Gaussian, Inc.),
 the Gaussian 92(TM) system (copyright 1992, Gaussian, Inc.),
 the Gaussian 90(TM) system (copyright 1990, Gaussian, Inc.),
 the Gaussian 88(TM) system (copyright 1988, Gaussian, Inc.),
 the Gaussian 86(TM) system (copyright 1986, Carnegie Mellon
 University), and the Gaussian 82(TM) system (copyright 1983,
 Carnegie Mellon University). Gaussian is a federally registered
 trademark of Gaussian, Inc.
  
 This software contains proprietary and confidential information,
 including trade secrets, belonging to Gaussian, Inc.
  
 This software is provided under written license and may be
 used, copied, transmitted, or stored only in accord with that
 written license.
  
 The following legend is applicable only to US Government
 contracts under FAR:
  
                    RESTRICTED RIGHTS LEGEND
  
 Use, reproduction and disclosure by the US Government is
 subject to restrictions as set forth in subparagraphs (a)
 and (c) of the Commercial Computer Software - Restricted
 Rights clause in FAR 52.227-19.
  
 Gaussian, Inc.
 340 Quinnipiac St., Bldg. 40, Wallingford CT 06492
  
  
 ---------------------------------------------------------------
 Warning -- This program may not be used in any manner that
 competes with the business of Gaussian, Inc. or will provide
 assistance to any competitor of Gaussian, Inc.  The licensee
 of this program is prohibited from giving any competitor of
 Gaussian, Inc. access to this program.  By using this program,
 the user acknowledges that Gaussian, Inc. is engaged in the
 business of creating and licensing software in the field of
 computational chemistry and represents and warrants to the
 licensee that it is not a competitor of Gaussian, Inc. and that
 it will not use this program in any manner prohibited above.
 ---------------------------------------------------------------
  

 Cite this work as:
 Gaussian 16, Revision C.01,
 M. J. Frisch, G. W. Trucks, H. B. Schlegel, G. E. Scuseria, 
 M. A. Robb, J. R. Cheeseman, G. Scalmani, V. Barone, 
 G. A. Petersson, H. Nakatsuji, X. Li, M. Caricato, A. V. Marenich, 
 J. Bloino, B. G. Janesko, R. Gomperts, B. Mennucci, H. P. Hratchian, 
 J. V. Ortiz, A. F. Izmaylov, J. L. Sonnenberg, D. Williams-Young, 
 F. Ding, F. Lipparini, F. Egidi, J. Goings, B. Peng, A. Petrone, 
 T. Henderson, D. Ranasinghe, V. G. Zakrzewski, J. Gao, N. Rega, 
 G. Zheng, W. Liang, M. Hada, M. Ehara, K. Toyota, R. Fukuda, 
 J. Hasegawa, M. Ishida, T. Nakajima, Y. Honda, O. Kitao, H. Nakai, 
 T. Vreven, K. Throssell, J. A. Montgomery, Jr., J. E. Peralta, 
 F. Ogliaro, M. J. Bearpark, J. J. Heyd, E. N. Brothers, K. N. Kudin, 
 V. N. Staroverov, T. A. Keith, R. Kobayashi, J. Normand, 
 K. Raghavachari, A. P. Rendell, J. C. Burant, S. S. Iyengar, 
 J. Tomasi, M. Cossi, J. M. Millam, M. Klene, C. Adamo, R. Cammi, 
 J. W. Ochterski, R. L. Martin, K. Morokuma, O. Farkas, 
 J. B. Foresman, and D. J. Fox, Gaussian, Inc., Wallingford CT, 2019.
 
 ******************************************
 Gaussian 16:  EM64L-G16RevC.01  3-Jul-2019
                21-Mar-2022 
 ******************************************
 %mem=64gb
 %nproc=8
 Will use up to    8 processors via shared memory.
 ---------------------------------------------------------------------
 #P TD(Nstates=10000) tpssh/Gen SCF(maxcycles=100) Int(Grid=ultrafine)
 ---------------------------------------------------------------------
 1/38=1,172=1/1;
 2/12=2,17=6,18=5,40=1/2;
 3/5=7,11=9,25=1,30=1,74=-35,75=-5/1,2,3,8;
 4//1;
 5/5=2,7=100,38=5/2;
 8/6=1,10=1,108=10000/1;
 9/41=10000,42=1,70=2/14;
 6/7=2,8=2,9=2,10=2/1;
 99/5=1,9=1/99;
 Leave Link    1 at Mon Mar 21 04:02:40 2022, MaxMem=  8589934592 cpu:               0.4 elap:               0.1
 (Enter /home/sabyasachi/g16/l101.exe)
 ---------------------
 xGDB7_00001_tier4.com
 ---------------------
 Symbolic Z-matrix:
 Charge =  0 Multiplicity = 1
 6                     0.04642   0.65843   0. 
 8                     0.04642  -0.75193   0. 
 1                    -0.43891   1.07326   0.8908 
 1                    -0.43891   1.07326  -0.8908 
 1                     1.08786   0.97757   0. 
 1                    -0.85991  -1.05925   0. 
 
 ITRead=  0  0  0  0  0  0
 MicOpt= -1 -1 -1 -1 -1 -1
 NAtoms=      6 NQM=        6 NQMF=       0 NMMI=      0 NMMIF=      0
                NMic=       0 NMicF=      0.
                    Isotopes and Nuclear Properties:
 (Nuclear quadrupole moments (NQMom) in fm**2, nuclear magnetic moments (NMagM)
  in nuclear magnetons)

  Atom         1           2           3           4           5           6
 IAtWgt=          12          16           1           1           1           1
 AtmWgt=  12.0000000  15.9949146   1.0078250   1.0078250   1.0078250   1.0078250
 NucSpn=           0           0           1           1           1           1
 AtZEff=  -0.0000000  -0.0000000  -0.0000000  -0.0000000  -0.0000000  -0.0000000
 NQMom=    0.0000000   0.0000000   0.0000000   0.0000000   0.0000000   0.0000000
 NMagM=    0.0000000   0.0000000   2.7928460   2.7928460   2.7928460   2.7928460
 AtZNuc=   6.0000000   8.0000000   1.0000000   1.0000000   1.0000000   1.0000000
 Leave Link  101 at Mon Mar 21 04:02:41 2022, MaxMem=  8589934592 cpu:               0.6 elap:               0.1
 (Enter /home/sabyasachi/g16/l202.exe)
                          Input orientation:                          
 ---------------------------------------------------------------------
 Center     Atomic      Atomic             Coordinates (Angstroms)
 Number     Number       Type             X           Y           Z
 ---------------------------------------------------------------------
      1          6           0        0.046419    0.658432    0.000000
      2          8           0        0.046419   -0.751929    0.000000
      3          1           0       -0.438905    1.073261    0.890797
      4          1           0       -0.438905    1.073261   -0.890797
      5          1           0        1.087855    0.977571    0.000000
      6          1           0       -0.859911   -1.059251    0.000000
 ---------------------------------------------------------------------
                    Distance matrix (angstroms):
                    1          2          3          4          5
     1  C    0.000000
     2  O    1.410361   0.000000
     3  H    1.095966   2.088152   0.000000
     4  H    1.095966   2.088152   1.781594   0.000000
     5  H    1.089238   2.018851   1.770218   1.770218   0.000000
     6  H    1.942130   0.957017   2.349122   2.349122   2.818233
                    6
     6  H    0.000000
 Stoichiometry    CH4O
 Framework group  CS[SG(CH2O),X(H2)]
 Deg. of freedom     8
 Full point group                 CS      NOp   2
 Largest Abelian subgroup         CS      NOp   2
 Largest concise Abelian subgroup CS      NOp   2
                         Standard orientation:                         
 ---------------------------------------------------------------------
 Center     Atomic      Atomic             Coordinates (Angstroms)
 Number     Number       Type             X           Y           Z
 ---------------------------------------------------------------------
      1          6           0        0.046419    0.658432    0.000000
      2          8           0        0.046419   -0.751929    0.000000
      3          1           0       -0.438905    1.073261    0.890797
      4          1           0       -0.438905    1.073261   -0.890797
      5          1           0        1.087855    0.977571    0.000000
      6          1           0       -0.859911   -1.059251    0.000000
 ---------------------------------------------------------------------
 Rotational constants (GHZ):         128.7867885          25.0443601          24.1755020
 Leave Link  202 at Mon Mar 21 04:02:41 2022, MaxMem=  8589934592 cpu:               0.1 elap:               0.0
 (Enter /home/sabyasachi/g16/l301.exe)
 General basis read from cards:  (5D, 7F)
 Centers:       3      4      5      6
 S 3 1.00
     Exponent=  1.3010701000D+01 Coefficients=  1.9682158000D-02
     Exponent=  1.9622572000D+00 Coefficients=  1.3796524000D-01
     Exponent=  4.4453796000D-01 Coefficients=  4.7831935000D-01
 S 1 1.00
     Exponent=  1.2194962000D-01 Coefficients=  1.0000000000D+00
 P 1 1.00
     Exponent=  8.0000000000D-01 Coefficients=  1.0000000000D+00
 P 1 1.00
     Exponent=  1.1704099050D-01 Coefficients=  1.0000000000D+00
 ****
 Centers:       1
 S 5 1.00
     Exponent=  1.2384016938D+03 Coefficients=  5.4568832082D-03
     Exponent=  1.8629004992D+02 Coefficients=  4.0638409211D-02
     Exponent=  4.2251176346D+01 Coefficients=  1.8025593888D-01
     Exponent=  1.1676557932D+01 Coefficients=  4.6315121755D-01
     Exponent=  3.5930506482D+00 Coefficients=  4.4087173314D-01
 S 1 1.00
     Exponent=  4.0245147363D-01 Coefficients=  1.0000000000D+00
 S 1 1.00
     Exponent=  1.3090182668D-01 Coefficients=  1.0000000000D+00
 S 1 1.00
     Exponent=  6.7053540256D-02 Coefficients=  1.0000000000D+00
 P 3 1.00
     Exponent=  9.4680970621D+00 Coefficients=  3.8387871728D-02
     Exponent=  2.0103545142D+00 Coefficients=  2.1117025112D-01
     Exponent=  5.4771004707D-01 Coefficients=  5.1328172114D-01
 P 1 1.00
     Exponent=  1.5268613795D-01 Coefficients=  1.0000000000D+00
 D 1 1.00
     Exponent=  8.0000000000D-01 Coefficients=  1.0000000000D+00
 D 1 1.00
     Exponent=  1.1713185140D-01 Coefficients=  1.0000000000D+00
 ****
 Centers:       2
 S 5 1.00
     Exponent=  2.2661767785D+03 Coefficients= -5.3431809926D-03
     Exponent=  3.4087010191D+02 Coefficients= -3.9890039230D-02
     Exponent=  7.7363135167D+01 Coefficients= -1.7853911985D-01
     Exponent=  2.1479644940D+01 Coefficients= -4.6427684959D-01
     Exponent=  6.6589433124D+00 Coefficients= -4.4309745172D-01
 S 1 1.00
     Exponent=  8.0975975668D-01 Coefficients=  1.0000000000D+00
 S 1 1.00
     Exponent=  2.5530772234D-01 Coefficients=  1.0000000000D+00
 S 1 1.00
     Exponent=  7.6572453250D-02 Coefficients=  1.0000000000D+00
 P 3 1.00
     Exponent=  1.7721504317D+01 Coefficients=  4.3394573193D-02
     Exponent=  3.8635505440D+00 Coefficients=  2.3094120765D-01
     Exponent=  1.0480920883D+00 Coefficients=  5.1375311064D-01
 P 1 1.00
     Exponent=  2.7641544411D-01 Coefficients=  1.0000000000D+00
 P 1 1.00
     Exponent=  6.9002276350D-02 Coefficients=  1.0000000000D+00
 D 1 1.00
     Exponent=  1.2000000000D+00 Coefficients=  1.0000000000D+00
 D 1 1.00
     Exponent=  1.7992024323D-01 Coefficients=  1.0000000000D+00
 ****
 Ernie: Thresh=  0.10000D-02 Tol=  0.10000D-05 Strict=F.
 There are    54 symmetry adapted cartesian basis functions of A'  symmetry.
 There are    25 symmetry adapted cartesian basis functions of A"  symmetry.
 There are    50 symmetry adapted basis functions of A'  symmetry.
 There are    25 symmetry adapted basis functions of A"  symmetry.
    75 basis functions,   107 primitive gaussians,    79 cartesian basis functions
     9 alpha electrons        9 beta electrons
       nuclear repulsion energy        40.4621956244 Hartrees.
 IExCor= 2523 DFT=T Ex+Corr=TPSSh ExCW=0 ScaHFX=  0.100000
 ScaDFX=  0.900000  0.900000  1.000000  1.000000 ScalE2=  1.000000  1.000000
 IRadAn=      5 IRanWt=     -1 IRanGd=            0 ICorTp=0 IEmpDi=  4
 NAtoms=    6 NActive=    6 NUniq=    5 SFac= 1.44D+00 NAtFMM=   60 NAOKFM=F Big=F
 Integral buffers will be    131072 words long.
 Regular integral format.
 Two-electron integral symmetry is turned on.
 Leave Link  301 at Mon Mar 21 04:02:41 2022, MaxMem=  8589934592 cpu:               0.6 elap:               0.1
 (Enter /home/sabyasachi/g16/l302.exe)
 NPDir=0 NMtPBC=     1 NCelOv=     1 NCel=       1 NClECP=     1 NCelD=      1
         NCelK=      1 NCelE2=     1 NClLst=     1 CellRange=     0.0.
 One-electron integrals computed using PRISM.
 One-electron integral symmetry used in STVInt
 NBasis=    75 RedAO= T EigKep=  5.97D-04  NBF=    50    25
 NBsUse=    75 1.00D-06 EigRej= -1.00D+00 NBFU=    50    25
 Precomputing XC quadrature grid using
 IXCGrd= 4 IRadAn=           5 IRanWt=          -1 IRanGd=           0 AccXCQ= 0.00D+00.
 Generated NRdTot=       0 NPtTot=           0 NUsed=           0 NTot=          32
 NSgBfM=    79    79    79    79    79 MxSgAt=     6 MxSgA2=     6.
 Leave Link  302 at Mon Mar 21 04:02:41 2022, MaxMem=  8589934592 cpu:               0.9 elap:               0.1
 (Enter /home/sabyasachi/g16/l303.exe)
 DipDrv:  MaxL=1.
 Leave Link  303 at Mon Mar 21 04:02:41 2022, MaxMem=  8589934592 cpu:               0.2 elap:               0.0
 (Enter /home/sabyasachi/g16/l308.exe)
 Leave Link  308 at Mon Mar 21 04:02:41 2022, MaxMem=  8589934592 cpu:               0.2 elap:               0.0
 (Enter /home/sabyasachi/g16/l401.exe)
 ExpMin= 6.71D-02 ExpMax= 2.27D+03 ExpMxC= 3.41D+02 IAcc=3 IRadAn=         5 AccDes= 0.00D+00
 Harris functional with IExCor= 1009 and IRadAn=       5 diagonalized for initial guess.
 HarFok:  IExCor= 1009 AccDes= 0.00D+00 IRadAn=         5 IDoV= 1 UseB2=F ITyADJ=14
 ICtDFT=  3500011 ScaDFX=  1.000000  1.000000  1.000000  1.000000
 FoFCou: FMM=F IPFlag=           0 FMFlag=      100000 FMFlg1=           0
         NFxFlg=           0 DoJE=T BraDBF=F KetDBF=T FulRan=T
         wScrn=  0.000000 ICntrl=       500 IOpCl=  0 I1Cent=   200000004 NGrid=           0
         NMat0=    1 NMatS0=      1 NMatT0=    0 NMatD0=    1 NMtDS0=    0 NMtDT0=    0
 Petite list used in FoFCou.
 Harris En= -115.560751205002    
 JPrj=0 DoOrth=F DoCkMO=F.
 Initial guess orbital symmetries:
       Occupied  (A') (A') (A') (A') (A') (A") (A') (A') (A")
       Virtual   (A') (A') (A') (A") (A') (A') (A") (A') (A") (A')
                 (A') (A') (A') (A") (A") (A') (A') (A") (A") (A')
                 (A') (A') (A") (A') (A') (A") (A') (A') (A") (A')
                 (A') (A") (A') (A') (A") (A') (A") (A') (A') (A')
                 (A") (A') (A") (A') (A") (A') (A') (A") (A') (A")
                 (A') (A") (A') (A') (A') (A') (A") (A') (A') (A")
                 (A') (A") (A") (A') (A') (A')
 The electronic state of the initial guess is 1-A'.
 Leave Link  401 at Mon Mar 21 04:02:41 2022, MaxMem=  8589934592 cpu:               1.6 elap:               0.2
 (Enter /home/sabyasachi/g16/l502.exe)
 Keep R1 ints in memory in symmetry-blocked form, NReq=11291173.
 FoFCou: FMM=F IPFlag=           0 FMFlag=           0 FMFlg1=           0
         NFxFlg=           0 DoJE=F BraDBF=F KetDBF=F FulRan=T
         wScrn=  0.000000 ICntrl=       600 IOpCl=  0 I1Cent=           0 NGrid=           0
         NMat0=    1 NMatS0=   2850 NMatT0=    0 NMatD0=    1 NMtDS0=    0 NMtDT0=    0
 Petite list used in FoFCou.
 Closed shell SCF:
 Using DIIS extrapolation, IDIIS=  1040.
 NGot=  8589934592 LenX=  8587850961 LenY=  8587844279
 Requested convergence on RMS density matrix=1.00D-08 within 100 cycles.
 Requested convergence on MAX density matrix=1.00D-06.
 Requested convergence on             energy=1.00D-06.
 No special actions if energy rises.
 Integral accuracy reduced to 1.0D-05 until final iterations.

 Cycle   1  Pass 0  IDiag  1:
 E= -115.584507366552    
 DIIS: error= 2.51D-02 at cycle   1 NSaved=   1.
 NSaved= 1 IEnMin= 1 EnMin= -115.584507366552     IErMin= 1 ErrMin= 2.51D-02
 ErrMax= 2.51D-02  0.00D+00 EMaxC= 1.00D-01 BMatC= 6.82D-02 BMatP= 6.82D-02
 IDIUse=3 WtCom= 7.49D-01 WtEn= 2.51D-01
 Coeff-Com:  0.100D+01
 Coeff-En:   0.100D+01
 Coeff:      0.100D+01
 Gap=     0.196 Goal=   None    Shift=    0.000
 GapD=    0.196 DampG=1.000 DampE=0.500 DampFc=0.5000 IDamp=-1.
 Damping current iteration by 5.00D-01
 RMSDP=6.28D-03 MaxDP=1.24D-01              OVMax= 1.69D-01

 Cycle   2  Pass 0  IDiag  1:
 E= -115.604543226463     Delta-E=       -0.020035859911 Rises=F Damp=T
 DIIS: error= 8.59D-03 at cycle   2 NSaved=   2.
 NSaved= 2 IEnMin= 2 EnMin= -115.604543226463     IErMin= 2 ErrMin= 8.59D-03
 ErrMax= 8.59D-03  0.00D+00 EMaxC= 1.00D-01 BMatC= 8.23D-03 BMatP= 6.82D-02
 IDIUse=3 WtCom= 9.14D-01 WtEn= 8.59D-02
 Coeff-Com:  0.201D+00 0.799D+00
 Coeff-En:   0.313D+00 0.687D+00
 Coeff:      0.211D+00 0.789D+00
 Gap=     0.279 Goal=   None    Shift=    0.000
 RMSDP=1.72D-03 MaxDP=2.36D-02 DE=-2.00D-02 OVMax= 1.12D-01

 Cycle   3  Pass 0  IDiag  1:
 E= -115.646571933023     Delta-E=       -0.042028706560 Rises=F Damp=F
 DIIS: error= 4.50D-03 at cycle   3 NSaved=   3.
 NSaved= 3 IEnMin= 3 EnMin= -115.646571933023     IErMin= 3 ErrMin= 4.50D-03
 ErrMax= 4.50D-03  0.00D+00 EMaxC= 1.00D-01 BMatC= 2.71D-03 BMatP= 8.23D-03
 IDIUse=3 WtCom= 9.55D-01 WtEn= 4.50D-02
 Coeff-Com:  0.522D-01 0.363D+00 0.585D+00
 Coeff-En:   0.000D+00 0.000D+00 0.100D+01
 Coeff:      0.498D-01 0.347D+00 0.603D+00
 Gap=     0.273 Goal=   None    Shift=    0.000
 RMSDP=7.20D-04 MaxDP=1.68D-02 DE=-4.20D-02 OVMax= 1.71D-02

 Cycle   4  Pass 0  IDiag  1:
 E= -115.648435122341     Delta-E=       -0.001863189318 Rises=F Damp=F
 DIIS: error= 1.80D-03 at cycle   4 NSaved=   4.
 NSaved= 4 IEnMin= 4 EnMin= -115.648435122341     IErMin= 4 ErrMin= 1.80D-03
 ErrMax= 1.80D-03  0.00D+00 EMaxC= 1.00D-01 BMatC= 4.67D-04 BMatP= 2.71D-03
 IDIUse=3 WtCom= 9.82D-01 WtEn= 1.80D-02
 Coeff-Com:  0.225D-02 0.716D-01 0.310D+00 0.617D+00
 Coeff-En:   0.000D+00 0.000D+00 0.135D+00 0.865D+00
 Coeff:      0.221D-02 0.703D-01 0.306D+00 0.621D+00
 Gap=     0.273 Goal=   None    Shift=    0.000
 RMSDP=2.58D-04 MaxDP=6.12D-03 DE=-1.86D-03 OVMax= 5.96D-03

 Cycle   5  Pass 0  IDiag  1:
 E= -115.648834873158     Delta-E=       -0.000399750817 Rises=F Damp=F
 DIIS: error= 3.15D-04 at cycle   5 NSaved=   5.
 NSaved= 5 IEnMin= 5 EnMin= -115.648834873158     IErMin= 5 ErrMin= 3.15D-04
 ErrMax= 3.15D-04  0.00D+00 EMaxC= 1.00D-01 BMatC= 7.73D-06 BMatP= 4.67D-04
 IDIUse=3 WtCom= 9.97D-01 WtEn= 3.15D-03
 Coeff-Com: -0.191D-02 0.209D-02 0.622D-01 0.196D+00 0.742D+00
 Coeff-En:   0.000D+00 0.000D+00 0.000D+00 0.000D+00 0.100D+01
 Coeff:     -0.190D-02 0.209D-02 0.620D-01 0.195D+00 0.742D+00
 Gap=     0.273 Goal=   None    Shift=    0.000
 RMSDP=3.86D-05 MaxDP=4.69D-04 DE=-4.00D-04 OVMax= 6.78D-04

 Cycle   6  Pass 0  IDiag  1:
 E= -115.648841002687     Delta-E=       -0.000006129529 Rises=F Damp=F
 DIIS: error= 8.49D-06 at cycle   6 NSaved=   6.
 NSaved= 6 IEnMin= 6 EnMin= -115.648841002687     IErMin= 6 ErrMin= 8.49D-06
 ErrMax= 8.49D-06  0.00D+00 EMaxC= 1.00D-01 BMatC= 5.86D-09 BMatP= 7.73D-06
 IDIUse=1 WtCom= 1.00D+00 WtEn= 0.00D+00
 Coeff-Com:  0.899D-04-0.364D-03 0.854D-03 0.411D-02 0.266D-01 0.969D+00
 Coeff:      0.899D-04-0.364D-03 0.854D-03 0.411D-02 0.266D-01 0.969D+00
 Gap=     0.273 Goal=   None    Shift=    0.000
 RMSDP=1.92D-06 MaxDP=2.14D-05 DE=-6.13D-06 OVMax= 3.21D-05

 Initial convergence to 1.0D-05 achieved.  Increase integral accuracy.
 Cycle   7  Pass 1  IDiag  1:
 E= -115.648839773933     Delta-E=        0.000001228754 Rises=F Damp=F
 DIIS: error= 2.42D-06 at cycle   1 NSaved=   1.
 NSaved= 1 IEnMin= 1 EnMin= -115.648839773933     IErMin= 1 ErrMin= 2.42D-06
 ErrMax= 2.42D-06  0.00D+00 EMaxC= 1.00D-01 BMatC= 7.46D-10 BMatP= 7.46D-10
 IDIUse=1 WtCom= 1.00D+00 WtEn= 0.00D+00
 Coeff-Com:  0.100D+01
 Coeff:      0.100D+01
 Gap=     0.273 Goal=   None    Shift=    0.000
 RMSDP=1.92D-06 MaxDP=2.14D-05 DE= 1.23D-06 OVMax= 1.72D-05

 Cycle   8  Pass 1  IDiag  1:
 E= -115.648839774628     Delta-E=       -0.000000000695 Rises=F Damp=F
 DIIS: error= 1.50D-06 at cycle   2 NSaved=   2.
 NSaved= 2 IEnMin= 2 EnMin= -115.648839774628     IErMin= 2 ErrMin= 1.50D-06
 ErrMax= 1.50D-06  0.00D+00 EMaxC= 1.00D-01 BMatC= 2.40D-10 BMatP= 7.46D-10
 IDIUse=1 WtCom= 1.00D+00 WtEn= 0.00D+00
 Coeff-Com:  0.345D+00 0.655D+00
 Coeff:      0.345D+00 0.655D+00
 Gap=     0.273 Goal=   None    Shift=    0.000
 RMSDP=2.92D-07 MaxDP=4.40D-06 DE=-6.95D-10 OVMax= 7.34D-06

 Cycle   9  Pass 1  IDiag  1:
 E= -115.648839774866     Delta-E=       -0.000000000238 Rises=F Damp=F
 DIIS: error= 4.46D-07 at cycle   3 NSaved=   3.
 NSaved= 3 IEnMin= 3 EnMin= -115.648839774866     IErMin= 3 ErrMin= 4.46D-07
 ErrMax= 4.46D-07  0.00D+00 EMaxC= 1.00D-01 BMatC= 2.36D-11 BMatP= 2.40D-10
 IDIUse=1 WtCom= 1.00D+00 WtEn= 0.00D+00
 Coeff-Com:  0.920D-01 0.271D+00 0.637D+00
 Coeff:      0.920D-01 0.271D+00 0.637D+00
 Gap=     0.273 Goal=   None    Shift=    0.000
 RMSDP=7.51D-08 MaxDP=1.58D-06 DE=-2.38D-10 OVMax= 1.58D-06

 Cycle  10  Pass 1  IDiag  1:
 E= -115.648839774882     Delta-E=       -0.000000000016 Rises=F Damp=F
 DIIS: error= 2.22D-07 at cycle   4 NSaved=   4.
 NSaved= 4 IEnMin= 4 EnMin= -115.648839774882     IErMin= 4 ErrMin= 2.22D-07
 ErrMax= 2.22D-07  0.00D+00 EMaxC= 1.00D-01 BMatC= 5.92D-12 BMatP= 2.36D-11
 IDIUse=1 WtCom= 1.00D+00 WtEn= 0.00D+00
 Coeff-Com: -0.436D-03 0.554D-01 0.359D+00 0.586D+00
 Coeff:     -0.436D-03 0.554D-01 0.359D+00 0.586D+00
 Gap=     0.273 Goal=   None    Shift=    0.000
 RMSDP=2.50D-08 MaxDP=5.82D-07 DE=-1.61D-11 OVMax= 6.49D-07

 Cycle  11  Pass 1  IDiag  1:
 E= -115.648839774888     Delta-E=       -0.000000000005 Rises=F Damp=F
 DIIS: error= 6.39D-08 at cycle   5 NSaved=   5.
 NSaved= 5 IEnMin= 5 EnMin= -115.648839774888     IErMin= 5 ErrMin= 6.39D-08
 ErrMax= 6.39D-08  0.00D+00 EMaxC= 1.00D-01 BMatC= 3.82D-13 BMatP= 5.92D-12
 IDIUse=1 WtCom= 1.00D+00 WtEn= 0.00D+00
 Coeff-Com: -0.402D-02 0.186D-01 0.167D+00 0.329D+00 0.490D+00
 Coeff:     -0.402D-02 0.186D-01 0.167D+00 0.329D+00 0.490D+00
 Gap=     0.273 Goal=   None    Shift=    0.000
 RMSDP=7.28D-09 MaxDP=1.22D-07 DE=-5.34D-12 OVMax= 1.77D-07

 SCF Done:  E(RTPSSh) =  -115.648839775     A.U. after   11 cycles
            NFock= 11  Conv=0.73D-08     -V/T= 2.0092
 KE= 1.145956639186D+02 PE=-3.515917502643D+02 EE= 8.088505094643D+01
 Leave Link  502 at Mon Mar 21 04:02:42 2022, MaxMem=  8589934592 cpu:              10.3 elap:               1.3
 (Enter /home/sabyasachi/g16/l801.exe)
 DoSCS=F DFT=T ScalE2(SS,OS)=  1.000000  1.000000
 ExpMin= 6.71D-02 ExpMax= 2.27D+03 ExpMxC= 3.41D+02 IAcc=3 IRadAn=         5 AccDes= 0.00D+00
 HarFok:  IExCor=  205 AccDes= 0.00D+00 IRadAn=         5 IDoV=-2 UseB2=F ITyADJ=14
 ICtDFT= 12500011 ScaDFX=  1.000000  1.000000  1.000000  1.000000
 Largest valence mixing into a core orbital is  8.44D-05
 Largest core mixing into a valence orbital is  2.59D-05
 Range of M.O.s used for correlation:     3    75
 NBasis=    75 NAE=     9 NBE=     9 NFC=     2 NFV=     0
 NROrb=     73 NOA=     7 NOB=     7 NVA=    66 NVB=    66

 **** Warning!!: The largest alpha MO coefficient is  0.21388373D+02

 Leave Link  801 at Mon Mar 21 04:02:43 2022, MaxMem=  8589934592 cpu:               0.5 elap:               0.1
 (Enter /home/sabyasachi/g16/l914.exe)
 RHF ground state
 Keep R1, R2, and R3 ints in memory in symmetry-blocked form, NReq=263841591.
 FoFCou: FMM=F IPFlag=           0 FMFlag=           0 FMFlg1=           0
         NFxFlg=           0 DoJE=F BraDBF=F KetDBF=F FulRan=T
         wScrn=  0.000000 ICntrl=       600 IOpCl=  0 I1Cent=           0 NGrid=           0
         NMat0=    1 NMatS0=   2850 NMatT0=    0 NMatD0=    1 NMtDS0=    0 NMtDT0=    0
 Petite list used in FoFCou.
 MDV=  8589934592 DFT=T DoStab=F Mixed=T DoRPA=T DoScal=F NonHer=T
 Making orbital integer symmetry assigments:
 Orbital symmetries:
       Occupied  (A') (A') (A') (A') (A') (A") (A') (A') (A")
       Virtual   (A') (A') (A") (A') (A') (A') (A") (A') (A") (A')
                 (A') (A') (A") (A') (A") (A') (A") (A') (A") (A')
                 (A') (A') (A") (A') (A') (A") (A') (A') (A") (A')
                 (A') (A") (A') (A') (A") (A') (A") (A') (A') (A')
                 (A') (A") (A") (A') (A') (A") (A') (A") (A") (A')
                 (A') (A") (A') (A') (A') (A') (A") (A') (A') (A")
                 (A") (A') (A") (A') (A') (A')
   462 initial guesses have been made.
 Convergence on wavefunction:    0.001000000000000
 Davidson Disk Diagonalization:  ConvIn= 1.00D-03 SkipCon=T Conv= 1.00D-03.
 Max sub-space:  2772 roots to seek:   924 dimension of matrix:          924
 *** WARNING: Number of orthogonal guesses is          462
 Iteration     1 Dimension   462 NMult     0 NNew    462
 CISAX will form   462 AO SS matrices at one time.
 NMat=   462 NSing=   462 JSym2X=-1.
 New state      4 was old state      5
 New state      5 was old state      4
 New state     12 was old state     13
 New state     13 was old state     12
 New state     17 was old state     19
 New state     19 was old state     17
 New state     22 was old state     23
 New state     23 was old state     22
 New state     28 was old state     29
 New state     29 was old state     30
 New state     30 was old state     32
 New state     31 was old state     28
 New state     32 was old state     34
 New state     34 was old state     35
 New state     35 was old state     31
 New state     39 was old state     40
 New state     40 was old state     39
 New state     43 was old state     44
 New state     44 was old state     47
 New state     46 was old state     43
 New state     47 was old state     46
 New state     54 was old state     56
 New state     56 was old state     57
 New state     57 was old state     54
 New state     59 was old state     60
 New state     60 was old state     61
 New state     61 was old state     59
 New state     64 was old state     65
 New state     65 was old state     64
 New state     66 was old state     68
 New state     68 was old state     66
 New state     69 was old state     70
 New state     70 was old state     71
 New state     71 was old state     69
 New state     76 was old state     78
 New state     78 was old state     76
 New state     80 was old state     83
 New state     82 was old state     80
 New state     83 was old state     84
 New state     84 was old state     82
 New state     85 was old state     86
 New state     86 was old state     85
 New state     88 was old state     89
 New state     89 was old state     88
 New state     92 was old state     94
 New state     93 was old state     92
 New state     94 was old state     93
 New state     96 was old state     98
 New state     97 was old state     96
 New state     98 was old state    100
 New state     99 was old state     97
 New state    100 was old state    102
 New state    101 was old state    104
 New state    102 was old state    103
 New state    103 was old state    101
 New state    104 was old state     99
 New state    105 was old state    106
 New state    106 was old state    105
 New state    108 was old state    109
 New state    109 was old state    108
 New state    110 was old state    112
 New state    111 was old state    115
 New state    112 was old state    113
 New state    113 was old state    121
 New state    115 was old state    116
 New state    116 was old state    117
 New state    117 was old state    118
 New state    118 was old state    119
 New state    119 was old state    120
 New state    120 was old state    122
 New state    121 was old state    110
 New state    122 was old state    123
 New state    123 was old state    126
 New state    126 was old state    128
 New state    128 was old state    133
 New state    130 was old state    131
 New state    131 was old state    130
 New state    133 was old state    134
 New state    134 was old state    137
 New state    135 was old state    136
 New state    136 was old state    135
 New state    137 was old state    140
 New state    138 was old state    141
 New state    140 was old state    138
 New state    141 was old state    146
 New state    142 was old state    145
 New state    145 was old state    147
 New state    146 was old state    148
 New state    147 was old state    150
 New state    148 was old state    152
 New state    150 was old state    154
 New state    151 was old state    142
 New state    152 was old state    153
 New state    153 was old state    156
 New state    154 was old state    155
 New state    155 was old state    151
 New state    156 was old state    157
 New state    157 was old state    158
 New state    158 was old state    159
 New state    159 was old state    160
 New state    160 was old state    163
 New state    161 was old state    166
 New state    163 was old state    167
 New state    165 was old state    161
 New state    166 was old state    165
 New state    167 was old state    168
 New state    168 was old state    174
 New state    172 was old state    175
 New state    174 was old state    177
 New state    175 was old state    176
 New state    176 was old state    179
 New state    177 was old state    180
 No map to state    179
 New state    180 was old state    185
 New state    185 was old state    187
 New state    187 was old state    193
 New state    189 was old state    191
 New state    190 was old state    192
 New state    191 was old state    190
 New state    192 was old state    189
 New state    193 was old state    199
 New state    199 was old state    204
 New state    204 was old state    205
 New state    205 was old state    206
 New state    206 was old state    208
 New state    208 was old state    209
 New state    209 was old state    214
 New state    211 was old state    212
 New state    212 was old state    213
 New state    213 was old state    211
 New state    214 was old state    215
 New state    215 was old state    217
 New state    217 was old state    218
 New state    218 was old state    221
 New state    221 was old state    226
 New state    222 was old state    223
 New state    223 was old state    224
 New state    224 was old state    222
 New state    225 was old state    233
 New state    226 was old state    230
 New state    228 was old state    225
 New state    229 was old state    228
 New state    230 was old state    229
 New state    231 was old state    242
 New state    232 was old state    231
 New state    233 was old state    235
 New state    234 was old state    236
 New state    235 was old state    232
 New state    236 was old state    234
 New state    237 was old state    238
 New state    238 was old state    237
 New state    241 was old state    243
 New state    242 was old state    244
 New state    243 was old state    241
 New state    244 was old state    248
 New state    245 was old state    246
 New state    246 was old state    245
 New state    248 was old state    249
 New state    249 was old state    250
 New state    250 was old state    252
 New state    252 was old state    254
 New state    253 was old state    255
 New state    254 was old state    253
 New state    255 was old state    256
 New state    256 was old state    258
 New state    258 was old state    259
 New state    259 was old state    261
 New state    261 was old state    262
 New state    262 was old state    264
 New state    264 was old state    265
 New state    265 was old state    269
 New state    269 was old state    273
 New state    273 was old state    274
 New state    274 was old state    278
 New state    275 was old state    276
 New state    276 was old state    275
 New state    278 was old state    279
 New state    279 was old state    280
 New state    280 was old state    283
 New state    283 was old state    284
 New state    284 was old state    286
 New state    286 was old state    287
 New state    287 was old state    289
 New state    288 was old state    291
 New state    289 was old state    288
 New state    291 was old state    293
 New state    292 was old state    294
 New state    293 was old state    295
 New state    294 was old state    296
 New state    295 was old state    292
 New state    296 was old state    297
 New state    297 was old state    298
 New state    298 was old state    299
 New state    299 was old state    302
 New state    302 was old state    310
 New state    305 was old state    306
 New state    306 was old state    307
 New state    307 was old state    305
 New state    308 was old state    309
 New state    309 was old state    308
 New state    310 was old state    311
 New state    311 was old state    312
 New state    312 was old state    313
 New state    313 was old state    314
 New state    314 was old state    315
 New state    315 was old state    319
 New state    319 was old state    320
 New state    320 was old state    321
 New state    321 was old state    328
 New state    328 was old state    329
 New state    329 was old state    330
 New state    330 was old state    331
 New state    331 was old state    333
 New state    333 was old state    334
 New state    334 was old state    337
 New state    336 was old state    338
 New state    337 was old state    336
 New state    338 was old state    341
 New state    341 was old state    342
 New state    342 was old state    343
 New state    343 was old state    345
 New state    345 was old state    347
 New state    347 was old state    348
 New state    348 was old state    353
 New state    349 was old state    350
 New state    350 was old state    349
 New state    353 was old state    354
 New state    354 was old state    355
 New state    355 was old state    360
 New state    360 was old state    361
 New state    361 was old state    364
 New state    364 was old state    365
 New state    365 was old state    368
 New state    368 was old state    369
 New state    369 was old state    371
 New state    371 was old state    372
 New state    372 was old state    373
 New state    373 was old state    376
 No map to state    376
 New state    377 was old state    378
 New state    378 was old state    377
 New state    381 was old state    382
 New state    382 was old state    383
 New state    383 was old state    384
 New state    384 was old state    381
 New state    390 was old state    391
 New state    391 was old state    390
 New state    392 was old state    393
 New state    393 was old state    392
 New state    398 was old state    399
 New state    399 was old state    398
 New state    410 was old state    411
 New state    411 was old state    412
 New state    412 was old state    410
 New state    421 was old state    424
 New state    422 was old state    421
 New state    424 was old state    422
 New state    425 was old state    427
 New state    427 was old state    428
 New state    428 was old state    425
 New state    431 was old state    432
 New state    432 was old state    431
 New state    434 was old state    435
 New state    435 was old state    436
 New state    436 was old state    434
 New state    438 was old state    440
 New state    440 was old state    441
 New state    441 was old state    442
 New state    442 was old state    438
 New state    454 was old state    455
 New state    455 was old state    454
 Excitation Energies [eV] at current iteration:
 Root      1 :     6.792014312846572
 Root      2 :     7.780201530435092
 Root      3 :     8.494567083939447
 Root      4 :     8.929017935289810
 Root      5 :     8.941793551200155
 Root      6 :     9.467376216771795
 Root      7 :     9.736136424243801
 Root      8 :    10.054127088559760
 Root      9 :    10.533923207264370
 Root     10 :    10.585818379510340
 Root     11 :    10.604600993723920
 Root     12 :    11.021586388250890
 Root     13 :    11.026597321888640
 Root     14 :    11.185367838956590
 Root     15 :    11.363174783517000
 Root     16 :    11.503201990983870
 Root     17 :    11.883998374765230
 Root     18 :    11.909619162990030
 Root     19 :    12.060510513455950
 Root     20 :    12.066899023160660
 Root     21 :    12.253662053146930
 Root     22 :    12.686012138145270
 Root     23 :    12.770677797282040
 Root     24 :    12.879764533488240
 Root     25 :    13.063227655674210
 Root     26 :    13.195953572770890
 Root     27 :    13.309598554545100
 Root     28 :    13.419568954447930
 Root     29 :    13.769326571282150
 Root     30 :    13.913845283175740
 Root     31 :    13.920187173265570
 Root     32 :    14.051773708773660
 Root     33 :    14.145531578791720
 Root     34 :    14.259265581715460
 Root     35 :    14.318590872169780
 Root     36 :    14.319140210568590
 Root     37 :    14.339459618972530
 Root     38 :    14.422168882974710
 Root     39 :    14.551676994337140
 Root     40 :    14.679489705039260
 Root     41 :    14.820665465043560
 Root     42 :    15.032784605813810
 Root     43 :    15.181894809702300
 Root     44 :    15.293525925055440
 Root     45 :    15.315903027651090
 Root     46 :    15.338768883281850
 Root     47 :    15.441597952103090
 Root     48 :    15.515362471713160
 Root     49 :    15.643803616688550
 Root     50 :    15.657490006744910
 Root     51 :    15.918565112496690
 Root     52 :    16.037705638801180
 Root     53 :    16.102908363932250
 Root     54 :    16.104877805581430
 Root     55 :    16.240320377269740
 Root     56 :    16.244401923332260
 Root     57 :    16.398441586864980
 Root     58 :    16.466803416352350
 Root     59 :    16.588759262392150
 Root     60 :    16.629375382260400
 Root     61 :    16.747082599807860
 Root     62 :    16.863840090183390
 Root     63 :    17.026364264066960
 Root     64 :    17.137884708146080
 Root     65 :    17.252991823218990
 Root     66 :    17.354727174197020
 Root     67 :    17.442655583461110
 Root     68 :    17.474860187635830
 Root     69 :    17.723420351446470
 Root     70 :    17.884320770367540
 Root     71 :    17.905998759024990
 Root     72 :    17.972857055529020
 Root     73 :    18.080210488636150
 Root     74 :    18.195532844600030
 Root     75 :    18.331914222624490
 Root     76 :    18.365244911102200
 Root     77 :    18.423251770557320
 Root     78 :    18.474343070345370
 Root     79 :    18.552041181870740
 Root     80 :    18.697288592261100
 Root     81 :    18.714604938924270
 Root     82 :    18.763491162292520
 Root     83 :    18.850580288316110
 Root     84 :    18.863489298692240
 Root     85 :    18.923617309188260
 Root     86 :    18.962940355795830
 Root     87 :    19.104679492462590
 Root     88 :    19.356370848999210
 Root     89 :    19.367997015835750
 Root     90 :    19.569904748889200
 Root     91 :    19.717749272926160
 Root     92 :    19.766646657245030
 Root     93 :    19.931350657483990
 Root     94 :    19.955560865496700
 Root     95 :    20.071947797498370
 Root     96 :    20.144410356551640
 Root     97 :    20.193242633021380
 Root     98 :    20.252764459188210
 Root     99 :    20.349776764599070
 Root    100 :    20.472138107805210
 Root    101 :    20.515130266048630
 Root    102 :    20.530718836290610
 Root    103 :    20.565016949256460
 Root    104 :    20.638690924763400
 Root    105 :    20.640773806865750
 Root    106 :    20.812627319537770
 Root    107 :    20.863475431584090
 Root    108 :    20.957460130433400
 Root    109 :    20.987627929495020
 Root    110 :    21.006081668897310
 Root    111 :    21.226147830467320
 Root    112 :    21.283584478594690
 Root    113 :    21.372550451896090
 Root    114 :    21.381178975076500
 Root    115 :    21.493895925577150
 Root    116 :    21.624782317621700
 Root    117 :    21.674881855566100
 Root    118 :    21.965617561845240
 Root    119 :    21.976348233247490
 Root    120 :    22.059416159566060
 Root    121 :    22.130947443771570
 Root    122 :    22.146016625111340
 Root    123 :    22.334227070306640
 Root    124 :    22.429044869871840
 Root    125 :    22.496623711980090
 Root    126 :    22.701517869742150
 Root    127 :    22.735685108199660
 Root    128 :    22.846900306177400
 Root    129 :    22.895759012544320
 Root    130 :    23.014428610947620
 Root    131 :    23.051387016979390
 Root    132 :    23.234742187081730
 Root    133 :    23.306610447590470
 Root    134 :    23.402587272137250
 Root    135 :    23.431128769351760
 Root    136 :    23.511250988931580
 Root    137 :    23.742226775631070
 Root    138 :    23.748575486994350
 Root    139 :    23.838454868221370
 Root    140 :    23.940333548645710
 Root    141 :    24.105684173953200
 Root    142 :    24.113389279106330
 Root    143 :    24.318647579805030
 Root    144 :    24.470848206382950
 Root    145 :    24.604976233473220
 Root    146 :    24.669211009311780
 Root    147 :    24.710971299093600
 Root    148 :    24.962127083757560
 Root    149 :    24.998063414567910
 Root    150 :    25.024796034552900
 Root    151 :    25.162569524835270
 Root    152 :    25.250398876106460
 Root    153 :    25.378648598777850
 Root    154 :    25.501694027055560
 Root    155 :    25.531754307951080
 Root    156 :    25.752427583965280
 Root    157 :    26.138420788432230
 Root    158 :    26.191938574008790
 Root    159 :    26.395937165908580
 Root    160 :    26.629946332568250
 Root    161 :    26.746203085071840
 Root    162 :    26.781721966115740
 Root    163 :    26.854635280836790
 Root    164 :    26.929900773074640
 Root    165 :    27.019039766218480
 Root    166 :    27.097230901165040
 Root    167 :    27.296730273930710
 Root    168 :    27.413977340551180
 Root    169 :    27.609602815282630
 Root    170 :    27.663006108346810
 Root    171 :    27.810713813608800
 Root    172 :    28.013866662629160
 Root    173 :    28.043252403256830
 Root    174 :    28.156146900529070
 Root    175 :    28.456465211429360
 Root    176 :    28.495781726281490
 Root    177 :    28.834152881164250
 Root    178 :    28.834877281736060
 Root    179 :    28.927463151827380
 Root    180 :    29.002229611835640
 Root    181 :    29.077101061877270
 Root    182 :    29.226013044637450
 Root    183 :    29.336673985289610
 Root    184 :    29.572286406762090
 Root    185 :    29.689283046480980
 Root    186 :    29.773231195267880
 Root    187 :    29.803711406496660
 Root    188 :    30.005717385320960
 Root    189 :    30.262064308135930
 Root    190 :    30.288063693387770
 Root    191 :    30.337667285259220
 Root    192 :    30.368613989981030
 Root    193 :    30.501652777532850
 Root    194 :    30.779635789980620
 Root    195 :    30.951618872546030
 Root    196 :    30.992350819619370
 Root    197 :    31.053539532768020
 Root    198 :    31.327439740820940
 Root    199 :    31.656292434134450
 Root    200 :    31.790066711504320
 Root    201 :    31.969163753682960
 Root    202 :    32.178790806779900
 Root    203 :    32.283383634712490
 Root    204 :    32.753358174782140
 Root    205 :    32.942519930501420
 Root    206 :    33.139706821726080
 Root    207 :    33.256751297972340
 Root    208 :    33.367475564906780
 Root    209 :    33.553792750273360
 Root    210 :    33.649307477231820
 Root    211 :    33.911003063768590
 Root    212 :    34.037889037245530
 Root    213 :    34.117123495534220
 Root    214 :    34.211040482368820
 Root    215 :    34.467279311761440
 Root    216 :    34.477993918161400
 Root    217 :    34.543904184481480
 Root    218 :    34.745984181971450
 Root    219 :    34.842867437915770
 Root    220 :    34.924935041386720
 Root    221 :    34.991921128897620
 Root    222 :    35.100510513311020
 Root    223 :    35.155484747003050
 Root    224 :    35.472445167645710
 Root    225 :    35.565650779023170
 Root    226 :    35.994718478431980
 Root    227 :    36.009144123840020
 Root    228 :    36.047891745353930
 Root    229 :    36.144860577906890
 Root    230 :    36.215928330432350
 Root    231 :    36.312390325245030
 Root    232 :    36.398567701256890
 Root    233 :    36.579261305542380
 Root    234 :    36.602388044223180
 Root    235 :    36.659996971138300
 Root    236 :    36.900582614716110
 Root    237 :    37.137606764725160
 Root    238 :    37.289318041171730
 Root    239 :    37.492828459158550
 Root    240 :    37.569588198548970
 Root    241 :    37.696607251547910
 Root    242 :    37.889111381794220
 Root    243 :    38.047604349586640
 Root    244 :    38.102363109180740
 Root    245 :    38.462201012884290
 Root    246 :    38.594829906358820
 Root    247 :    38.859916696110400
 Root    248 :    39.320260613433680
 Root    249 :    39.486037122762950
 Root    250 :    39.662522520456600
 Root    251 :    39.808172604442880
 Root    252 :    39.917384710186430
 Root    253 :    40.046142972939200
 Root    254 :    40.199215317520680
 Root    255 :    40.388522481575650
 Root    256 :    40.399815168327410
 Root    257 :    41.039762067356200
 Root    258 :    41.427561476959600
 Root    259 :    41.943794073588060
 Root    260 :    42.102463896554960
 Root    261 :    42.303308428137140
 Root    262 :    42.491767522567020
 Root    263 :    42.641878046389760
 Root    264 :    43.198562643595520
 Root    265 :    43.310536347700110
 Root    266 :    43.539688233425250
 Root    267 :    43.842957391473940
 Root    268 :    44.009875523666420
 Root    269 :    44.395579916485910
 Root    270 :    45.080411031962600
 Root    271 :    45.883371157983450
 Root    272 :    46.584831656756630
 Root    273 :    47.334181194202940
 Root    274 :    47.565938931308610
 Root    275 :    47.676901806209870
 Root    276 :    47.702393435426120
 Root    277 :    47.816805259412100
 Root    278 :    49.108286245341740
 Root    279 :    49.129883571251770
 Root    280 :    49.507971891122740
 Root    281 :    49.694613985693240
 Root    282 :    50.181580878179230
 Root    283 :    50.262143700748500
 Root    284 :    50.484813492532460
 Root    285 :    50.705147105445930
 Root    286 :    50.954300142639490
 Root    287 :    51.625633171951650
 Root    288 :    51.674250112380140
 Root    289 :    51.931983265941410
 Root    290 :    51.957301115409530
 Root    291 :    52.146521190307450
 Root    292 :    52.246373374114460
 Root    293 :    52.259433393412000
 Root    294 :    52.308098440995020
 Root    295 :    52.618693138061160
 Root    296 :    53.025986686048050
 Root    297 :    53.098012812946900
 Root    298 :    53.505219897354960
 Root    299 :    53.589441887048840
 Root    300 :    53.666004528026280
 Root    301 :    53.895583743699050
 Root    302 :    54.547345792806920
 Root    303 :    54.746713790557120
 Root    304 :    55.577375887469210
 Root    305 :    55.967540639248660
 Root    306 :    56.022533782362200
 Root    307 :    56.088702654029580
 Root    308 :    56.294115745497910
 Root    309 :    56.421099084971570
 Root    310 :    56.557569037750850
 Root    311 :    57.061619005952470
 Root    312 :    57.132260226108310
 Root    313 :    57.211182029962960
 Root    314 :    57.424480796720520
 Root    315 :    58.171397685539790
 Root    316 :    58.320665538843880
 Root    317 :    58.622989423836930
 Root    318 :    58.913685198812540
 Root    319 :    59.037593987966590
 Root    320 :    59.104981894552360
 Root    321 :    59.260373776899660
 Root    322 :    59.319087316461710
 Root    323 :    59.671155446935180
 Root    324 :    60.098441501581130
 Root    325 :    60.183484072301580
 Root    326 :    60.599649098526190
 Root    327 :    60.772977266642010
 Root    328 :    61.286980646396630
 Root    329 :    61.687466084016170
 Root    330 :    61.795951190177740
 Root    331 :    62.170481645819180
 Root    332 :    62.382249682321270
 Root    333 :    62.688666484623550
 Root    334 :    62.845943045201980
 Root    335 :    62.912599361563240
 Root    336 :    63.015181621009500
 Root    337 :    63.215959776793480
 Root    338 :    63.401344942270800
 Root    339 :    63.425460816643250
 Root    340 :    64.322832191921530
 Root    341 :    64.492171921631280
 Root    342 :    64.638036695418890
 Root    343 :    64.684947041252950
 Root    344 :    65.239133681473520
 Root    345 :    65.603886468984680
 Root    346 :    65.708083546702940
 Root    347 :    65.728858340152140
 Root    348 :    65.823493171621290
 Root    349 :    65.893068786399650
 Root    350 :    66.067038051148730
 Root    351 :    66.176560866403310
 Root    352 :    66.547166798814900
 Root    353 :    66.648180349439090
 Root    354 :    67.029751833143790
 Root    355 :    67.179084306662960
 Root    356 :    67.454796893517770
 Root    357 :    67.743579653651030
 Root    358 :    67.770249728408710
 Root    359 :    68.089325256124240
 Root    360 :    68.427302923490560
 Root    361 :    68.874763743756800
 Root    362 :    68.965739563253210
 Root    363 :    69.722556284566650
 Root    364 :    69.866460963371100
 Root    365 :    69.903187791611090
 Root    366 :    70.312771186600500
 Root    367 :    70.872872113859560
 Root    368 :    71.128533444654310
 Root    369 :    71.690761926530910
 Root    370 :    71.950093738120590
 Root    371 :    72.068859951861600
 Root    372 :    72.187659681060650
 Root    373 :    72.379605294104730
 Root    374 :    72.548411196775730
 Root    375 :    73.326533275287730
 Root    376 :    73.508123507439180
 Root    377 :    74.223482835179790
 Root    378 :    74.227856849423290
 Root    379 :    74.517404902217410
 Root    380 :    74.634740249368560
 Root    381 :    74.805001247307200
 Root    382 :    75.319897115878760
 Root    383 :    75.360964335055210
 Root    384 :    75.903502532841300
 Root    385 :    76.095250191615140
 Root    386 :    76.580648535354130
 Root    387 :    77.424164638705820
 Root    388 :    77.737935231287740
 Root    389 :    78.242573642669540
 Root    390 :    78.400395751992110
 Root    391 :    78.870741351467640
 Root    392 :    79.064087175284800
 Root    393 :    79.226953015888360
 Root    394 :    79.586029001317230
 Root    395 :    80.322705997920680
 Root    396 :    80.539192005493080
 Root    397 :    81.117979200914720
 Root    398 :    81.444984594654000
 Root    399 :    81.493440423413470
 Root    400 :    82.371340789255600
 Root    401 :    82.892801401080550
 Root    402 :    83.915772820415260
 Root    403 :    84.353580698837050
 Root    404 :    84.915610022876960
 Root    405 :    85.337985503081440
 Root    406 :    85.481828165132270
 Root    407 :    87.252390888090220
 Root    408 :    87.757039920249750
 Root    409 :    88.110221211737910
 Root    410 :    88.350820709211690
 Root    411 :    88.538437831096960
 Root    412 :    88.857218900086650
 Root    413 :    90.282327361594210
 Root    414 :    90.310232117215860
 Root    415 :    90.460428151562550
 Root    416 :    90.892947317741030
 Root    417 :    91.291115182611790
 Root    418 :    92.115676809711470
 Root    419 :    92.242950507047740
 Root    420 :    92.377173865328870
 Root    421 :    92.710737069854400
 Root    422 :    92.725081592890490
 Root    423 :    93.077296375035200
 Root    424 :    93.171079785275890
 Root    425 :    93.437176167486040
 Root    426 :    93.457703513510690
 Root    427 :    94.307066730186630
 Root    428 :    94.331950625692130
 Root    429 :    94.563102473440000
 Root    430 :    94.948152307035270
 Root    431 :    95.772813432124990
 Root    432 :    95.963838740054090
 Root    433 :    96.212893326036080
 Root    434 :    97.363391720614700
 Root    435 :    97.834587505704680
 Root    436 :    98.045529294421660
 Root    437 :    98.098609631760000
 Root    438 :    99.094030085498760
 Root    439 :    99.396544815070480
 Root    440 :    99.641275197217850
 Root    441 :   100.566031330222300
 Root    442 :   100.656428099857500
 Root    443 :   101.579417640265200
 Root    444 :   102.642629265715800
 Root    445 :   103.324567285215900
 Root    446 :   103.890858392473100
 Root    447 :   104.235757550085000
 Root    448 :   105.787445550661600
 Root    449 :   106.983521193657100
 Root    450 :   108.661980348388700
 Root    451 :   108.731975353956400
 Root    452 :   110.044922938444900
 Root    453 :   111.740202172665500
 Root    454 :   113.127642743246700
 Root    455 :   113.353307550423900
 Root    456 :   115.408571070696500
 Root    457 :   117.738573401943400
 Root    458 :   118.199666956422100
 Root    459 :   118.754700364546800
 Root    460 :   120.068147499267200
 Root    461 :   124.521029370372700
 Root    462 :   132.959218362016500
 Convergence achieved for final wavefunctions.
 ***********************************************************************
 Excited states from <AA,BB:AA,BB> singles matrix:
 ***********************************************************************
 
 1PDM for each excited state written to RWF  633
 Ground to excited state transition densities written to RWF  633
 Ground to excited state transition electric dipole moments (Au):
       state          X           Y           Z        Dip. S.      Osc.
         1        -0.0000      0.0000     -0.0930      0.0086      0.0014
         2        -0.0000      0.0000      0.4030      0.1624      0.0310
         3        -0.0935      0.0280      0.0000      0.0095      0.0020
         4         0.0000     -0.0000      0.2514      0.0632      0.0138
         5         0.1567     -0.5052     -0.0000      0.2798      0.0613
         6         0.4561     -0.1607      0.0000      0.2338      0.0542
         7         0.0000      0.0000      0.1220      0.0149      0.0035
         8        -0.0000     -0.0000      0.1566      0.0245      0.0060
         9         0.1648     -0.0195     -0.0000      0.0275      0.0071
        10        -0.0000      0.0000      0.3294      0.1085      0.0281
        11        -0.0068     -0.5778      0.0000      0.3339      0.0867
        12         0.0000     -0.0000      0.0138      0.0002      0.0001
        13         0.2847     -0.2706     -0.0000      0.1543      0.0417
        14        -0.2072      0.2234     -0.0000      0.0928      0.0254
        15        -0.0000     -0.0000     -0.5180      0.2683      0.0747
        16         0.0570     -0.0594      0.0000      0.0068      0.0019
        17         0.0000     -0.0000     -0.0231      0.0005      0.0002
        18         0.1656      0.3940      0.0000      0.1826      0.0533
        19        -0.3997     -0.3248     -0.0000      0.2652      0.0784
        20        -0.0000     -0.0000      0.2297      0.0528      0.0156
        21        -0.0000      0.0000     -0.3498      0.1224      0.0367
        22         0.0000     -0.0000     -0.0010      0.0000      0.0000
        23        -0.0764     -0.1460      0.0000      0.0271      0.0085
        24         0.0000     -0.0000     -0.3653      0.1334      0.0421
        25        -0.0000      0.0000     -0.0951      0.0090      0.0029
        26        -0.4845      0.2538      0.0000      0.2991      0.0967
        27        -0.3792     -0.1500      0.0000      0.1663      0.0542
        28        -0.0000      0.0000     -0.0562      0.0032      0.0010
        29         0.2990      0.1625      0.0000      0.1158      0.0391
        30        -0.0000      0.0000     -0.0425      0.0018      0.0006
        31        -0.2973     -0.2631     -0.0000      0.1576      0.0537
        32        -0.0386     -0.2089      0.0000      0.0451      0.0155
        33        -0.0172      0.3925     -0.0000      0.1543      0.0535
        34         0.2565     -0.2822      0.0000      0.1455      0.0508
        35        -0.5133     -0.2458     -0.0000      0.3240      0.1136
        36        -0.0000      0.0000     -0.1032      0.0107      0.0037
        37         0.0000     -0.0000     -0.3439      0.1183      0.0416
        38        -0.0000      0.0000      0.0529      0.0028      0.0010
        39         0.0683      0.1912     -0.0000      0.0412      0.0147
        40        -0.3858     -0.9187     -0.0000      0.9929      0.3571
        41        -0.0000     -0.0000     -0.7022      0.4930      0.1790
        42        -0.4902     -0.0954     -0.0000      0.2494      0.0919
        43         0.0000     -0.0000      0.1966      0.0386      0.0144
        44         0.0000     -0.0000      0.1225      0.0150      0.0056
        45        -0.0000      0.0000     -0.4838      0.2340      0.0878
        46         0.6395     -0.1859     -0.0000      0.4435      0.1667
        47        -0.2293     -0.1047      0.0000      0.0636      0.0240
        48        -0.0000      0.0000      0.4195      0.1760      0.0669
        49         0.1017     -0.6231      0.0000      0.3986      0.1528
        50         0.3087     -0.0741      0.0000      0.1008      0.0387
        51        -0.0000      0.0000      0.6296      0.3964      0.1546
        52        -0.1969     -0.0457     -0.0000      0.0409      0.0161
        53         0.0856      0.0295      0.0000      0.0082      0.0032
        54        -0.0000      0.0000      0.2552      0.0651      0.0257
        55        -0.1282     -0.1513      0.0000      0.0393      0.0156
        56         0.0000     -0.0000      0.0547      0.0030      0.0012
        57         0.3534      0.1937      0.0000      0.1624      0.0653
        58        -0.0000      0.0000      0.1528      0.0233      0.0094
        59        -0.1186      0.2055      0.0000      0.0563      0.0229
        60        -0.0000      0.0000     -0.1655      0.0274      0.0112
        61         0.6147     -0.0873      0.0000      0.3855      0.1581
        62         0.0000     -0.0000     -0.6708      0.4500      0.1859
        63        -0.3461      0.0740     -0.0000      0.1252      0.0522
        64        -0.0000      0.0000      0.0224      0.0005      0.0002
        65        -0.0692      0.6275     -0.0000      0.3986      0.1685
        66         0.0000     -0.0000      0.0104      0.0001      0.0000
        67         0.0000      0.0000     -0.0939      0.0088      0.0038
        68        -0.3706      0.0040     -0.0000      0.1374      0.0588
        69        -0.0000     -0.0000     -0.1219      0.0149      0.0065
        70         0.1582      0.2004      0.0000      0.0652      0.0286
        71         0.0115      0.0865      0.0000      0.0076      0.0033
        72        -0.0000     -0.0000     -0.1418      0.0201      0.0089
        73        -0.0863      0.0629     -0.0000      0.0114      0.0051
        74         0.0000      0.0000     -0.2469      0.0610      0.0272
        75        -0.0000      0.0000      0.1956      0.0382      0.0172
        76        -0.0148      0.0545      0.0000      0.0032      0.0014
        77        -0.0000      0.0000     -0.1965      0.0386      0.0174
        78         0.1069     -0.4139     -0.0000      0.1827      0.0827
        79        -0.4518     -0.1142     -0.0000      0.2172      0.0987
        80        -0.0000      0.0000     -0.2948      0.0869      0.0398
        81         0.0406     -0.1225     -0.0000      0.0167      0.0076
        82         0.1113     -0.2489     -0.0000      0.0743      0.0342
        83         0.0000     -0.0000      0.1928      0.0372      0.0172
        84        -0.0117      0.0285      0.0000      0.0009      0.0004
        85         0.0000     -0.0000      0.3162      0.1000      0.0463
        86        -0.1527     -0.0443      0.0000      0.0253      0.0117
        87        -0.1322      0.2633      0.0000      0.0868      0.0406
        88         0.0000      0.0000     -0.0918      0.0084      0.0040
        89         0.2494      0.3495      0.0000      0.1843      0.0875
        90        -0.0734      0.1113     -0.0000      0.0178      0.0085
        91        -0.2478     -0.2562     -0.0000      0.1270      0.0614
        92        -0.0000      0.0000      0.3585      0.1285      0.0622
        93        -0.0000     -0.0000      0.1126      0.0127      0.0062
        94         0.1555     -0.1264      0.0000      0.0402      0.0196
        95         0.0483      0.3838     -0.0000      0.1496      0.0736
        96        -0.0000      0.0000     -0.0586      0.0034      0.0017
        97         0.0000     -0.0000     -0.0905      0.0082      0.0040
        98        -0.0000      0.0000     -0.0154      0.0002      0.0001
        99         0.0267      0.4088      0.0000      0.1678      0.0837
       100        -0.0236      0.0239     -0.0000      0.0011      0.0006
       101         0.0000      0.0000     -0.0686      0.0047      0.0024
       102        -0.2591     -0.0781     -0.0000      0.0732      0.0368
       103        -0.0000     -0.0000      0.2085      0.0435      0.0219
       104         0.2793      0.1431      0.0000      0.0985      0.0498
       105         0.0000     -0.0000      0.0271      0.0007      0.0004
       106        -0.2878      0.4206     -0.0000      0.2598      0.1324
       107         0.1711      0.0476     -0.0000      0.0315      0.0161
       108        -0.0000     -0.0000     -0.2124      0.0451      0.0232
       109         0.2627      0.1432     -0.0000      0.0895      0.0460
       110         0.1317     -0.0051     -0.0000      0.0174      0.0089
       111        -0.0049      0.0186     -0.0000      0.0004      0.0002
       112        -0.0000      0.0000      0.2656      0.0705      0.0368
       113         0.0639     -0.0855     -0.0000      0.0114      0.0060
       114         0.0000     -0.0000     -0.1167      0.0136      0.0071
       115        -0.0000      0.0000      0.0588      0.0035      0.0018
       116        -0.1853     -0.0556     -0.0000      0.0374      0.0198
       117        -0.0000      0.0000     -0.0803      0.0065      0.0034
       118         0.2712      0.0129     -0.0000      0.0737      0.0397
       119        -0.0000      0.0000     -0.2807      0.0788      0.0424
       120         0.1827      0.0213      0.0000      0.0338      0.0183
       121        -0.1903      0.0873     -0.0000      0.0438      0.0238
       122         0.0000     -0.0000     -0.2402      0.0577      0.0313
       123         0.0915      0.5103     -0.0000      0.2687      0.1471
       124        -0.0000      0.0000      0.0771      0.0059      0.0033
       125         0.0000      0.0000      0.1296      0.0168      0.0093
       126         0.1088     -0.5635      0.0000      0.3293      0.1832
       127        -0.0000      0.0000      0.0699      0.0049      0.0027
       128        -0.0583     -0.4371     -0.0000      0.1944      0.1088
       129        -0.0000     -0.0000      0.2650      0.0702      0.0394
       130        -0.0388      0.0147      0.0000      0.0017      0.0010
       131         0.0848     -0.0280      0.0000      0.0080      0.0045
       132        -0.0729      0.0998     -0.0000      0.0153      0.0087
       133         0.0000      0.0000     -0.0569      0.0032      0.0018
       134         0.0000      0.0000      0.1550      0.0240      0.0138
       135        -0.1302     -0.1040      0.0000      0.0278      0.0159
       136        -0.1031      0.3003     -0.0000      0.1008      0.0581
       137        -0.0638      0.0211      0.0000      0.0045      0.0026
       138        -0.0000     -0.0000      0.1901      0.0361      0.0210
       139         0.0000      0.0000     -0.0031      0.0000      0.0000
       140         0.0752      0.4363      0.0000      0.1960      0.1150
       141        -0.0000      0.0000     -0.2188      0.0479      0.0283
       142        -0.0006     -0.2257      0.0000      0.0509      0.0301
       143         0.0432     -0.1234      0.0000      0.0171      0.0102
       144        -0.1936      0.3582      0.0000      0.1658      0.0994
       145         0.0000     -0.0000      0.3445      0.1186      0.0715
       146         0.1450      0.2286     -0.0000      0.0733      0.0443
       147        -0.0000      0.0000      0.6662      0.4438      0.2687
       148         0.0677     -0.2702      0.0000      0.0776      0.0475
       149         0.0000      0.0000     -0.2640      0.0697      0.0427
       150         0.2160      0.2458     -0.0000      0.1071      0.0657
       151         0.0000      0.0000      0.2386      0.0569      0.0351
       152        -0.0214      0.3463      0.0000      0.1204      0.0745
       153         0.0623     -0.2987     -0.0000      0.0931      0.0579
       154        -0.0000     -0.0000     -0.1353      0.0183      0.0114
       155        -0.0925      0.0895     -0.0000      0.0166      0.0104
       156         0.3896     -0.2288      0.0000      0.2042      0.1288
       157        -0.4824      0.1747     -0.0000      0.2632      0.1685
       158        -0.0000      0.0000     -0.0107      0.0001      0.0001
       159         0.1892      0.1426      0.0000      0.0561      0.0363
       160         0.0000      0.0000     -0.0270      0.0007      0.0005
       161        -0.0000     -0.0000      0.1531      0.0234      0.0154
       162         0.6288     -0.0873     -0.0000      0.4030      0.2644
       163         0.1427      0.1243      0.0000      0.0358      0.0236
       164        -0.0000      0.0000     -0.0261      0.0007      0.0004
       165        -0.4018     -0.0141      0.0000      0.1616      0.1070
       166         0.0000      0.0000     -0.6403      0.4100      0.2722
       167         0.1555      0.0516     -0.0000      0.0268      0.0179
       168        -0.1776      0.0056     -0.0000      0.0316      0.0212
       169        -0.0000     -0.0000      0.0940      0.0088      0.0060
       170        -0.2739     -0.0484     -0.0000      0.0774      0.0524
       171        -0.1891     -0.0566     -0.0000      0.0389      0.0265
       172         0.0443      0.1543      0.0000      0.0258      0.0177
       173        -0.0000     -0.0000      0.0798      0.0064      0.0044
       174         0.2081      0.0735      0.0000      0.0487      0.0336
       175        -0.0000      0.0000      0.0147      0.0002      0.0002
       176        -0.0875     -0.1421     -0.0000      0.0279      0.0195
       177        -0.2300      0.1812      0.0000      0.0857      0.0606
       178        -0.0000      0.0000      0.0519      0.0027      0.0019
       179         0.0176     -0.0543      0.0000      0.0033      0.0023
       180         0.0187      0.0662      0.0000      0.0047      0.0034
       181         0.0000     -0.0000     -0.0909      0.0083      0.0059
       182         0.0000     -0.0000      0.2184      0.0477      0.0342
       183         0.0000     -0.0000      0.1730      0.0299      0.0215
       184        -0.0000     -0.0000     -0.1101      0.0121      0.0088
       185        -0.0082     -0.0541     -0.0000      0.0030      0.0022
       186        -0.0045     -0.0397     -0.0000      0.0016      0.0012
       187        -0.0553     -0.0713      0.0000      0.0081      0.0059
       188        -0.2197     -0.0676     -0.0000      0.0528      0.0388
       189         0.0000      0.0000     -0.1699      0.0289      0.0214
       190        -0.1964      0.0201     -0.0000      0.0390      0.0289
       191        -0.0000     -0.0000      0.1082      0.0117      0.0087
       192        -0.2959     -0.0417     -0.0000      0.0893      0.0664
       193         0.1364      0.2177      0.0000      0.0660      0.0493
       194         0.0000      0.0000     -0.1917      0.0368      0.0277
       195         0.0234      0.0259     -0.0000      0.0012      0.0009
       196         0.0000     -0.0000      0.0933      0.0087      0.0066
       197         0.0450     -0.0999     -0.0000      0.0120      0.0091
       198         0.2260     -0.0334      0.0000      0.0522      0.0401
       199         0.1764     -0.0682      0.0000      0.0358      0.0277
       200        -0.0000      0.0000      0.4059      0.1647      0.1283
       201        -0.0600     -0.0474      0.0000      0.0059      0.0046
       202        -0.1742     -0.0820     -0.0000      0.0371      0.0292
       203        -0.0000     -0.0000      0.0862      0.0074      0.0059
       204         0.0000     -0.0000      0.0016      0.0000      0.0000
       205         0.0528      0.0732     -0.0000      0.0081      0.0066
       206         0.0747      0.3844      0.0000      0.1534      0.1245
       207        -0.0549      0.0228      0.0000      0.0035      0.0029
       208         0.0000     -0.0000      0.1070      0.0114      0.0094
       209        -0.0113      0.0532      0.0000      0.0030      0.0024
       210         0.0000      0.0000     -0.2421      0.0586      0.0483
       211        -0.0000      0.0000     -0.1268      0.0161      0.0134
       212         0.0000      0.0000     -0.0526      0.0028      0.0023
       213        -0.1420     -0.0051      0.0000      0.0202      0.0169
       214        -0.0764      0.0862     -0.0000      0.0133      0.0111
       215         0.0000     -0.0000     -0.0348      0.0012      0.0010
       216         0.0213     -0.1328      0.0000      0.0181      0.0153
       217        -0.2114     -0.0753     -0.0000      0.0503      0.0426
       218        -0.0000     -0.0000      0.0356      0.0013      0.0011
       219         0.0000      0.0000      0.1899      0.0360      0.0308
       220         0.1645      0.0208     -0.0000      0.0275      0.0235
       221        -0.1661      0.1766      0.0000      0.0588      0.0504
       222         0.1053      0.1198      0.0000      0.0254      0.0219
       223        -0.0000     -0.0000      0.2106      0.0444      0.0382
       224        -0.0007      0.1451     -0.0000      0.0211      0.0183
       225        -0.0547      0.0666      0.0000      0.0074      0.0065
       226        -0.0000     -0.0000     -0.0400      0.0016      0.0014
       227         0.0000     -0.0000      0.0009      0.0000      0.0000
       228        -0.1724     -0.0619     -0.0000      0.0336      0.0296
       229         0.0415     -0.0312      0.0000      0.0027      0.0024
       230         0.0000      0.0000      0.1113      0.0124      0.0110
       231        -0.0095     -0.0212      0.0000      0.0005      0.0005
       232        -0.0000      0.0000     -0.0375      0.0014      0.0013
       233        -0.0000      0.0000      0.0970      0.0094      0.0084
       234         0.0000      0.0000      0.1230      0.0151      0.0136
       235        -0.0545      0.0569      0.0000      0.0062      0.0056
       236         0.1652     -0.0153     -0.0000      0.0275      0.0249
       237         0.0000     -0.0000     -0.0229      0.0005      0.0005
       238         0.0415     -0.1226     -0.0000      0.0168      0.0153
       239         0.0000      0.0000     -0.0693      0.0048      0.0044
       240         0.1935     -0.0591      0.0000      0.0409      0.0377
       241        -0.0235     -0.0678      0.0000      0.0051      0.0048
       242         0.0000     -0.0000      0.2950      0.0870      0.0808
       243         0.0133     -0.0966     -0.0000      0.0095      0.0089
       244         0.0181     -0.1371     -0.0000      0.0191      0.0179
       245         0.1386     -0.0873     -0.0000      0.0268      0.0253
       246        -0.0000     -0.0000     -0.0519      0.0027      0.0025
       247        -0.0163      0.0570     -0.0000      0.0035      0.0033
       248         0.0177     -0.0168      0.0000      0.0006      0.0006
       249         0.0000      0.0000      0.0496      0.0025      0.0024
       250        -0.1006      0.0410     -0.0000      0.0118      0.0115
       251        -0.0000      0.0000      0.1312      0.0172      0.0168
       252         0.1181      0.0942     -0.0000      0.0228      0.0223
       253         0.0444      0.0390      0.0000      0.0035      0.0034
       254         0.0495     -0.0302      0.0000      0.0034      0.0033
       255        -0.0000     -0.0000      0.0022      0.0000      0.0000
       256         0.0870      0.0883     -0.0000      0.0154      0.0152
       257         0.1062     -0.0151      0.0000      0.0115      0.0116
       258        -0.0000     -0.0000      0.1347      0.0181      0.0184
       259         0.1172     -0.0214      0.0000      0.0142      0.0146
       260        -0.0000     -0.0000      0.1426      0.0203      0.0210
       261        -0.0849      0.0045     -0.0000      0.0072      0.0075
       262         0.0089      0.0231     -0.0000      0.0006      0.0006
       263         0.0000     -0.0000      0.0004      0.0000      0.0000
       264        -0.1026      0.1093     -0.0000      0.0225      0.0238
       265        -0.2073      0.0590     -0.0000      0.0465      0.0493
       266         0.0324     -0.0047     -0.0000      0.0011      0.0011
       267         0.0932     -0.0109      0.0000      0.0088      0.0095
       268        -0.0000      0.0000      0.2780      0.0773      0.0833
       269         0.1437      0.1612      0.0000      0.0466      0.0507
       270        -0.0000     -0.0000     -0.0501      0.0025      0.0028
       271        -0.0000     -0.0000     -0.0881      0.0078      0.0087
       272        -0.0191     -0.0783     -0.0000      0.0065      0.0074
       273        -0.0662     -0.1491     -0.0000      0.0266      0.0309
       274         0.0000      0.0000     -0.0606      0.0037      0.0043
       275         0.0000      0.0000      0.0776      0.0060      0.0070
       276        -0.1265     -0.1921      0.0000      0.0529      0.0618
       277         0.0897      0.0476      0.0000      0.0103      0.0121
       278        -0.0384     -0.0185     -0.0000      0.0018      0.0022
       279         0.0000      0.0000     -0.0921      0.0085      0.0102
       280        -0.1016      0.1195      0.0000      0.0246      0.0299
       281        -0.0451      0.2714     -0.0000      0.0757      0.0921
       282        -0.0300     -0.1231     -0.0000      0.0160      0.0197
       283        -0.0000      0.0000     -0.0671      0.0045      0.0055
       284         0.0574     -0.0919     -0.0000      0.0117      0.0145
       285         0.0000     -0.0000      0.0530      0.0028      0.0035
       286        -0.0000      0.0000     -0.0222      0.0005      0.0006
       287         0.0000      0.0000     -0.0041      0.0000      0.0000
       288         0.0245      0.0132      0.0000      0.0008      0.0010
       289         0.0000      0.0000     -0.3414      0.1166      0.1483
       290         0.1057      0.1457      0.0000      0.0324      0.0412
       291         0.1378      0.1477      0.0000      0.0408      0.0521
       292        -0.0000     -0.0000     -0.0906      0.0082      0.0105
       293        -0.3282     -0.0586      0.0000      0.1111      0.1423
       294         0.0000      0.0000     -0.0496      0.0025      0.0032
       295         0.0508      0.1473     -0.0000      0.0243      0.0313
       296        -0.0000      0.0000      0.1540      0.0237      0.0308
       297         0.0773     -0.1648      0.0000      0.0331      0.0431
       298         0.0359      0.1728      0.0000      0.0312      0.0408
       299        -0.0361      0.1898      0.0000      0.0373      0.0490
       300         0.0000     -0.0000      0.1266      0.0160      0.0211
       301         0.0000     -0.0000     -0.1057      0.0112      0.0147
       302         0.1936      0.0146     -0.0000      0.0377      0.0504
       303        -0.0000     -0.0000      0.1738      0.0302      0.0405
       304        -0.1262     -0.0014      0.0000      0.0159      0.0217
       305        -0.0649      0.1184     -0.0000      0.0182      0.0250
       306        -0.0000      0.0000      0.1231      0.0151      0.0208
       307        -0.0293      0.0360     -0.0000      0.0022      0.0030
       308         0.0362      0.0533      0.0000      0.0041      0.0057
       309         0.0000     -0.0000     -0.0812      0.0066      0.0091
       310         0.3235     -0.0893      0.0000      0.1126      0.1560
       311         0.1612     -0.0562     -0.0000      0.0291      0.0407
       312         0.0000     -0.0000      0.0953      0.0091      0.0127
       313         0.0000     -0.0000     -0.2241      0.0502      0.0704
       314        -0.0017     -0.1264     -0.0000      0.0160      0.0225
       315         0.0219     -0.0516     -0.0000      0.0031      0.0045
       316         0.0000      0.0000     -0.0842      0.0071      0.0101
       317        -0.0000      0.0000      0.0481      0.0023      0.0033
       318        -0.0160     -0.1715     -0.0000      0.0297      0.0428
       319        -0.1134     -0.1546     -0.0000      0.0367      0.0532
       320         0.0000      0.0000     -0.0382      0.0015      0.0021
       321         0.0591      0.0955     -0.0000      0.0126      0.0183
       322         0.0000      0.0000      0.0363      0.0013      0.0019
       323         0.0000      0.0000     -0.0892      0.0080      0.0116
       324        -0.0604     -0.1220     -0.0000      0.0185      0.0273
       325         0.0000      0.0000     -0.0470      0.0022      0.0033
       326        -0.0000     -0.0000      0.0225      0.0005      0.0008
       327        -0.0363     -0.0973      0.0000      0.0108      0.0161
       328         0.0078      0.0682      0.0000      0.0047      0.0071
       329        -0.0576     -0.0120      0.0000      0.0035      0.0052
       330        -0.0000     -0.0000     -0.0549      0.0030      0.0046
       331        -0.0469      0.0532     -0.0000      0.0050      0.0077
       332        -0.0000      0.0000      0.1988      0.0395      0.0604
       333        -0.0000      0.0000      0.0209      0.0004      0.0007
       334        -0.0165     -0.0068      0.0000      0.0003      0.0005
       335        -0.0000     -0.0000      0.0188      0.0004      0.0005
       336         0.0956      0.0251      0.0000      0.0098      0.0151
       337        -0.0000      0.0000     -0.1511      0.0228      0.0353
       338         0.0882      0.0151      0.0000      0.0080      0.0124
       339         0.0000      0.0000     -0.0598      0.0036      0.0056
       340        -0.0891      0.1136     -0.0000      0.0209      0.0329
       341        -0.0000      0.0000      0.1063      0.0113      0.0178
       342         0.0000     -0.0000     -0.0821      0.0067      0.0107
       343         0.1806     -0.1365      0.0000      0.0512      0.0812
       344        -0.0000      0.0000      0.0372      0.0014      0.0022
       345         0.0226      0.0227      0.0000      0.0010      0.0016
       346         0.0000     -0.0000      0.2329      0.0542      0.0873
       347         0.0175      0.0026     -0.0000      0.0003      0.0005
       348         0.0480     -0.1303     -0.0000      0.0193      0.0311
       349        -0.0000      0.0000     -0.3065      0.0940      0.1517
       350        -0.1888      0.1499      0.0000      0.0581      0.0941
       351        -0.0566     -0.0332     -0.0000      0.0043      0.0070
       352        -0.0000     -0.0000     -0.0231      0.0005      0.0009
       353         0.1453     -0.0301     -0.0000      0.0220      0.0359
       354        -0.0000     -0.0000      0.1372      0.0188      0.0309
       355         0.1083     -0.0346      0.0000      0.0129      0.0213
       356        -0.0000     -0.0000      0.0047      0.0000      0.0000
       357         0.0370      0.1062     -0.0000      0.0126      0.0210
       358        -0.0000      0.0000      0.0190      0.0004      0.0006
       359        -0.0000     -0.0000     -0.1494      0.0223      0.0372
       360        -0.0147      0.0923      0.0000      0.0087      0.0146
       361         0.0894      0.1122     -0.0000      0.0206      0.0347
       362         0.0000      0.0000      0.0552      0.0030      0.0051
       363         0.0000      0.0000      0.0493      0.0024      0.0042
       364        -0.0321     -0.0037     -0.0000      0.0010      0.0018
       365        -0.0095     -0.0360     -0.0000      0.0014      0.0024
       366        -0.0000      0.0000      0.1425      0.0203      0.0350
[...]
      4   0.291205D-01  0.000000D+00  0.000000D+00  0.826873D-02  0.000000D+00
      5   0.000000D+00 -0.238905D+00 -0.180190D-01  0.000000D+00  0.781674D-01
      6   0.000000D+00 -0.162743D+00 -0.101992D-01  0.000000D+00 -0.661969D-01
      7  -0.911721D-01  0.000000D+00  0.000000D+00 -0.168736D-01  0.000000D+00
      8   0.209994D-01  0.000000D+00  0.000000D+00  0.120652D-01  0.000000D+00
      9   0.104725D+00  0.000000D+00  0.000000D+00 -0.678875D-01  0.000000D+00
     10   0.000000D+00 -0.187097D+00  0.984911D-01  0.000000D+00  0.393472D-01
     11   0.000000D+00 -0.445508D-01  0.148746D+00  0.000000D+00  0.360090D+00
     12   0.000000D+00 -0.320744D+00 -0.257756D+00  0.000000D+00  0.250755D+00
     13   0.000000D+00 -0.122040D+00  0.227460D+00  0.000000D+00  0.375392D+00
     14   0.000000D+00  0.154475D+00  0.213468D-01  0.000000D+00 -0.230064D+00
     15  -0.204727D+00  0.000000D+00  0.000000D+00 -0.199717D+00  0.000000D+00
     16  -0.947102D-01  0.000000D+00  0.000000D+00 -0.125784D+00  0.000000D+00
               396           397           398           399           400 
      1  -0.112689D+03 -0.112668D+03 -0.112656D+03 -0.112654D+03 -0.112622D+03
      2  -0.186552D-01 -0.551076D-01  0.000000D+00  0.000000D+00 -0.189584D-01
      3  -0.459987D-01 -0.199688D-03  0.000000D+00  0.000000D+00 -0.734955D-02
      4   0.000000D+00  0.000000D+00 -0.240742D-01 -0.363963D-02  0.000000D+00
      5   0.420258D-01  0.161266D+00  0.000000D+00  0.000000D+00  0.949431D-01
      6   0.832753D-01  0.223463D-01  0.000000D+00  0.000000D+00 -0.497933D-01
      7   0.000000D+00  0.000000D+00  0.472015D-01  0.535779D-01  0.000000D+00
      8   0.000000D+00  0.000000D+00 -0.232718D+00 -0.168388D+00  0.000000D+00
      9   0.000000D+00  0.000000D+00  0.238646D-01 -0.411575D-01  0.000000D+00
     10  -0.175338D+00  0.841213D-01  0.000000D+00  0.000000D+00 -0.176971D-01
     11  -0.121864D+00 -0.613980D-01  0.000000D+00  0.000000D+00  0.595632D-02
     12  -0.130559D+00 -0.497738D+00  0.000000D+00  0.000000D+00  0.890110D-01
     13  -0.257986D+00 -0.422655D-01  0.000000D+00  0.000000D+00 -0.779760D+00
     14   0.221497D+00  0.725950D-01  0.000000D+00  0.000000D+00 -0.377502D+00
     15   0.000000D+00  0.000000D+00  0.131957D-01  0.189376D+00  0.000000D+00
     16   0.000000D+00  0.000000D+00 -0.360733D+00 -0.428366D+00  0.000000D+00
               401           402           403           404           405 
      1  -0.112603D+03 -0.112565D+03 -0.112549D+03 -0.112528D+03 -0.112513D+03
      2   0.548603D-01  0.000000D+00 -0.259233D-01 -0.193599D-01  0.202046D-01
      3  -0.138436D-01  0.000000D+00 -0.177723D-01  0.503313D-02 -0.157199D-01
      4   0.000000D+00 -0.407773D-01  0.000000D+00  0.000000D+00  0.000000D+00
      5  -0.125178D+00  0.000000D+00  0.876410D-01  0.292844D-01 -0.230867D-01
      6   0.291150D-01  0.000000D+00  0.597570D-01 -0.253181D-01  0.551375D-01
      7   0.000000D+00  0.992239D-01  0.000000D+00  0.000000D+00  0.000000D+00
      8   0.000000D+00 -0.169374D-01  0.000000D+00  0.000000D+00  0.000000D+00
      9   0.000000D+00 -0.192025D-01  0.000000D+00  0.000000D+00  0.000000D+00
     10   0.496385D-01  0.000000D+00  0.259060D+00 -0.764706D-01  0.131120D+00
     11  -0.734784D-01  0.000000D+00 -0.668726D-02 -0.156525D+00 -0.468317D-01
     12  -0.209962D+00  0.000000D+00 -0.392259D+00  0.299167D-01  0.447269D+00
     13   0.101576D+00  0.000000D+00 -0.205284D+00  0.105986D+00 -0.140176D+00
     14  -0.210430D+00  0.000000D+00 -0.163128D+00  0.208753D+00 -0.215684D+00
     15   0.000000D+00  0.208578D+00  0.000000D+00  0.000000D+00  0.000000D+00
     16   0.000000D+00  0.167141D-01  0.000000D+00  0.000000D+00  0.000000D+00
               406           407           408           409           410 
      1  -0.112507D+03 -0.112442D+03 -0.112424D+03 -0.112411D+03 -0.112402D+03
      2   0.000000D+00 -0.126276D+00 -0.146534D-01 -0.654640D-01  0.000000D+00
      3   0.000000D+00 -0.123411D+00 -0.366856D-01 -0.183068D-01  0.000000D+00
      4  -0.773106D-01  0.000000D+00  0.000000D+00  0.000000D+00  0.346718D-02
      5   0.000000D+00  0.332961D+00  0.168703D-01  0.235599D+00  0.000000D+00
      6   0.000000D+00  0.334953D+00  0.110633D+00  0.789474D-01  0.000000D+00
      7   0.159553D+00  0.000000D+00  0.000000D+00  0.000000D+00 -0.142795D-01
      8   0.431307D-01  0.000000D+00  0.000000D+00  0.000000D+00 -0.290201D+00
      9  -0.181031D-01  0.000000D+00  0.000000D+00  0.000000D+00 -0.104324D-01
     10   0.000000D+00  0.671028D+00 -0.540217D-01  0.385095D+00  0.000000D+00
     11   0.000000D+00  0.212841D+00 -0.173622D+00  0.199845D-01  0.000000D+00
     12   0.000000D+00 -0.500338D+00  0.172871D+00 -0.412181D+00  0.000000D+00
     13   0.000000D+00 -0.807194D-01 -0.471447D-01  0.203200D+00  0.000000D+00
     14   0.000000D+00 -0.466546D+00  0.109098D+00 -0.445410D+00  0.000000D+00
     15   0.248416D-01  0.000000D+00  0.000000D+00  0.000000D+00  0.229024D+00
     16   0.160983D+00  0.000000D+00  0.000000D+00  0.000000D+00 -0.115732D+00
               411           412           413           414           415 
      1  -0.112395D+03 -0.112383D+03 -0.112331D+03 -0.112330D+03 -0.112324D+03
      2   0.000000D+00  0.122060D+00 -0.158324D-01  0.000000D+00  0.782730D-01
      3   0.000000D+00 -0.130309D+00  0.786491D-01  0.000000D+00 -0.930642D-01
      4  -0.415044D-02  0.000000D+00  0.000000D+00  0.117439D+00  0.000000D+00
      5   0.000000D+00 -0.345789D+00 -0.452597D-03  0.000000D+00 -0.241944D+00
      6   0.000000D+00  0.360387D+00 -0.210746D+00  0.000000D+00  0.254318D+00
      7  -0.125129D-01  0.000000D+00  0.000000D+00 -0.315316D+00  0.000000D+00
      8  -0.252406D+00  0.000000D+00  0.000000D+00  0.532457D+00  0.000000D+00
      9   0.558852D-02  0.000000D+00  0.000000D+00  0.104555D-01  0.000000D+00
     10   0.000000D+00 -0.299118D+00  0.181778D+00  0.000000D+00 -0.626877D+00
     11   0.000000D+00 -0.139470D+00  0.185991D+00  0.000000D+00  0.123762D+00
     12   0.000000D+00 -0.150058D+01  0.127245D+00  0.000000D+00 -0.451941D+00
     13   0.000000D+00  0.182564D+00 -0.466646D-01  0.000000D+00  0.157182D-01
     14   0.000000D+00  0.172321D+00 -0.175709D+00  0.000000D+00  0.601733D+00
     15   0.824123D-01  0.000000D+00  0.000000D+00 -0.545104D-01  0.000000D+00
     16  -0.168871D+00  0.000000D+00  0.000000D+00  0.539079D+00  0.000000D+00
               416           417           418           419           420 
      1  -0.112309D+03 -0.112294D+03 -0.112264D+03 -0.112259D+03 -0.112254D+03
      2   0.000000D+00 -0.118741D+00  0.464550D-01  0.284881D-01  0.000000D+00
      3   0.000000D+00 -0.381257D-01  0.611207D-01  0.841317D-01  0.000000D+00
      4  -0.878901D-02  0.000000D+00  0.000000D+00  0.000000D+00  0.476047D-01
      5   0.000000D+00  0.339339D+00 -0.154008D+00 -0.997698D-01  0.000000D+00
      6   0.000000D+00  0.108811D+00 -0.192928D+00 -0.249891D+00  0.000000D+00
      7   0.311037D-01  0.000000D+00  0.000000D+00  0.000000D+00 -0.173579D+00
      8  -0.349006D+00  0.000000D+00  0.000000D+00  0.000000D+00 -0.246761D+00
      9   0.202511D-01  0.000000D+00  0.000000D+00  0.000000D+00  0.179652D-01
     10   0.000000D+00  0.706981D-01 -0.285875D+00 -0.175625D+00  0.000000D+00
     11   0.000000D+00  0.144155D+00 -0.246680D+00 -0.310980D-02  0.000000D+00
     12   0.000000D+00 -0.112324D+01  0.144299D+01  0.565870D+00  0.000000D+00
     13   0.000000D+00 -0.173472D+00 -0.588735D-02  0.106302D+00  0.000000D+00
     14   0.000000D+00 -0.103858D+00  0.395788D+00  0.223415D+00  0.000000D+00
     15   0.893256D-01  0.000000D+00  0.000000D+00  0.000000D+00 -0.149466D+00
     16  -0.279344D+00  0.000000D+00  0.000000D+00  0.000000D+00 -0.435022D+00
               421           422           423           424           425 
      1  -0.112242D+03 -0.112241D+03 -0.112228D+03 -0.112225D+03 -0.112215D+03
      2   0.000000D+00 -0.210338D+00  0.000000D+00  0.113602D+00  0.000000D+00
      3   0.000000D+00 -0.458307D-01  0.000000D+00 -0.574517D-01  0.000000D+00
      4  -0.366373D-01  0.000000D+00 -0.102326D+00  0.000000D+00  0.261042D-01
      5   0.000000D+00  0.626553D+00  0.000000D+00 -0.313428D+00  0.000000D+00
      6   0.000000D+00  0.154078D+00  0.000000D+00  0.176767D+00  0.000000D+00
      7   0.106312D+00  0.000000D+00  0.295447D+00  0.000000D+00 -0.970081D-01
      8  -0.157891D-01  0.000000D+00 -0.154149D-01  0.000000D+00 -0.872212D-03
      9   0.435650D-01  0.000000D+00 -0.468331D-01  0.000000D+00  0.153735D-01
     10   0.000000D+00  0.298955D+00  0.000000D+00 -0.311128D+00  0.000000D+00
     11   0.000000D+00  0.225164D+00  0.000000D+00 -0.681516D-01  0.000000D+00
     12   0.000000D+00 -0.420647D+00  0.000000D+00 -0.216786D+00  0.000000D+00
     13   0.000000D+00 -0.557372D-01  0.000000D+00 -0.415622D-01  0.000000D+00
     14   0.000000D+00 -0.199605D+00  0.000000D+00  0.308029D+00  0.000000D+00
     15  -0.250886D+00  0.000000D+00  0.187803D+00  0.000000D+00 -0.175605D+00
     16  -0.250019D+00  0.000000D+00  0.739852D-02  0.000000D+00  0.102717D+00
               426           427           428           429           430 
      1  -0.112214D+03 -0.112183D+03 -0.112182D+03 -0.112174D+03 -0.112160D+03
      2   0.000000D+00 -0.101512D+00  0.000000D+00  0.000000D+00  0.408873D-01
      3   0.000000D+00 -0.241051D-02  0.000000D+00  0.000000D+00 -0.205469D-01
      4  -0.629348D-01  0.000000D+00  0.207426D+00  0.915870D-01  0.000000D+00
      5   0.000000D+00  0.307915D+00  0.000000D+00  0.000000D+00 -0.994949D-01
      6   0.000000D+00  0.248805D-01  0.000000D+00  0.000000D+00  0.641237D-01
      7   0.161571D+00  0.000000D+00 -0.610438D+00 -0.262545D+00  0.000000D+00
      8   0.161031D+00  0.000000D+00  0.748653D+00  0.249974D+00  0.000000D+00
      9  -0.185455D-01  0.000000D+00  0.292538D-01  0.401793D-01  0.000000D+00
     10   0.000000D+00  0.175473D+00  0.000000D+00  0.000000D+00  0.175006D+00
     11   0.000000D+00 -0.846674D-01  0.000000D+00  0.000000D+00 -0.174723D+00
     12   0.000000D+00 -0.157353D+00  0.000000D+00  0.000000D+00 -0.531316D+00
     13   0.000000D+00  0.181831D+00  0.000000D+00  0.000000D+00  0.616532D-01
     14   0.000000D+00 -0.106398D-01  0.000000D+00  0.000000D+00 -0.237599D-01
     15  -0.469609D-01  0.000000D+00 -0.192579D+00 -0.258030D+00  0.000000D+00
     16   0.394145D+00  0.000000D+00  0.754541D+00  0.281529D+00  0.000000D+00
               431           432           433           434           435 
      1  -0.112129D+03 -0.112122D+03 -0.112113D+03 -0.112071D+03 -0.112053D+03
      2   0.000000D+00 -0.139541D+00  0.591827D-01  0.000000D+00  0.000000D+00
      3   0.000000D+00  0.130051D+00  0.742080D-01  0.000000D+00  0.000000D+00
      4   0.696972D-01  0.000000D+00  0.000000D+00 -0.857357D-01 -0.301634D-02
      5   0.000000D+00  0.432432D+00 -0.189718D+00  0.000000D+00  0.000000D+00
      6   0.000000D+00 -0.402689D+00 -0.243331D+00  0.000000D+00  0.000000D+00
      7  -0.206938D+00  0.000000D+00  0.000000D+00  0.225496D+00  0.765646D-02
      8   0.192301D+00  0.000000D+00  0.000000D+00 -0.105900D+00  0.270072D+00
      9   0.267070D-01  0.000000D+00  0.000000D+00 -0.350954D-01  0.164608D-01
     10   0.000000D+00  0.368883D+00 -0.559116D+00  0.000000D+00  0.000000D+00
     11   0.000000D+00  0.268154D+00 -0.128521D+00  0.000000D+00  0.000000D+00
     12   0.000000D+00  0.175918D+01 -0.164928D+00  0.000000D+00  0.000000D+00
     13   0.000000D+00 -0.169262D+00  0.618263D-01  0.000000D+00  0.000000D+00
     14   0.000000D+00 -0.812053D+00  0.477528D+00  0.000000D+00  0.000000D+00
     15   0.352985D-01  0.000000D+00  0.000000D+00  0.247717D+00 -0.786237D-02
     16   0.504182D+00  0.000000D+00  0.000000D+00 -0.213038D+00  0.237128D+00
               436           437           438           439           440 
      1  -0.112046D+03 -0.112044D+03 -0.112007D+03 -0.111996D+03 -0.111987D+03
      2   0.200851D+00  0.000000D+00 -0.500747D-01  0.000000D+00 -0.783802D-01
      3  -0.150934D+00  0.000000D+00 -0.715634D-01  0.000000D+00  0.406537D-01
      4   0.000000D+00 -0.908617D-01  0.000000D+00  0.450787D-01  0.000000D+00
      5  -0.625927D+00  0.000000D+00  0.112464D+00  0.000000D+00  0.234935D+00
      6   0.470935D+00  0.000000D+00  0.238628D+00  0.000000D+00 -0.147855D+00
      7   0.000000D+00  0.259069D+00  0.000000D+00 -0.157478D+00  0.000000D+00
      8   0.000000D+00  0.305484D+00  0.000000D+00  0.363022D+00  0.000000D+00
      9   0.000000D+00 -0.168860D-01  0.000000D+00  0.167205D-01  0.000000D+00
     10  -0.104947D+01  0.000000D+00 -0.395532D+00  0.000000D+00 -0.766133D-01
     11  -0.268829D+00  0.000000D+00 -0.216281D+00  0.000000D+00  0.142698D+00
     12  -0.101906D+01  0.000000D+00 -0.476954D+00  0.000000D+00  0.276085D+00
     13   0.205587D+00  0.000000D+00  0.971355D-01  0.000000D+00  0.517064D-02
     14   0.121425D+01  0.000000D+00  0.369989D+00  0.000000D+00 -0.106025D+00
     15   0.000000D+00 -0.398353D-01  0.000000D+00 -0.459387D-01  0.000000D+00
     16   0.000000D+00  0.268248D+00  0.000000D+00  0.176729D+00  0.000000D+00
               441           442           443           444           445 
      1  -0.111953D+03 -0.111950D+03 -0.111916D+03 -0.111877D+03 -0.111852D+03
      2   0.111794D+00  0.000000D+00 -0.176860D-01  0.000000D+00 -0.921985D-02
      3   0.374098D-01  0.000000D+00  0.299469D-01  0.000000D+00 -0.110841D+00
      4   0.000000D+00  0.351838D+00  0.000000D+00  0.770673D-01  0.000000D+00
      5  -0.367584D+00  0.000000D+00  0.602504D-01  0.000000D+00  0.508093D-01
      6  -0.130265D+00  0.000000D+00 -0.953308D-01  0.000000D+00  0.370758D+00
      7   0.000000D+00 -0.109746D+01  0.000000D+00 -0.268235D+00  0.000000D+00
      8   0.000000D+00  0.124354D+01  0.000000D+00  0.618169D+00  0.000000D+00
      9   0.000000D+00  0.803859D-01  0.000000D+00  0.250755D-01  0.000000D+00
     10  -0.395551D+00  0.000000D+00  0.606813D-01  0.000000D+00  0.340089D+00
     11  -0.144121D+00  0.000000D+00 -0.446658D-01  0.000000D+00  0.125741D+00
     12   0.326763D+00  0.000000D+00  0.189640D+00  0.000000D+00 -0.121189D+01
     13  -0.108388D+00  0.000000D+00  0.798373D-01  0.000000D+00  0.543692D-01
     14   0.634900D+00  0.000000D+00 -0.763580D-01  0.000000D+00 -0.382382D+00
     15   0.000000D+00 -0.372964D+00  0.000000D+00 -0.188577D-01  0.000000D+00
     16   0.000000D+00  0.142875D+01  0.000000D+00  0.640497D+00  0.000000D+00
               446           447           448           449           450 
      1  -0.111831D+03 -0.111818D+03 -0.111761D+03 -0.111717D+03 -0.111656D+03
      2   0.000000D+00  0.129861D-01 -0.145820D-01  0.000000D+00  0.000000D+00
      3   0.000000D+00  0.589032D-01 -0.233460D+00  0.000000D+00  0.000000D+00
      4   0.175553D+00  0.000000D+00  0.000000D+00 -0.186951D-01 -0.792459D-01
      5   0.000000D+00 -0.554993D-01  0.517511D-01  0.000000D+00  0.000000D+00
      6   0.000000D+00 -0.185871D+00  0.821436D+00  0.000000D+00  0.000000D+00
      7  -0.568848D+00  0.000000D+00  0.000000D+00  0.463759D-01  0.262103D+00
      8   0.107889D+01  0.000000D+00  0.000000D+00  0.198583D+00 -0.333657D+00
      9   0.256459D-01  0.000000D+00  0.000000D+00 -0.924505D-02 -0.184383D-01
     10   0.000000D+00 -0.345592D+00  0.102285D+00  0.000000D+00  0.000000D+00
     11   0.000000D+00 -0.151380D+00 -0.154197D-01  0.000000D+00  0.000000D+00
     12   0.000000D+00 -0.644891D-01 -0.163210D+01  0.000000D+00  0.000000D+00
     13   0.000000D+00  0.213513D+00  0.153340D-01  0.000000D+00  0.000000D+00
     14   0.000000D+00  0.366035D+00  0.221824D+00  0.000000D+00  0.000000D+00
     15  -0.849158D-01  0.000000D+00  0.000000D+00  0.327376D+00 -0.259393D+00
     16   0.135298D+01  0.000000D+00  0.000000D+00  0.322127D+00 -0.223772D-01
               451           452           453           454           455 
      1  -0.111653D+03 -0.111605D+03 -0.111542D+03 -0.111491D+03 -0.111483D+03
      2  -0.667798D-01  0.305271D-02  0.000000D+00  0.000000D+00  0.845844D-02
      3   0.263731D-01 -0.278777D-01  0.000000D+00  0.000000D+00 -0.246786D-01
      4   0.000000D+00  0.000000D+00 -0.424319D-01 -0.133766D+00  0.000000D+00
      5   0.212216D+00 -0.734434D-02  0.000000D+00  0.000000D+00 -0.414556D-01
      6  -0.930810D-01  0.158779D+00  0.000000D+00  0.000000D+00  0.115679D+00
      7   0.000000D+00  0.000000D+00  0.142102D+00  0.504967D+00  0.000000D+00
      8   0.000000D+00  0.000000D+00  0.339696D-01 -0.724566D+00  0.000000D+00
      9   0.000000D+00  0.000000D+00 -0.698099D-02 -0.173737D-01  0.000000D+00
     10  -0.825670D-02  0.184783D-01  0.000000D+00  0.000000D+00 -0.212798D+00
     11  -0.139260D+00  0.876326D-01  0.000000D+00  0.000000D+00  0.956585D-01
     12   0.212559D+00 -0.168379D+01  0.000000D+00  0.000000D+00 -0.305084D+00
     13   0.209875D+00  0.151859D+00  0.000000D+00  0.000000D+00 -0.177023D+00
     14   0.113644D+00  0.120045D-01  0.000000D+00  0.000000D+00  0.768637D-01
     15   0.000000D+00  0.000000D+00 -0.997375D-01  0.280423D+00  0.000000D+00
     16   0.000000D+00  0.000000D+00 -0.160618D+00 -0.613518D+00  0.000000D+00
               456           457           458           459           460 
      1  -0.111408D+03 -0.111322D+03 -0.111305D+03 -0.111285D+03 -0.111236D+03
      2   0.127844D+00  0.417857D-01  0.000000D+00 -0.300095D-02  0.177141D+00
      3   0.146777D+00 -0.101414D+00  0.000000D+00  0.788222D-02  0.253524D-02
      4   0.000000D+00  0.000000D+00 -0.469228D-01  0.000000D+00  0.000000D+00
      5  -0.477926D+00 -0.167569D+00  0.000000D+00  0.915598D-02 -0.682887D+00
      6  -0.571822D+00  0.414872D+00  0.000000D+00  0.294670D-01 -0.818934D-02
      7   0.000000D+00  0.000000D+00  0.183735D+00  0.000000D+00  0.000000D+00
      8   0.000000D+00  0.000000D+00 -0.218212D+00  0.000000D+00  0.000000D+00
      9   0.000000D+00  0.000000D+00  0.313288D-02  0.000000D+00  0.000000D+00
     10  -0.605211D+00 -0.134500D+00  0.000000D+00  0.372974D-01 -0.992608D+00
     11  -0.303919D+00 -0.106030D+00  0.000000D+00 -0.384561D-01 -0.511007D+00
     12   0.169076D+01 -0.112841D+01  0.000000D+00  0.992641D-01  0.236479D+00
     13   0.952583D-01 -0.182286D-01  0.000000D+00 -0.280469D+00  0.219519D+00
     14   0.354640D+00  0.211689D+00  0.000000D+00  0.442860D-01  0.978083D+00
     15   0.000000D+00  0.000000D+00  0.163577D+00  0.000000D+00  0.000000D+00
     16   0.000000D+00  0.000000D+00 -0.170766D+00  0.000000D+00  0.000000D+00
               461           462 
      1  -0.111073D+03 -0.110763D+03
      2   0.473814D-01  0.373758D-01
      3  -0.143186D-02  0.221018D-02
      4   0.000000D+00  0.000000D+00
      5  -0.186517D+00 -0.139338D+00
      6   0.291112D-01  0.289275D-01
      7   0.000000D+00  0.000000D+00
      8   0.000000D+00  0.000000D+00
      9   0.000000D+00  0.000000D+00
     10  -0.237103D+00 -0.171430D+00
     11  -0.640495D-01 -0.234405D+00
     12  -0.516368D+00  0.280126D-01
     13  -0.989033D-04  0.169695D+00
     14   0.287585D+00  0.849711D-01
     15   0.000000D+00  0.000000D+00
     16   0.000000D+00  0.000000D+00
 Unable to Open any file for archive entry.
 1\1\GINC-HEL13\SP\RTPSSh TD-FC\Gen\C1H4O1\SABYASACHI\21-Mar-2022\0\\#P
  TD(Nstates=10000) tpssh/Gen SCF(maxcycles=100) Int(Grid=ultrafine)\\x
 GDB7_00001_tier4.com\\0,1\C,0,0.046419,0.658432,0.\O,0,0.046419,-0.751
 929,0.\H,0,-0.438905,1.073261,0.890797\H,0,-0.438905,1.073261,-0.89079
 7\H,0,1.087855,0.977571,0.\H,0,-0.859911,-1.059251,0.\\Version=EM64L-G
 16RevC.01\State=1-A'\HF=-115.6488398\RMSD=7.278e-09\PG=CS [SG(C1H2O1),
 X(H2)]\\@
 The archive entry for this job was punched.


 Cherishing children is the mark of a civilized society.
 -- Joan Ganz Cooney
 Job cpu time:       0 days  0 hours  4 minutes 14.3 seconds.
 Elapsed time:       0 days  0 hours  0 minutes 32.1 seconds.
 File lengths (MBytes):  RWF=    278 Int=      0 D2E=      0 Chk=     64 Scr=      1
 Normal termination of Gaussian 16 at Mon Mar 21 04:03:13 2022.
