 Entering Gaussian System, Link 0=g16
 Input=000026.com
 Output=000026.log
 Initial command:
 /home/sabyasachi/g16/l1.exe "/scratch/sabyasachi/PBS_7976094.helios/Gau-43389.inp" -scrdir="/scratch/sabyasachi/PBS_7976094.helios/"
 Entering Link 1 = /home/sabyasachi/g16/l1.exe PID=     43390.
  
 Copyright (c) 1988-2019, Gaussian, Inc.  All Rights Reserved.
  
 This is part of the Gaussian(R) 16 program.  It is based on
 the Gaussian(R) 09 system (copyright 2009, Gaussian, Inc.),
 the Gaussian(R) 03 system (copyright 2003, Gaussian, Inc.),
 the Gaussian(R) 98 system (copyright 1998, Gaussian, Inc.),
 the Gaussian(R) 94 system (copyright 1995, Gaussian, Inc.),
 the Gaussian 92(TM) system (copyright 1992, Gaussian, Inc.),
 the Gaussian 90(TM) system (copyright 1990, Gaussian, Inc.),
 the Gaussian 88(TM) system (copyright 1988, Gaussian, Inc.),
 the Gaussian 86(TM) system (copyright 1986, Carnegie Mellon
 University), and the Gaussian 82(TM) system (copyright 1983,
 Carnegie Mellon University). Gaussian is a federally registered
 trademark of Gaussian, Inc.
  
 This software contains proprietary and confidential information,
 including trade secrets, belonging to Gaussian, Inc.
  
 This software is provided under written license and may be
 used, copied, transmitted, or stored only in accord with that
 written license.
  
 The following legend is applicable only to US Government
 contracts under FAR:
  
                    RESTRICTED RIGHTS LEGEND
  
 Use, reproduction and disclosure by the US Government is
 subject to restrictions as set forth in subparagraphs (a)
 and (c) of the Commercial Computer Software - Restricted
 Rights clause in FAR 52.227-19.
  
 Gaussian, Inc.
 340 Quinnipiac St., Bldg. 40, Wallingford CT 06492
  
  
 ---------------------------------------------------------------
 Warning -- This program may not be used in any manner that
 competes with the business of Gaussian, Inc. or will provide
 assistance to any competitor of Gaussian, Inc.  The licensee
 of this program is prohibited from giving any competitor of
 Gaussian, Inc. access to this program.  By using this program,
 the user acknowledges that Gaussian, Inc. is engaged in the
 business of creating and licensing software in the field of
 computational chemistry and represents and warrants to the
 licensee that it is not a competitor of Gaussian, Inc. and that
 it will not use this program in any manner prohibited above.
 ---------------------------------------------------------------
  

 Cite this work as:
 Gaussian 16, Revision C.01,
 M. J. Frisch, G. W. Trucks, H. B. Schlegel, G. E. Scuseria, 
 M. A. Robb, J. R. Cheeseman, G. Scalmani, V. Barone, 
 G. A. Petersson, H. Nakatsuji, X. Li, M. Caricato, A. V. Marenich, 
 J. Bloino, B. G. Janesko, R. Gomperts, B. Mennucci, H. P. Hratchian, 
 J. V. Ortiz, A. F. Izmaylov, J. L. Sonnenberg, D. Williams-Young, 
 F. Ding, F. Lipparini, F. Egidi, J. Goings, B. Peng, A. Petrone, 
 T. Henderson, D. Ranasinghe, V. G. Zakrzewski, J. Gao, N. Rega, 
 G. Zheng, W. Liang, M. Hada, M. Ehara, K. Toyota, R. Fukuda, 
 J. Hasegawa, M. Ishida, T. Nakajima, Y. Honda, O. Kitao, H. Nakai, 
 T. Vreven, K. Throssell, J. A. Montgomery, Jr., J. E. Peralta, 
 F. Ogliaro, M. J. Bearpark, J. J. Heyd, E. N. Brothers, K. N. Kudin, 
 V. N. Staroverov, T. A. Keith, R. Kobayashi, J. Normand, 
 K. Raghavachari, A. P. Rendell, J. C. Burant, S. S. Iyengar, 
 J. Tomasi, M. Cossi, J. M. Millam, M. Klene, C. Adamo, R. Cammi, 
 J. W. Ochterski, R. L. Martin, K. Morokuma, O. Farkas, 
 J. B. Foresman, and D. J. Fox, Gaussian, Inc., Wallingford CT, 2019.
 
 ******************************************
 Gaussian 16:  EM64L-G16RevC.01  3-Jul-2019
                21-Mar-2022 
 ******************************************
 %mem=64gb
 %nproc=8
 Will use up to    8 processors via shared memory.
 ---------------------------------------------------------------------
 #P TD(Nstates=10000) tpssh/Gen SCF(maxcycles=100) Int(Grid=ultrafine)
 ---------------------------------------------------------------------
 1/38=1,172=1/1;
 2/12=2,17=6,18=5,40=1/2;
 3/5=7,11=9,25=1,30=1,74=-35,75=-5/1,2,3,8;
 4//1;
 5/5=2,7=100,38=5/2;
 8/6=1,10=1,108=10000/1;
 9/41=10000,42=1,70=2/14;
 6/7=2,8=2,9=2,10=2/1;
 99/5=1,9=1/99;
 Leave Link    1 at Mon Mar 21 20:00:47 2022, MaxMem=  8589934592 cpu:               0.4 elap:               0.1
 (Enter /home/sabyasachi/g16/l101.exe)
 ---------------------
 xGDB7_00001_tier4.com
 ---------------------
 Symbolic Z-matrix:
 Charge =  0 Multiplicity = 1
 8                    -1.0238   -0.43879   0. 
 6                     0.        0.41895   0. 
 8                     1.15299   0.10998   0. 
 1                    -0.65694  -1.33301   0. 
 1                    -0.3765    1.44977   0. 
 
 ITRead=  0  0  0  0  0
 MicOpt= -1 -1 -1 -1 -1
 NAtoms=      5 NQM=        5 NQMF=       0 NMMI=      0 NMMIF=      0
                NMic=       0 NMicF=      0.
                    Isotopes and Nuclear Properties:
 (Nuclear quadrupole moments (NQMom) in fm**2, nuclear magnetic moments (NMagM)
  in nuclear magnetons)

  Atom         1           2           3           4           5
 IAtWgt=          16          12          16           1           1
 AtmWgt=  15.9949146  12.0000000  15.9949146   1.0078250   1.0078250
 NucSpn=           0           0           0           1           1
 AtZEff=  -0.0000000  -0.0000000  -0.0000000  -0.0000000  -0.0000000
 NQMom=    0.0000000   0.0000000   0.0000000   0.0000000   0.0000000
 NMagM=    0.0000000   0.0000000   0.0000000   2.7928460   2.7928460
 AtZNuc=   8.0000000   6.0000000   8.0000000   1.0000000   1.0000000
 Leave Link  101 at Mon Mar 21 20:00:47 2022, MaxMem=  8589934592 cpu:               0.6 elap:               0.1
 (Enter /home/sabyasachi/g16/l202.exe)
                          Input orientation:                          
 ---------------------------------------------------------------------
 Center     Atomic      Atomic             Coordinates (Angstroms)
 Number     Number       Type             X           Y           Z
 ---------------------------------------------------------------------
      1          8           0       -1.023804   -0.438792    0.000000
      2          6           0        0.000000    0.418952    0.000000
      3          8           0        1.152985    0.109983    0.000000
      4          1           0       -0.656942   -1.333012    0.000000
      5          1           0       -0.376499    1.449770    0.000000
 ---------------------------------------------------------------------
                    Distance matrix (angstroms):
                    1          2          3          4          5
     1  O    0.000000
     2  C    1.335627   0.000000
     3  O    2.244897   1.193665   0.000000
     4  H    0.966549   1.871083   2.314751   0.000000
     5  H    1.996414   1.097423   2.033310   2.796878   0.000000
 Stoichiometry    CH2O2
 Framework group  CS[SG(CH2O2)]
 Deg. of freedom     7
 Full point group                 CS      NOp   2
 Largest Abelian subgroup         CS      NOp   2
 Largest concise Abelian subgroup C1      NOp   1
                         Standard orientation:                         
 ---------------------------------------------------------------------
 Center     Atomic      Atomic             Coordinates (Angstroms)
 Number     Number       Type             X           Y           Z
 ---------------------------------------------------------------------
      1          8           0       -1.023805   -0.438791    0.000000
      2          6           0       -0.000000    0.418952    0.000000
      3          8           0        1.152985    0.109982   -0.000000
      4          1           0       -0.656943   -1.333011    0.000000
      5          1           0       -0.376498    1.449770    0.000000
 ---------------------------------------------------------------------
 Rotational constants (GHZ):          78.3457848          12.2009615          10.5569106
 Leave Link  202 at Mon Mar 21 20:00:47 2022, MaxMem=  8589934592 cpu:               0.1 elap:               0.0
 (Enter /home/sabyasachi/g16/l301.exe)
 General basis read from cards:  (5D, 7F)
 Centers:       4      5
 S 3 1.00
     Exponent=  1.3010701000D+01 Coefficients=  1.9682158000D-02
     Exponent=  1.9622572000D+00 Coefficients=  1.3796524000D-01
     Exponent=  4.4453796000D-01 Coefficients=  4.7831935000D-01
 S 1 1.00
     Exponent=  1.2194962000D-01 Coefficients=  1.0000000000D+00
 P 1 1.00
     Exponent=  8.0000000000D-01 Coefficients=  1.0000000000D+00
 P 1 1.00
     Exponent=  1.1704099050D-01 Coefficients=  1.0000000000D+00
 ****
 Centers:       2
 S 5 1.00
     Exponent=  1.2384016938D+03 Coefficients=  5.4568832082D-03
     Exponent=  1.8629004992D+02 Coefficients=  4.0638409211D-02
     Exponent=  4.2251176346D+01 Coefficients=  1.8025593888D-01
     Exponent=  1.1676557932D+01 Coefficients=  4.6315121755D-01
     Exponent=  3.5930506482D+00 Coefficients=  4.4087173314D-01
 S 1 1.00
     Exponent=  4.0245147363D-01 Coefficients=  1.0000000000D+00
 S 1 1.00
     Exponent=  1.3090182668D-01 Coefficients=  1.0000000000D+00
 S 1 1.00
     Exponent=  6.7053540256D-02 Coefficients=  1.0000000000D+00
 P 3 1.00
     Exponent=  9.4680970621D+00 Coefficients=  3.8387871728D-02
     Exponent=  2.0103545142D+00 Coefficients=  2.1117025112D-01
     Exponent=  5.4771004707D-01 Coefficients=  5.1328172114D-01
 P 1 1.00
     Exponent=  1.5268613795D-01 Coefficients=  1.0000000000D+00
 D 1 1.00
     Exponent=  8.0000000000D-01 Coefficients=  1.0000000000D+00
 D 1 1.00
     Exponent=  1.1713185140D-01 Coefficients=  1.0000000000D+00
 ****
 Centers:       1      3
 S 5 1.00
     Exponent=  2.2661767785D+03 Coefficients= -5.3431809926D-03
     Exponent=  3.4087010191D+02 Coefficients= -3.9890039230D-02
     Exponent=  7.7363135167D+01 Coefficients= -1.7853911985D-01
     Exponent=  2.1479644940D+01 Coefficients= -4.6427684959D-01
     Exponent=  6.6589433124D+00 Coefficients= -4.4309745172D-01
 S 1 1.00
     Exponent=  8.0975975668D-01 Coefficients=  1.0000000000D+00
 S 1 1.00
     Exponent=  2.5530772234D-01 Coefficients=  1.0000000000D+00
 S 1 1.00
     Exponent=  7.6572453250D-02 Coefficients=  1.0000000000D+00
 P 3 1.00
     Exponent=  1.7721504317D+01 Coefficients=  4.3394573193D-02
     Exponent=  3.8635505440D+00 Coefficients=  2.3094120765D-01
     Exponent=  1.0480920883D+00 Coefficients=  5.1375311064D-01
 P 1 1.00
     Exponent=  2.7641544411D-01 Coefficients=  1.0000000000D+00
 P 1 1.00
     Exponent=  6.9002276350D-02 Coefficients=  1.0000000000D+00
 D 1 1.00
     Exponent=  1.2000000000D+00 Coefficients=  1.0000000000D+00
 D 1 1.00
     Exponent=  1.7992024323D-01 Coefficients=  1.0000000000D+00
 ****
 Ernie: Thresh=  0.10000D-02 Tol=  0.10000D-05 Strict=F.
 There are    64 symmetry adapted cartesian basis functions of A'  symmetry.
 There are    24 symmetry adapted cartesian basis functions of A"  symmetry.
 There are    58 symmetry adapted basis functions of A'  symmetry.
 There are    24 symmetry adapted basis functions of A"  symmetry.
    82 basis functions,   122 primitive gaussians,    88 cartesian basis functions
    12 alpha electrons       12 beta electrons
       nuclear repulsion energy        70.5741297168 Hartrees.
 IExCor= 2523 DFT=T Ex+Corr=TPSSh ExCW=0 ScaHFX=  0.100000
 ScaDFX=  0.900000  0.900000  1.000000  1.000000 ScalE2=  1.000000  1.000000
 IRadAn=      5 IRanWt=     -1 IRanGd=            0 ICorTp=0 IEmpDi=  4
 NAtoms=    5 NActive=    5 NUniq=    5 SFac= 1.00D+00 NAtFMM=   60 NAOKFM=F Big=F
 Integral buffers will be    131072 words long.
 Regular integral format.
 Two-electron integral symmetry is turned on.
 Leave Link  301 at Mon Mar 21 20:00:47 2022, MaxMem=  8589934592 cpu:               0.6 elap:               0.1
 (Enter /home/sabyasachi/g16/l302.exe)
 NPDir=0 NMtPBC=     1 NCelOv=     1 NCel=       1 NClECP=     1 NCelD=      1
         NCelK=      1 NCelE2=     1 NClLst=     1 CellRange=     0.0.
 One-electron integrals computed using PRISM.
 One-electron integral symmetry used in STVInt
 NBasis=    82 RedAO= T EigKep=  3.68D-04  NBF=    58    24
 NBsUse=    82 1.00D-06 EigRej= -1.00D+00 NBFU=    58    24
 Precomputing XC quadrature grid using
 IXCGrd= 4 IRadAn=           5 IRanWt=          -1 IRanGd=           0 AccXCQ= 0.00D+00.
 Generated NRdTot=       0 NPtTot=           0 NUsed=           0 NTot=          32
 NSgBfM=    88    88    88    88    88 MxSgAt=     5 MxSgA2=     5.
 Leave Link  302 at Mon Mar 21 20:00:48 2022, MaxMem=  8589934592 cpu:               0.9 elap:               0.1
 (Enter /home/sabyasachi/g16/l303.exe)
 DipDrv:  MaxL=1.
 Leave Link  303 at Mon Mar 21 20:00:48 2022, MaxMem=  8589934592 cpu:               0.2 elap:               0.0
 (Enter /home/sabyasachi/g16/l308.exe)
 Leave Link  308 at Mon Mar 21 20:00:48 2022, MaxMem=  8589934592 cpu:               0.2 elap:               0.0
 (Enter /home/sabyasachi/g16/l401.exe)
 ExpMin= 6.71D-02 ExpMax= 2.27D+03 ExpMxC= 3.41D+02 IAcc=3 IRadAn=         5 AccDes= 0.00D+00
 Harris functional with IExCor= 1009 and IRadAn=       5 diagonalized for initial guess.
 HarFok:  IExCor= 1009 AccDes= 0.00D+00 IRadAn=         5 IDoV= 1 UseB2=F ITyADJ=14
 ICtDFT=  3500011 ScaDFX=  1.000000  1.000000  1.000000  1.000000
 FoFCou: FMM=F IPFlag=           0 FMFlag=      100000 FMFlg1=           0
         NFxFlg=           0 DoJE=T BraDBF=F KetDBF=T FulRan=T
         wScrn=  0.000000 ICntrl=       500 IOpCl=  0 I1Cent=   200000004 NGrid=           0
         NMat0=    1 NMatS0=      1 NMatT0=    0 NMatD0=    1 NMtDS0=    0 NMtDT0=    0
 Petite list used in FoFCou.
 Harris En= -189.469566420174    
 JPrj=0 DoOrth=F DoCkMO=F.
 Initial guess orbital symmetries:
       Occupied  (A') (A') (A') (A') (A') (A') (A') (A') (A") (A')
                 (A") (A')
       Virtual   (A") (A') (A') (A') (A") (A') (A') (A') (A") (A')
                 (A") (A') (A') (A') (A") (A') (A') (A') (A') (A")
                 (A') (A") (A') (A') (A') (A") (A') (A') (A') (A")
                 (A") (A') (A") (A') (A") (A') (A') (A') (A') (A')
                 (A') (A") (A") (A') (A') (A') (A") (A') (A') (A')
                 (A") (A') (A") (A') (A') (A') (A") (A') (A') (A')
                 (A") (A') (A") (A") (A') (A") (A') (A') (A') (A')
 The electronic state of the initial guess is 1-A'.
 Leave Link  401 at Mon Mar 21 20:00:48 2022, MaxMem=  8589934592 cpu:               1.6 elap:               0.2
 (Enter /home/sabyasachi/g16/l502.exe)
 Keep R1 ints in memory in symmetry-blocked form, NReq=13119480.
 FoFCou: FMM=F IPFlag=           0 FMFlag=           0 FMFlg1=           0
         NFxFlg=           0 DoJE=F BraDBF=F KetDBF=F FulRan=T
         wScrn=  0.000000 ICntrl=       600 IOpCl=  0 I1Cent=           0 NGrid=           0
         NMat0=    1 NMatS0=   3403 NMatT0=    0 NMatD0=    1 NMtDS0=    0 NMtDT0=    0
 Petite list used in FoFCou.
 Closed shell SCF:
 Using DIIS extrapolation, IDIIS=  1040.
 NGot=  8589934592 LenX=  8586916656 LenY=  8586908471
 Requested convergence on RMS density matrix=1.00D-08 within 100 cycles.
 Requested convergence on MAX density matrix=1.00D-06.
 Requested convergence on             energy=1.00D-06.
 No special actions if energy rises.
 Integral accuracy reduced to 1.0D-05 until final iterations.

 Cycle   1  Pass 0  IDiag  1:
 E= -189.569766729578    
 DIIS: error= 3.29D-02 at cycle   1 NSaved=   1.
 NSaved= 1 IEnMin= 1 EnMin= -189.569766729578     IErMin= 1 ErrMin= 3.29D-02
 ErrMax= 3.29D-02  0.00D+00 EMaxC= 1.00D-01 BMatC= 8.87D-02 BMatP= 8.87D-02
 IDIUse=3 WtCom= 6.71D-01 WtEn= 3.29D-01
 Coeff-Com:  0.100D+01
 Coeff-En:   0.100D+01
 Coeff:      0.100D+01
 Gap=     0.172 Goal=   None    Shift=    0.000
 GapD=    0.172 DampG=1.000 DampE=0.500 DampFc=0.5000 IDamp=-1.
 Damping current iteration by 5.00D-01
 RMSDP=8.95D-03 MaxDP=1.88D-01              OVMax= 2.45D-01

 Cycle   2  Pass 0  IDiag  1:
 E= -189.566139613506     Delta-E=        0.003627116072 Rises=F Damp=T
 DIIS: error= 1.08D-02 at cycle   2 NSaved=   2.
 NSaved= 2 IEnMin= 1 EnMin= -189.569766729578     IErMin= 2 ErrMin= 1.08D-02
 ErrMax= 1.08D-02  0.00D+00 EMaxC= 1.00D-01 BMatC= 2.79D-02 BMatP= 8.87D-02
 IDIUse=3 WtCom= 8.92D-01 WtEn= 1.08D-01
 Coeff-Com:  0.334D+00 0.666D+00
 Coeff-En:   0.519D+00 0.481D+00
 Coeff:      0.354D+00 0.646D+00
 Gap=     0.250 Goal=   None    Shift=    0.000
 RMSDP=2.82D-03 MaxDP=5.07D-02 DE= 3.63D-03 OVMax= 1.76D-01

 Cycle   3  Pass 0  IDiag  1:
 E= -189.626119756912     Delta-E=       -0.059980143407 Rises=F Damp=F
 DIIS: error= 1.05D-02 at cycle   3 NSaved=   3.
 NSaved= 3 IEnMin= 3 EnMin= -189.626119756912     IErMin= 3 ErrMin= 1.05D-02
 ErrMax= 1.05D-02  0.00D+00 EMaxC= 1.00D-01 BMatC= 1.29D-02 BMatP= 2.79D-02
 IDIUse=3 WtCom= 8.95D-01 WtEn= 1.05D-01
 Coeff-Com:  0.164D+00 0.410D+00 0.426D+00
 Coeff-En:   0.000D+00 0.000D+00 0.100D+01
 Coeff:      0.146D+00 0.367D+00 0.487D+00
 Gap=     0.251 Goal=   None    Shift=    0.000
 RMSDP=1.37D-03 MaxDP=3.36D-02 DE=-6.00D-02 OVMax= 6.04D-02

 Cycle   4  Pass 0  IDiag  1:
 E= -189.633945928936     Delta-E=       -0.007826172024 Rises=F Damp=F
 DIIS: error= 4.85D-03 at cycle   4 NSaved=   4.
 NSaved= 4 IEnMin= 4 EnMin= -189.633945928936     IErMin= 4 ErrMin= 4.85D-03
 ErrMax= 4.85D-03  0.00D+00 EMaxC= 1.00D-01 BMatC= 3.13D-03 BMatP= 1.29D-02
 IDIUse=3 WtCom= 9.52D-01 WtEn= 4.85D-02
 Coeff-Com:  0.174D-01 0.690D-01 0.331D+00 0.583D+00
 Coeff-En:   0.000D+00 0.000D+00 0.239D+00 0.761D+00
 Coeff:      0.166D-01 0.657D-01 0.326D+00 0.591D+00
 Gap=     0.253 Goal=   None    Shift=    0.000
 RMSDP=5.12D-04 MaxDP=1.31D-02 DE=-7.83D-03 OVMax= 2.08D-02

 Cycle   5  Pass 0  IDiag  1:
 E= -189.636233895498     Delta-E=       -0.002287966562 Rises=F Damp=F
 DIIS: error= 8.76D-04 at cycle   5 NSaved=   5.
 NSaved= 5 IEnMin= 5 EnMin= -189.636233895498     IErMin= 5 ErrMin= 8.76D-04
 ErrMax= 8.76D-04  0.00D+00 EMaxC= 1.00D-01 BMatC= 9.98D-05 BMatP= 3.13D-03
 IDIUse=3 WtCom= 9.91D-01 WtEn= 8.76D-03
 Coeff-Com: -0.483D-03 0.646D-02 0.132D+00 0.300D+00 0.562D+00
 Coeff-En:   0.000D+00 0.000D+00 0.000D+00 0.000D+00 0.100D+01
 Coeff:     -0.479D-03 0.640D-02 0.131D+00 0.297D+00 0.566D+00
 Gap=     0.254 Goal=   None    Shift=    0.000
 RMSDP=1.15D-04 MaxDP=3.22D-03 DE=-2.29D-03 OVMax= 3.32D-03

 Cycle   6  Pass 0  IDiag  1:
 E= -189.636325262328     Delta-E=       -0.000091366830 Rises=F Damp=F
 DIIS: error= 1.20D-04 at cycle   6 NSaved=   6.
 NSaved= 6 IEnMin= 6 EnMin= -189.636325262328     IErMin= 6 ErrMin= 1.20D-04
 ErrMax= 1.20D-04  0.00D+00 EMaxC= 1.00D-01 BMatC= 1.71D-06 BMatP= 9.98D-05
 IDIUse=3 WtCom= 9.99D-01 WtEn= 1.20D-03
 Coeff-Com: -0.639D-03-0.585D-03 0.361D-01 0.830D-01 0.205D+00 0.678D+00
 Coeff-En:   0.000D+00 0.000D+00 0.000D+00 0.000D+00 0.000D+00 0.100D+01
 Coeff:     -0.638D-03-0.585D-03 0.360D-01 0.829D-01 0.204D+00 0.678D+00
 Gap=     0.254 Goal=   None    Shift=    0.000
 RMSDP=1.61D-05 MaxDP=2.77D-04 DE=-9.14D-05 OVMax= 2.81D-04

 Cycle   7  Pass 0  IDiag  1:
 E= -189.636326678206     Delta-E=       -0.000001415878 Rises=F Damp=F
 DIIS: error= 1.38D-05 at cycle   7 NSaved=   7.
 NSaved= 7 IEnMin= 7 EnMin= -189.636326678206     IErMin= 7 ErrMin= 1.38D-05
 ErrMax= 1.38D-05  0.00D+00 EMaxC= 1.00D-01 BMatC= 1.87D-08 BMatP= 1.71D-06
 IDIUse=1 WtCom= 1.00D+00 WtEn= 0.00D+00
 Coeff-Com: -0.190D-04-0.297D-03 0.419D-02 0.875D-02 0.274D-01 0.123D+00
 Coeff-Com:  0.837D+00
 Coeff:     -0.190D-04-0.297D-03 0.419D-02 0.875D-02 0.274D-01 0.123D+00
 Coeff:      0.837D+00
 Gap=     0.254 Goal=   None    Shift=    0.000
 RMSDP=1.98D-06 MaxDP=2.70D-05 DE=-1.42D-06 OVMax= 4.09D-05

 Initial convergence to 1.0D-05 achieved.  Increase integral accuracy.
 Cycle   8  Pass 1  IDiag  1:
 E= -189.636327115703     Delta-E=       -0.000000437497 Rises=F Damp=F
 DIIS: error= 2.50D-06 at cycle   1 NSaved=   1.
 NSaved= 1 IEnMin= 1 EnMin= -189.636327115703     IErMin= 1 ErrMin= 2.50D-06
 ErrMax= 2.50D-06  0.00D+00 EMaxC= 1.00D-01 BMatC= 1.04D-09 BMatP= 1.04D-09
 IDIUse=1 WtCom= 1.00D+00 WtEn= 0.00D+00
 Coeff-Com:  0.100D+01
 Coeff:      0.100D+01
 Gap=     0.254 Goal=   None    Shift=    0.000
 RMSDP=1.98D-06 MaxDP=2.70D-05 DE=-4.37D-07 OVMax= 1.41D-05

 Cycle   9  Pass 1  IDiag  1:
 E= -189.636327116743     Delta-E=       -0.000000001040 Rises=F Damp=F
 DIIS: error= 1.63D-06 at cycle   2 NSaved=   2.
 NSaved= 2 IEnMin= 2 EnMin= -189.636327116743     IErMin= 2 ErrMin= 1.63D-06
 ErrMax= 1.63D-06  0.00D+00 EMaxC= 1.00D-01 BMatC= 2.65D-10 BMatP= 1.04D-09
 IDIUse=1 WtCom= 1.00D+00 WtEn= 0.00D+00
 Coeff-Com:  0.303D+00 0.697D+00
 Coeff:      0.303D+00 0.697D+00
 Gap=     0.254 Goal=   None    Shift=    0.000
 RMSDP=2.79D-07 MaxDP=7.03D-06 DE=-1.04D-09 OVMax= 6.22D-06

 Cycle  10  Pass 1  IDiag  1:
 E= -189.636327116911     Delta-E=       -0.000000000168 Rises=F Damp=F
 DIIS: error= 7.23D-07 at cycle   3 NSaved=   3.
 NSaved= 3 IEnMin= 3 EnMin= -189.636327116911     IErMin= 3 ErrMin= 7.23D-07
 ErrMax= 7.23D-07  0.00D+00 EMaxC= 1.00D-01 BMatC= 8.71D-11 BMatP= 2.65D-10
 IDIUse=1 WtCom= 1.00D+00 WtEn= 0.00D+00
 Coeff-Com:  0.944D-01 0.377D+00 0.529D+00
 Coeff:      0.944D-01 0.377D+00 0.529D+00
 Gap=     0.254 Goal=   None    Shift=    0.000
 RMSDP=1.28D-07 MaxDP=3.11D-06 DE=-1.68D-10 OVMax= 5.32D-06

 Cycle  11  Pass 1  IDiag  1:
 E= -189.636327116951     Delta-E=       -0.000000000040 Rises=F Damp=F
 DIIS: error= 5.79D-07 at cycle   4 NSaved=   4.
 NSaved= 4 IEnMin= 4 EnMin= -189.636327116951     IErMin= 4 ErrMin= 5.79D-07
 ErrMax= 5.79D-07  0.00D+00 EMaxC= 1.00D-01 BMatC= 4.05D-11 BMatP= 8.71D-11
 IDIUse=1 WtCom= 1.00D+00 WtEn= 0.00D+00
 Coeff-Com:  0.117D-02 0.130D+00 0.407D+00 0.462D+00
 Coeff:      0.117D-02 0.130D+00 0.407D+00 0.462D+00
 Gap=     0.254 Goal=   None    Shift=    0.000
 RMSDP=6.61D-08 MaxDP=1.58D-06 DE=-3.96D-11 OVMax= 2.61D-06

 Cycle  12  Pass 1  IDiag  1:
 E= -189.636327116982     Delta-E=       -0.000000000031 Rises=F Damp=F
 DIIS: error= 7.71D-08 at cycle   5 NSaved=   5.
 NSaved= 5 IEnMin= 5 EnMin= -189.636327116982     IErMin= 5 ErrMin= 7.71D-08
 ErrMax= 7.71D-08  0.00D+00 EMaxC= 1.00D-01 BMatC= 1.05D-12 BMatP= 4.05D-11
 IDIUse=1 WtCom= 1.00D+00 WtEn= 0.00D+00
 Coeff-Com: -0.535D-02 0.374D-01 0.157D+00 0.231D+00 0.580D+00
 Coeff:     -0.535D-02 0.374D-01 0.157D+00 0.231D+00 0.580D+00
 Gap=     0.254 Goal=   None    Shift=    0.000
 RMSDP=1.14D-08 MaxDP=2.01D-07 DE=-3.10D-11 OVMax= 3.63D-07

 Cycle  13  Pass 1  IDiag  1:
 E= -189.636327116982     Delta-E=        0.000000000000 Rises=F Damp=F
 DIIS: error= 1.52D-08 at cycle   6 NSaved=   6.
 NSaved= 6 IEnMin= 5 EnMin= -189.636327116982     IErMin= 6 ErrMin= 1.52D-08
 ErrMax= 1.52D-08  0.00D+00 EMaxC= 1.00D-01 BMatC= 3.30D-14 BMatP= 1.05D-12
 IDIUse=1 WtCom= 1.00D+00 WtEn= 0.00D+00
 Coeff-Com: -0.283D-02 0.157D-01 0.689D-01 0.105D+00 0.295D+00 0.518D+00
 Coeff:     -0.283D-02 0.157D-01 0.689D-01 0.105D+00 0.295D+00 0.518D+00
 Gap=     0.254 Goal=   None    Shift=    0.000
 RMSDP=1.93D-09 MaxDP=4.73D-08 DE= 3.41D-13 OVMax= 7.24D-08

 SCF Done:  E(RTPSSh) =  -189.636327117     A.U. after   13 cycles
            NFock= 13  Conv=0.19D-08     -V/T= 2.0078
 KE= 1.881734175741D+02 PE=-5.867719386890D+02 EE= 1.383880642811D+02
 Leave Link  502 at Mon Mar 21 20:00:49 2022, MaxMem=  8589934592 cpu:              11.9 elap:               1.5
 (Enter /home/sabyasachi/g16/l801.exe)
 DoSCS=F DFT=T ScalE2(SS,OS)=  1.000000  1.000000
 ExpMin= 6.71D-02 ExpMax= 2.27D+03 ExpMxC= 3.41D+02 IAcc=3 IRadAn=         5 AccDes= 0.00D+00
 HarFok:  IExCor=  205 AccDes= 0.00D+00 IRadAn=         5 IDoV=-2 UseB2=F ITyADJ=14
 ICtDFT= 12500011 ScaDFX=  1.000000  1.000000  1.000000  1.000000
 Largest valence mixing into a core orbital is  8.33D-05
 Largest core mixing into a valence orbital is  1.80D-05
 Range of M.O.s used for correlation:     4    82
 NBasis=    82 NAE=    12 NBE=    12 NFC=     3 NFV=     0
 NROrb=     79 NOA=     9 NOB=     9 NVA=    70 NVB=    70

 **** Warning!!: The largest alpha MO coefficient is  0.16460870D+02

 Leave Link  801 at Mon Mar 21 20:00:50 2022, MaxMem=  8589934592 cpu:               0.4 elap:               0.1
 (Enter /home/sabyasachi/g16/l914.exe)
 RHF ground state
 Keep R1, R2, and R3 ints in memory in symmetry-blocked form, NReq=426863128.
 FoFCou: FMM=F IPFlag=           0 FMFlag=           0 FMFlg1=           0
         NFxFlg=           0 DoJE=F BraDBF=F KetDBF=F FulRan=T
         wScrn=  0.000000 ICntrl=       600 IOpCl=  0 I1Cent=           0 NGrid=           0
         NMat0=    1 NMatS0=   3403 NMatT0=    0 NMatD0=    1 NMtDS0=    0 NMtDT0=    0
 Petite list used in FoFCou.
 MDV=  8589934592 DFT=T DoStab=F Mixed=T DoRPA=T DoScal=F NonHer=T
 Making orbital integer symmetry assigments:
 Orbital symmetries:
       Occupied  (A') (A') (A') (A') (A') (A') (A') (A') (A") (A')
                 (A") (A')
       Virtual   (A") (A') (A') (A') (A") (A') (A') (A') (A") (A')
                 (A") (A') (A') (A') (A") (A') (A') (A') (A') (A")
                 (A') (A") (A') (A') (A') (A") (A') (A') (A') (A")
                 (A") (A') (A') (A") (A') (A") (A') (A') (A') (A')
                 (A') (A") (A") (A') (A') (A") (A') (A') (A") (A')
                 (A') (A') (A") (A') (A') (A') (A") (A') (A') (A')
                 (A") (A') (A") (A") (A') (A") (A') (A') (A') (A')
   630 initial guesses have been made.
 Convergence on wavefunction:    0.001000000000000
 Davidson Disk Diagonalization:  ConvIn= 1.00D-03 SkipCon=T Conv= 1.00D-03.
 Max sub-space:  3780 roots to seek:  1260 dimension of matrix:         1260
 *** WARNING: Number of orthogonal guesses is          630
 Iteration     1 Dimension   630 NMult     0 NNew    630
 CISAX will form   630 AO SS matrices at one time.
 NMat=   630 NSing=   630 JSym2X=-1.
 New state      3 was old state      4
 New state      4 was old state      5
 New state      5 was old state      3
 New state      6 was old state      8
 New state      7 was old state      6
 New state      8 was old state      7
 New state     12 was old state     13
 New state     13 was old state     12
 New state     15 was old state     16
 New state     16 was old state     17
 New state     17 was old state     19
 New state     19 was old state     20
 New state     20 was old state     15
 New state     21 was old state     23
 New state     23 was old state     21
 New state     25 was old state     28
 New state     26 was old state     27
 New state     27 was old state     25
 New state     28 was old state     31
 New state     31 was old state     26
 New state     40 was old state     41
 New state     41 was old state     40
 New state     42 was old state     43
 New state     43 was old state     42
 New state     45 was old state     46
 New state     46 was old state     45
 New state     48 was old state     50
 New state     50 was old state     51
 New state     51 was old state     52
 New state     52 was old state     48
 New state     55 was old state     57
 New state     56 was old state     55
 New state     57 was old state     56
 New state     58 was old state     62
 New state     61 was old state     58
 New state     62 was old state     61
 New state     68 was old state     70
 New state     70 was old state     71
 New state     71 was old state     68
 New state     73 was old state     74
 New state     74 was old state     73
 New state     75 was old state     78
 New state     76 was old state     75
 New state     77 was old state     76
 New state     78 was old state     79
 New state     79 was old state     80
 New state     80 was old state     77
 New state     82 was old state     85
 New state     84 was old state     86
 New state     85 was old state     84
 New state     86 was old state     82
 New state     88 was old state     90
 New state     89 was old state     88
 New state     90 was old state     91
 New state     91 was old state     89
 New state     92 was old state     94
 New state     94 was old state     92
 New state     95 was old state     96
 New state     96 was old state     95
 New state     98 was old state    101
 New state     99 was old state     98
 New state    100 was old state     99
 New state    101 was old state    100
 New state    103 was old state    104
 New state    104 was old state    103
 New state    106 was old state    110
 New state    107 was old state    106
 New state    108 was old state    107
 New state    109 was old state    111
 New state    110 was old state    108
 New state    111 was old state    109
 New state    112 was old state    113
 New state    113 was old state    115
 New state    114 was old state    112
 New state    115 was old state    114
 New state    116 was old state    117
 New state    117 was old state    118
 New state    118 was old state    119
 New state    119 was old state    121
 New state    120 was old state    124
 New state    121 was old state    122
 New state    122 was old state    116
 New state    123 was old state    126
 New state    124 was old state    123
 New state    125 was old state    129
 New state    126 was old state    128
 New state    127 was old state    125
 New state    128 was old state    120
 New state    129 was old state    127
 New state    130 was old state    131
 New state    131 was old state    130
 New state    132 was old state    133
 New state    133 was old state    134
 New state    134 was old state    136
 New state    136 was old state    137
 New state    137 was old state    138
 New state    138 was old state    139
 New state    139 was old state    132
 New state    148 was old state    152
 New state    149 was old state    148
 New state    150 was old state    153
 New state    151 was old state    150
 New state    152 was old state    151
 New state    153 was old state    155
 New state    154 was old state    156
 New state    155 was old state    154
 New state    156 was old state    157
 New state    157 was old state    160
 New state    158 was old state    149
 New state    159 was old state    158
 New state    160 was old state    159
 New state    161 was old state    162
 New state    162 was old state    163
 New state    163 was old state    164
 New state    164 was old state    161
 New state    167 was old state    168
 New state    168 was old state    167
 New state    172 was old state    174
 New state    174 was old state    175
 New state    175 was old state    172
 New state    178 was old state    179
 New state    179 was old state    181
 New state    181 was old state    182
 New state    182 was old state    183
 New state    183 was old state    185
 New state    184 was old state    188
 New state    185 was old state    186
 New state    186 was old state    189
 New state    187 was old state    184
 New state    188 was old state    187
 New state    189 was old state    191
 New state    190 was old state    193
 New state    191 was old state    192
 New state    192 was old state    190
 New state    193 was old state    195
 New state    194 was old state    201
 New state    195 was old state    197
 New state    197 was old state    202
 New state    199 was old state    200
 New state    200 was old state    203
 New state    201 was old state    205
 New state    202 was old state    204
 New state    203 was old state    206
 New state    204 was old state    208
 New state    205 was old state    207
 New state    206 was old state    209
 New state    207 was old state    212
 New state    208 was old state    210
 New state    209 was old state    211
 New state    210 was old state    194
 New state    211 was old state    214
 New state    212 was old state    217
 New state    213 was old state    215
 New state    214 was old state    216
 New state    215 was old state    213
 New state    216 was old state    219
 New state    217 was old state    218
 New state    218 was old state    220
 New state    219 was old state    222
 New state    220 was old state    221
 New state    221 was old state    224
 New state    222 was old state    227
 New state    223 was old state    225
 New state    224 was old state    223
 New state    225 was old state    234
 New state    227 was old state    228
 New state    228 was old state    229
 New state    229 was old state    230
 New state    230 was old state    231
 New state    231 was old state    233
 New state    233 was old state    235
 New state    234 was old state    244
 New state    235 was old state    237
 New state    237 was old state    239
 New state    238 was old state    240
 New state    239 was old state    241
 New state    240 was old state    238
 New state    241 was old state    245
 New state    243 was old state    248
 New state    244 was old state    246
 New state    245 was old state    243
 New state    246 was old state    247
 New state    247 was old state    256
 New state    248 was old state    253
 New state    249 was old state    251
 New state    250 was old state    249
 New state    251 was old state    254
 New state    252 was old state    255
 New state    253 was old state    250
 No map to state    254
 New state    255 was old state    252
 No map to state    256
 New state    259 was old state    260
 New state    260 was old state    265
 New state    261 was old state    259
 New state    262 was old state    264
 New state    263 was old state    261
 New state    264 was old state    263
 New state    265 was old state    267
 New state    266 was old state    262
 New state    267 was old state    266
 New state    268 was old state    269
 New state    269 was old state    268
 New state    272 was old state    274
 New state    273 was old state    272
 New state    274 was old state    273
 New state    275 was old state    277
 New state    276 was old state    279
 New state    277 was old state    276
 New state    279 was old state    275
 New state    281 was old state    283
 New state    283 was old state    281
 New state    284 was old state    288
 New state    285 was old state    284
 New state    287 was old state    285
 New state    288 was old state    287
 New state    289 was old state    291
 New state    290 was old state    289
 New state    291 was old state    290
 New state    292 was old state    294
 New state    294 was old state    292
 New state    296 was old state    300
 New state    297 was old state    298
 New state    298 was old state    296
 New state    300 was old state    301
 New state    301 was old state    297
 New state    303 was old state    306
 New state    305 was old state    307
 New state    306 was old state    305
 New state    307 was old state    303
 New state    309 was old state    310
 New state    310 was old state    309
 New state    312 was old state    315
 New state    313 was old state    314
 New state    314 was old state    312
 New state    315 was old state    313
 New state    316 was old state    317
 New state    317 was old state    316
 New state    319 was old state    321
 New state    320 was old state    319
 New state    321 was old state    320
 New state    322 was old state    323
 New state    323 was old state    322
 New state    325 was old state    326
 New state    326 was old state    325
 New state    328 was old state    330
 New state    329 was old state    328
 New state    330 was old state    329
 New state    332 was old state    333
 New state    333 was old state    332
 New state    336 was old state    337
 New state    337 was old state    338
 New state    338 was old state    339
 New state    339 was old state    336
 New state    341 was old state    342
 New state    342 was old state    343
 New state    343 was old state    344
 New state    344 was old state    345
 New state    345 was old state    348
 New state    346 was old state    347
 New state    347 was old state    346
 New state    348 was old state    341
 New state    349 was old state    350
 New state    350 was old state    349
 New state    355 was old state    356
 New state    356 was old state    355
 New state    357 was old state    359
 New state    358 was old state    360
 New state    359 was old state    358
 New state    360 was old state    361
 New state    361 was old state    362
 New state    362 was old state    363
 New state    363 was old state    366
 New state    366 was old state    374
 New state    367 was old state    368
 New state    368 was old state    367
 New state    369 was old state    371
 New state    371 was old state    369
 New state    372 was old state    373
 New state    373 was old state    372
 New state    374 was old state    375
 New state    375 was old state    377
 New state    376 was old state    378
 New state    377 was old state    376
 New state    378 was old state    379
 New state    379 was old state    380
 New state    380 was old state    381
 New state    381 was old state    384
 New state    383 was old state    385
 New state    384 was old state    387
 New state    385 was old state    386
 New state    386 was old state    383
 New state    387 was old state    390
 New state    388 was old state    389
 New state    389 was old state    391
 New state    390 was old state    392
 New state    391 was old state    398
 New state    392 was old state    394
 New state    394 was old state    397
 New state    397 was old state    403
 New state    398 was old state    399
 New state    399 was old state    400
 New state    400 was old state    401
 New state    401 was old state    404
 New state    402 was old state    407
 New state    403 was old state    402
 New state    404 was old state    405
 New state    405 was old state    406
 New state    406 was old state    411
 New state    407 was old state    413
 New state    408 was old state    409
 New state    409 was old state    410
 New state    410 was old state    408
 New state    411 was old state    412
 New state    412 was old state    414
 New state    413 was old state    419
 New state    414 was old state    416
 New state    416 was old state    418
 New state    418 was old state    420
 New state    419 was old state    423
 New state    420 was old state    422
 New state    422 was old state    424
 New state    423 was old state    426
 No map to state    424
 New state    426 was old state    428
 New state    428 was old state    429
 New state    429 was old state    446
 New state    430 was old state    431
 New state    431 was old state    430
 New state    432 was old state    434
 New state    434 was old state    436
 New state    436 was old state    432
 New state    437 was old state    438
 New state    438 was old state    437
 New state    439 was old state    440
 New state    440 was old state    443
 New state    441 was old state    439
 New state    443 was old state    441
 New state    446 was old state    447
 New state    447 was old state    448
 New state    448 was old state    455
 New state    449 was old state    450
 New state    450 was old state    449
 New state    451 was old state    452
 New state    452 was old state    451
 New state    454 was old state    456
 New state    455 was old state    454
 New state    456 was old state    458
 New state    457 was old state    462
 New state    458 was old state    457
 New state    461 was old state    464
 New state    462 was old state    461
 New state    464 was old state    465
 New state    465 was old state    466
 New state    466 was old state    479
 New state    469 was old state    472
 New state    470 was old state    471
 New state    471 was old state    474
 New state    472 was old state    470
 New state    474 was old state    469
 New state    476 was old state    477
 New state    477 was old state    478
 New state    478 was old state    476
 New state    479 was old state    480
 New state    480 was old state    481
 New state    481 was old state    482
 New state    482 was old state    483
 New state    483 was old state    485
 New state    484 was old state    489
 New state    485 was old state    486
 New state    486 was old state    484
 New state    489 was old state    490
 No map to state    490
 New state    493 was old state    494
 New state    494 was old state    493
 New state    495 was old state    496
 New state    496 was old state    495
 New state    498 was old state    499
 New state    499 was old state    498
 New state    500 was old state    501
 New state    501 was old state    500
 New state    505 was old state    506
 New state    506 was old state    505
 New state    513 was old state    515
 New state    514 was old state    513
 New state    515 was old state    514
 New state    521 was old state    523
 New state    522 was old state    521
 New state    523 was old state    522
 New state    524 was old state    526
 New state    526 was old state    524
 New state    529 was old state    530
 New state    530 was old state    529
 New state    533 was old state    535
 New state    534 was old state    536
 New state    535 was old state    533
 New state    536 was old state    537
 New state    537 was old state    540
 New state    538 was old state    541
 New state    540 was old state    542
 New state    541 was old state    544
 New state    542 was old state    543
 New state    543 was old state    538
 New state    544 was old state    546
 New state    546 was old state    547
 New state    547 was old state    534
 New state    550 was old state    551
 New state    551 was old state    550
 New state    552 was old state    553
 New state    553 was old state    552
 New state    556 was old state    557
 New state    557 was old state    556
 New state    560 was old state    561
 New state    561 was old state    560
 New state    562 was old state    563
 New state    563 was old state    562
 New state    564 was old state    565
 New state    565 was old state    564
 New state    566 was old state    568
 New state    568 was old state    566
 New state    569 was old state    570
 New state    570 was old state    569
 New state    576 was old state    577
 New state    577 was old state    578
 New state    578 was old state    576
 New state    581 was old state    582
 New state    582 was old state    581
 New state    583 was old state    584
 New state    584 was old state    583
 New state    585 was old state    586
 New state    586 was old state    585
 New state    599 was old state    602
 New state    601 was old state    599
 New state    602 was old state    601
 New state    603 was old state    604
 New state    604 was old state    603
 New state    608 was old state    609
 New state    609 was old state    608
 New state    612 was old state    614
 New state    614 was old state    612
 Excitation Energies [eV] at current iteration:
 Root      1 :     5.955049656216516
 Root      2 :     7.504226612669957
 Root      3 :     8.258300636105487
 Root      4 :     8.572993356888666
 Root      5 :     8.719017668631080
 Root      6 :     9.209828138705715
 Root      7 :     9.454819210449369
 Root      8 :     9.524495986700868
 Root      9 :     9.542535793322426
 Root     10 :    10.266089155326520
 Root     11 :    10.548010397478230
 Root     12 :    10.660380845753990
 Root     13 :    10.669305941328680
 Root     14 :    10.826029246407530
 Root     15 :    10.976478827476380
 Root     16 :    11.155257294720720
 Root     17 :    11.346809102245190
 Root     18 :    11.382963624462850
 Root     19 :    11.546304923513840
 Root     20 :    11.759309856246610
 Root     21 :    11.783080377289430
 Root     22 :    11.859238398166560
 Root     23 :    11.865175008690180
 Root     24 :    12.160941648753230
 Root     25 :    12.353328795648250
 Root     26 :    12.441161209130540
 Root     27 :    12.479570126007870
 Root     28 :    12.611971015435970
 Root     29 :    12.623237195223770
 Root     30 :    12.656858587516220
 Root     31 :    12.741381646543640
 Root     32 :    12.976173973639270
 Root     33 :    13.064413525643220
 Root     34 :    13.406545481502100
 Root     35 :    13.530875267805660
 Root     36 :    13.699349210412720
 Root     37 :    13.776891291219060
 Root     38 :    13.832691414733920
 Root     39 :    13.894463173483390
 Root     40 :    14.038127047701130
 Root     41 :    14.100073891011730
 Root     42 :    14.120728777596780
 Root     43 :    14.190572955941050
 Root     44 :    14.259248171496900
 Root     45 :    14.644219711647730
 Root     46 :    14.662788201186650
 Root     47 :    14.740893080183300
 Root     48 :    14.786216462358510
 Root     49 :    14.812631388618330
 Root     50 :    14.978010340889960
 Root     51 :    15.069893324216840
 Root     52 :    15.110676657306870
 Root     53 :    15.126055303269840
 Root     54 :    15.456846590451760
 Root     55 :    15.530902081858090
 Root     56 :    15.575131823268720
 Root     57 :    15.581128807070040
 Root     58 :    15.729560127892120
 Root     59 :    15.781194901271660
 Root     60 :    15.808070719588030
 Root     61 :    15.813394606891450
 Root     62 :    15.905569971809760
 Root     63 :    15.980714176681920
 Root     64 :    16.131824538179830
 Root     65 :    16.258382724712870
 Root     66 :    16.283292296024970
 Root     67 :    16.405074774207080
 Root     68 :    16.416760005986330
 Root     69 :    16.517832140175850
 Root     70 :    16.607161509752570
 Root     71 :    16.707004172645860
 Root     72 :    16.817334557413700
 Root     73 :    16.931795306417520
 Root     74 :    16.964373701091930
 Root     75 :    17.053412963968150
 Root     76 :    17.110282805413040
 Root     77 :    17.163337403962380
 Root     78 :    17.321492362871340
 Root     79 :    17.342914323743720
 Root     80 :    17.377156890059610
 Root     81 :    17.479048382235780
 Root     82 :    17.623284845231270
 Root     83 :    17.654789336629950
 Root     84 :    17.717841356379950
 Root     85 :    17.861776699286280
 Root     86 :    17.874650802067820
 Root     87 :    17.903035276806430
 Root     88 :    18.137441370591950
 Root     89 :    18.147524692290550
 Root     90 :    18.172863015986970
 Root     91 :    18.233479955428770
 Root     92 :    18.336805140680860
 Root     93 :    18.450475221170910
 Root     94 :    18.587876073737570
 Root     95 :    18.651111804409580
 Root     96 :    18.837519422202510
 Root     97 :    19.024232739659250
 Root     98 :    19.176608266029990
 Root     99 :    19.192505356042810
 Root    100 :    19.250344487063330
 Root    101 :    19.411130664380810
 Root    102 :    19.421591193833010
 Root    103 :    19.601521170500680
 Root    104 :    19.647396269329140
 Root    105 :    19.664318399520880
 Root    106 :    19.749889984952480
 Root    107 :    19.909717738491410
 Root    108 :    19.957023484169850
 Root    109 :    20.035379694883020
 Root    110 :    20.059670899173040
 Root    111 :    20.084029211764220
 Root    112 :    20.110948654151840
 Root    113 :    20.364396929901260
 Root    114 :    20.396712687421270
 Root    115 :    20.433344501252770
 Root    116 :    20.781586763363070
 Root    117 :    20.821021406936250
 Root    118 :    20.843365594048570
 Root    119 :    20.951492494529100
 Root    120 :    20.995250155814220
 Root    121 :    21.014412978606520
 Root    122 :    21.128874883456450
 Root    123 :    21.156920697980900
 Root    124 :    21.177798218565530
 Root    125 :    21.330190294405540
 Root    126 :    21.332035441568280
 Root    127 :    21.351471363362510
 Root    128 :    21.414616921298870
 Root    129 :    21.521835025077060
 Root    130 :    21.571508458027200
 Root    131 :    21.729522582772460
 Root    132 :    21.757610155850530
 Root    133 :    21.866612206390540
 Root    134 :    21.966869321496920
 Root    135 :    22.068405885667840
 Root    136 :    22.162253742870970
 Root    137 :    22.174972116126480
 Root    138 :    22.228476918392130
 Root    139 :    22.270762604418780
 Root    140 :    22.276091943884660
 Root    141 :    22.462382296849370
 Root    142 :    22.528487070789200
 Root    143 :    22.611354823985970
 Root    144 :    22.829573171879650
 Root    145 :    22.899552442510530
 Root    146 :    22.989640276941260
 Root    147 :    23.084122944053290
 Root    148 :    23.141312696466260
 Root    149 :    23.193764869565070
 Root    150 :    23.242496405678600
 Root    151 :    23.328314672062250
 Root    152 :    23.434834368201600
 Root    153 :    23.542819772619690
 Root    154 :    23.568665592001600
 Root    155 :    23.656429511450450
 Root    156 :    23.875039072409100
 Root    157 :    24.019067966375090
 Root    158 :    24.099068004711490
 Root    159 :    24.151798886605030
 Root    160 :    24.257620817923380
 Root    161 :    24.261877649905310
 Root    162 :    24.325118511773750
 Root    163 :    24.485527495309440
 Root    164 :    24.498298305087590
 Root    165 :    24.499866762228560
 Root    166 :    24.730779097232030
 Root    167 :    24.793613888123330
 Root    168 :    24.841383631989180
 Root    169 :    24.898179938472030
 Root    170 :    24.974364759266940
 Root    171 :    25.170924817193390
 Root    172 :    25.255616830654690
 Root    173 :    25.356642558940670
 Root    174 :    25.376097722805490
 Root    175 :    25.428228993480020
 Root    176 :    25.445644349516030
 Root    177 :    25.487771604248520
 Root    178 :    25.667407958382360
 Root    179 :    25.681045839707580
 Root    180 :    25.763778282652920
 Root    181 :    25.967538596031600
 Root    182 :    26.006699460678990
 Root    183 :    26.060700704063840
 Root    184 :    26.085853126697800
 Root    185 :    26.122650879932750
 Root    186 :    26.246171124005450
 Root    187 :    26.248250019461630
 Root    188 :    26.405027851066090
 Root    189 :    26.497625841481880
 Root    190 :    26.522560907233700
 Root    191 :    26.636148147467730
 Root    192 :    26.674547598478600
 Root    193 :    26.815836891206220
 Root    194 :    26.861676731514130
 Root    195 :    26.937031150067740
 Root    196 :    26.975532918040560
 Root    197 :    27.052333626781290
 Root    198 :    27.106603477062360
 Root    199 :    27.146147461896080
 Root    200 :    27.264423728389610
 Root    201 :    27.343560069360810
 Root    202 :    27.352007024622000
 Root    203 :    27.429780719765980
 Root    204 :    27.431564508945260
 Root    205 :    27.484296044592220
 Root    206 :    27.644966515050830
 Root    207 :    27.699758625163300
 Root    208 :    27.887000833331560
 Root    209 :    27.939333872273180
 Root    210 :    27.986908291113890
 Root    211 :    28.046299825420730
 Root    212 :    28.356963762370000
 Root    213 :    28.406539833106740
 Root    214 :    28.411369107105380
 Root    215 :    28.500015965853560
 Root    216 :    28.558822981618850
 Root    217 :    28.586129604604740
 Root    218 :    28.705387210689430
 Root    219 :    28.832554096557920
 Root    220 :    28.900571223584990
 Root    221 :    28.941010340271440
 Root    222 :    29.200892966953810
 Root    223 :    29.205409892552310
 Root    224 :    29.262323865088240
 Root    225 :    29.310154907330140
 Root    226 :    29.311309055441730
 Root    227 :    29.387656697831810
 Root    228 :    29.573661023811700
 Root    229 :    29.618118567811950
 Root    230 :    29.654336979231920
 Root    231 :    29.774482390824260
 Root    232 :    29.840659833400200
 Root    233 :    29.891780751077520
 Root    234 :    30.073030511434910
 Root    235 :    30.280223716757780
 Root    236 :    30.344974356872040
 Root    237 :    30.420060731299820
 Root    238 :    30.470232816219810
 Root    239 :    30.512671481879560
 Root    240 :    30.545110351585780
 Root    241 :    30.670741605863740
 Root    242 :    30.689746487208850
 Root    243 :    30.775721789560240
 Root    244 :    30.849343439487850
 Root    245 :    30.944417487594320
 Root    246 :    31.042660328528230
 Root    247 :    31.213078116928250
 Root    248 :    31.397777991178140
 Root    249 :    31.421948747693090
 Root    250 :    31.466349045098030
 Root    251 :    31.556437211759280
 Root    252 :    31.584812400899160
 Root    253 :    31.643412795795090
 Root    254 :    31.661768788612310
 Root    255 :    31.689812801215930
 Root    256 :    31.759575272824570
 Root    257 :    31.834869605196840
 Root    258 :    32.140475311117890
 Root    259 :    32.217169919397390
 Root    260 :    32.283208622523930
 Root    261 :    32.383053428529580
 Root    262 :    32.385416684901860
 Root    263 :    32.496582126336980
 Root    264 :    32.613504508257890
 Root    265 :    32.635336889129210
 Root    266 :    32.691890816725840
 Root    267 :    32.841507358218880
 Root    268 :    33.073959877847340
 Root    269 :    33.190219556231120
 Root    270 :    33.324260037735930
 Root    271 :    33.560747345839080
 Root    272 :    33.616950352662490
 Root    273 :    33.656487784797500
 Root    274 :    34.071223806154040
 Root    275 :    34.357766027415410
 Root    276 :    34.421402599263020
 Root    277 :    34.466987941942030
 Root    278 :    34.592249744256210
 Root    279 :    34.640261905346080
 Root    280 :    34.807298195529830
 Root    281 :    34.816541880908450
 Root    282 :    35.112954828395060
 Root    283 :    35.156532870902830
 Root    284 :    35.422525543308940
 Root    285 :    35.488716604440940
 Root    286 :    35.501199870959600
 Root    287 :    35.519560957113150
 Root    288 :    35.566540407523920
 Root    289 :    35.765306159681260
 Root    290 :    36.076524471829720
 Root    291 :    36.141473163987830
 Root    292 :    36.264784319761740
 Root    293 :    36.361756990082390
 Root    294 :    36.419569857718850
 Root    295 :    36.449332445665580
 Root    296 :    36.558394009292680
 Root    297 :    36.679311474705450
 Root    298 :    36.725204553703140
 Root    299 :    36.881752285552810
 Root    300 :    36.935694175726010
 Root    301 :    36.964895137827310
 Root    302 :    37.193155384246750
 Root    303 :    37.482319658369330
 Root    304 :    37.807075522695830
 Root    305 :    37.939914205952360
 Root    306 :    37.957079448693950
 Root    307 :    38.208338621338850
 Root    308 :    38.568696049289770
 Root    309 :    38.660328771470550
 Root    310 :    38.865441781200260
 Root    311 :    38.897816021004820
 Root    312 :    39.018484730388270
 Root    313 :    39.103587835633350
 Root    314 :    39.179766875400940
 Root    315 :    39.404043676201840
 Root    316 :    39.769411962002960
 Root    317 :    39.954372465806840
 Root    318 :    40.011868120368180
 Root    319 :    40.270505926180190
 Root    320 :    40.290548365705920
 Root    321 :    40.446257881205550
 Root    322 :    40.773299801761370
 Root    323 :    41.191332338474060
 Root    324 :    41.299077507102100
 Root    325 :    41.434222910419330
 Root    326 :    41.440791682546040
 Root    327 :    41.566095599722220
 Root    328 :    41.665429725707820
 Root    329 :    41.841750000128530
 Root    330 :    41.886424302649690
 Root    331 :    42.178186076617020
 Root    332 :    42.216391489358830
 Root    333 :    42.391636088287590
 Root    334 :    42.730246758060280
 Root    335 :    42.760783598284090
 Root    336 :    42.997406589396330
 Root    337 :    43.246599855764400
 Root    338 :    43.348485035142510
 Root    339 :    43.699687923562000
 Root    340 :    43.865308166883080
 Root    341 :    44.031641646981110
 Root    342 :    44.150668228892310
 Root    343 :    44.169108630067530
 Root    344 :    44.252367850906720
 Root    345 :    44.288789504765380
 Root    346 :    44.371443209122320
 Root    347 :    44.437626692023110
 Root    348 :    44.660356239265230
 Root    349 :    44.992515121020640
 Root    350 :    45.012256393894420
 Root    351 :    45.109202396409590
 Root    352 :    45.434548368800130
 Root    353 :    45.449343221053070
 Root    354 :    45.646883788626860
 Root    355 :    45.757398263306120
 Root    356 :    45.875724832977110
 Root    357 :    46.024347101458710
 Root    358 :    46.414768505188030
 Root    359 :    46.508421840162180
 Root    360 :    46.676139380972970
 Root    361 :    46.690786332029290
 Root    362 :    46.866002494975340
 Root    363 :    47.152414231347230
 Root    364 :    47.355977755583090
 Root    365 :    47.410678520841790
 Root    366 :    47.514475532487860
 Root    367 :    47.637595582018460
 Root    368 :    47.909367783615440
 Root    369 :    48.148991246241230
 Root    370 :    48.259865533402450
 Root    371 :    48.312562652028280
 Root    372 :    49.077644889460020
 Root    373 :    49.249241241058090
 Root    374 :    49.469254602399860
 Root    375 :    49.865868332994110
 Root    376 :    49.916960060953480
 Root    377 :    50.194059855109480
 Root    378 :    50.371193403564010
 Root    379 :    50.670829067575810
 Root    380 :    50.790790972532190
 Root    381 :    50.967090388517000
 Root    382 :    51.048984669811300
 Root    383 :    51.344898061663630
 Root    384 :    51.346759154275600
 Root    385 :    51.427065555726590
 Root    386 :    51.860227335377660
 Root    387 :    52.013489899178640
 Root    388 :    52.430597541677630
 Root    389 :    52.606763396054620
 Root    390 :    52.839868489905580
 Root    391 :    53.003982091513120
 Root    392 :    53.284443263060710
 Root    393 :    53.365979951133300
 Root    394 :    53.410947848771420
 Root    395 :    53.426534058467690
 Root    396 :    53.685944478200770
 Root    397 :    54.221271687736350
 Root    398 :    54.274255161730960
 Root    399 :    54.650715267742000
 Root    400 :    54.761274067438040
 Root    401 :    54.840251553464120
 Root    402 :    55.013348297753360
 Root    403 :    55.050806187372660
 Root    404 :    55.063561494263330
 Root    405 :    55.238631642735900
 Root    406 :    55.319139223729530
 Root    407 :    55.767253319627760
 Root    408 :    55.822763979437730
 Root    409 :    55.950848675154730
 Root    410 :    56.173175093317460
 Root    411 :    56.290644459309530
 Root    412 :    56.368247010143890
 Root    413 :    56.389750467509480
 Root    414 :    56.636731590392900
 Root    415 :    56.719385505355410
 Root    416 :    57.145398920951020
 Root    417 :    57.399750106344200
 Root    418 :    57.692095904464820
 Root    419 :    57.727707661130810
 Root    420 :    57.858710607424010
 Root    421 :    57.871632607794450
 Root    422 :    58.049203156483000
 Root    423 :    58.307457647079380
 Root    424 :    58.382134757731830
 Root    425 :    58.719065089000680
 Root    426 :    58.892985799504840
 Root    427 :    59.239611982258010
 Root    428 :    59.292394876872200
 Root    429 :    59.417667675593490
 Root    430 :    59.447793088229810
 Root    431 :    59.737627508707570
 Root    432 :    59.943735661918720
 Root    433 :    59.981563773173780
 Root    434 :    60.209344681509120
 Root    435 :    60.238837579787410
 Root    436 :    60.411956941855050
 Root    437 :    60.792461911467510
 Root    438 :    60.829740684065070
 Root    439 :    60.942999387438570
 Root    440 :    61.031994915095740
 Root    441 :    61.148720833113690
 Root    442 :    61.164345277209730
 Root    443 :    61.234970181925570
 Root    444 :    61.357807537648650
 Root    445 :    61.460080422275860
 Root    446 :    62.125514838856720
 Root    447 :    62.477483513209590
 Root    448 :    62.618873568861960
 Root    449 :    62.874297943183070
 Root    450 :    63.159126706534440
 Root    451 :    63.245381248194740
 Root    452 :    63.411075082022340
 Root    453 :    63.498622046428580
 Root    454 :    63.532339632918440
 Root    455 :    63.670089283507210
 Root    456 :    63.944719259556390
 Root    457 :    64.026905005198190
 Root    458 :    64.051049848515820
 Root    459 :    64.323352343257680
 Root    460 :    64.803008767212990
 Root    461 :    64.900000565174810
 Root    462 :    64.910644044411340
 Root    463 :    65.042848207211880
 Root    464 :    65.251541220605110
 Root    465 :    65.410428125698290
 Root    466 :    65.666191674627810
 Root    467 :    65.933778533175770
 Root    468 :    66.156694452306170
 Root    469 :    66.747934658283240
 Root    470 :    66.756000931237170
 Root    471 :    66.846923938335650
 Root    472 :    66.931220740899850
 Root    473 :    67.009357281720070
 Root    474 :    67.176466160610700
 Root    475 :    67.786877573023090
 Root    476 :    67.857859567443630
 Root    477 :    68.118344873213270
 Root    478 :    68.165661650059460
 Root    479 :    68.227702603449810
 Root    480 :    68.389066873136700
 Root    481 :    68.880410285143100
 Root    482 :    69.072396035472370
 Root    483 :    69.141463210685030
 Root    484 :    69.220621985618120
 Root    485 :    69.263775728230530
 Root    486 :    69.318014488740520
 Root    487 :    69.493630855707990
 Root    488 :    70.001032150651240
 Root    489 :    70.070907267256540
 Root    490 :    70.175322428361300
 Root    491 :    71.067631641381110
 Root    492 :    71.601408203680410
 Root    493 :    72.108124075726740
 Root    494 :    72.172709325545000
 Root    495 :    72.344976900847610
 Root    496 :    72.523713104863970
 Root    497 :    73.385574581094550
 Root    498 :    73.561969874945080
 Root    499 :    73.992928786410890
 Root    500 :    74.192278785927510
 Root    501 :    74.419077357119180
 Root    502 :    74.483135107313870
 Root    503 :    74.518029359269510
 Root    504 :    75.029636034255050
 Root    505 :    75.561516877733990
 Root    506 :    75.676880245964630
 Root    507 :    76.682668561688050
 Root    508 :    76.695329976979780
 Root    509 :    77.462016079213940
 Root    510 :    77.680230192996150
 Root    511 :    77.905323480064690
 Root    512 :    77.914019055587690
 Root    513 :    78.649374660266350
 Root    514 :    78.722870949187780
 Root    515 :    79.035780820818150
 Root    516 :    79.652017920966640
 Root    517 :    79.800222740093590
 Root    518 :    80.036950407271820
 Root    519 :    80.594548450368680
 Root    520 :    81.064666683503590
 Root    521 :    81.896329996039900
 Root    522 :    82.011538037431980
 Root    523 :    82.390008345491150
 Root    524 :    83.316301966735130
 Root    525 :    83.555986649493530
 Root    526 :    83.559809242982720
 Root    527 :    83.815202749089480
 Root    528 :    84.057185749281590
 Root    529 :    84.326778821331830
 Root    530 :    84.666514111607540
 Root    531 :    85.389549042471090
 Root    532 :    85.814190259412950
 Root    533 :    85.890671036052230
 Root    534 :    85.895151096631010
 Root    535 :    85.969626477884600
 Root    536 :    86.679544346207730
 Root    537 :    86.855638023806520
 Root    538 :    87.059583930619140
 Root    539 :    87.205026957212740
 Root    540 :    87.872997375170580
 Root    541 :    87.884591743962130
 Root    542 :    88.192595576057510
 Root    543 :    88.242499177911680
 Root    544 :    88.425613510874170
 Root    545 :    89.001032689182840
 Root    546 :    89.332939338046500
 Root    547 :    89.670400256864060
 Root    548 :    89.906255498193810
 Root    549 :    90.136830301740250
 Root    550 :    90.373271096639170
 Root    551 :    90.809496483154720
 Root    552 :    90.875266448601110
 Root    553 :    90.935284488483020
 Root    554 :    91.634403835187630
 Root    555 :    91.892219669427580
 Root    556 :    92.206461157525400
 Root    557 :    92.466919924547470
 Root    558 :    92.750074855008520
 Root    559 :    93.029656244942290
 Root    560 :    93.075810221925380
 Root    561 :    93.306393194770380
 Root    562 :    93.412329974009410
 Root    563 :    93.665940882896140
 Root    564 :    94.090744321875320
 Root    565 :    94.618724778505170
 Root    566 :    95.789544425486780
 Root    567 :    95.960505571533370
 Root    568 :    96.478102221672940
 Root    569 :    96.569400187308050
 Root    570 :    96.715728704733380
 Root    571 :    96.814920237736910
 Root    572 :    97.068663869992920
 Root    573 :    97.593618885754540
 Root    574 :    98.076925529563940
 Root    575 :    98.395098498426170
 Root    576 :    98.821144766695670
 Root    577 :    99.016711997157050
 Root    578 :    99.574082360075590
 Root    579 :   100.262486302377300
 Root    580 :   100.525696326992300
 Root    581 :   100.717211672517500
 Root    582 :   100.817688397961600
 Root    583 :   102.339544587711300
 Root    584 :   102.456939827398700
 Root    585 :   102.704736399253200
 Root    586 :   102.941718551519000
 Root    587 :   103.239737133951200
 Root    588 :   103.924591886180200
 Root    589 :   104.825277189670700
 Root    590 :   104.868453666541100
 Root    591 :   105.311541688194400
 Root    592 :   105.585154238514800
 Root    593 :   105.932461095402500
 Root    594 :   106.781194960156000
 Root    595 :   107.051979814021400
 Root    596 :   107.306625828854800
 Root    597 :   107.880528174515400
 Root    598 :   108.054204706959600
 Root    599 :   108.968947643405500
 Root    600 :   108.970677315372600
 Root    601 :   109.196276466950600
 Root    602 :   109.307188658495900
 Root    603 :   110.529646898923000
 Root    604 :   110.604018429887100
 Root    605 :   110.861309258042800
 Root    606 :   112.298588977510300
 Root    607 :   112.971222718684800
 Root    608 :   113.635801129738200
 Root    609 :   114.018696968628200
 Root    610 :   114.234154122120200
 Root    611 :   114.590153421178300
 Root    612 :   114.669666576390000
 Root    613 :   114.769668513156200
 Root    614 :   115.373551804547600
 Root    615 :   115.649423206711200
 Root    616 :   116.613663804244300
 Root    617 :   117.014118066872200
 Root    618 :   117.183585707099500
 Root    619 :   117.996227915771000
 Root    620 :   119.209662424756800
 Root    621 :   119.410769008057500
 Root    622 :   119.672794004983500
 Root    623 :   120.040645093523800
 Root    624 :   123.567249262146700
 Root    625 :   124.369531840882600
 Root    626 :   126.681326271009800
 Root    627 :   128.999169276980000
 Root    628 :   131.511816190397000
 Root    629 :   133.352274387812100
 Root    630 :   135.586984264111300
 Convergence achieved for final wavefunctions.
 ***********************************************************************
 Excited states from <AA,BB:AA,BB> singles matrix:
 ***********************************************************************
 
 1PDM for each excited state written to RWF  633
 Ground to excited state transition densities written to RWF  633
 Ground to excited state transition electric dipole moments (Au):
       state          X           Y           Z        Dip. S.      Osc.
         1        -0.0000      0.0000      0.0710      0.0050      0.0007
         2        -0.0412     -0.4236      0.0000      0.1812      0.0333
         3        -0.3430      0.3782      0.0000      0.2607      0.0527
         4         0.0000      0.0000     -0.1213      0.0147      0.0031
         5        -0.9214     -0.4437     -0.0000      1.0457      0.2234
         6         0.0000     -0.0000     -0.0134      0.0002      0.0000
         7         0.0000      0.0000      0.0484      0.0023      0.0005
         8         0.5051     -0.2594     -0.0000      0.3225      0.0752
         9         0.0000      0.0000      0.2540      0.0645      0.0151
        10         0.1626      0.1876     -0.0000      0.0616      0.0155
        11        -0.2382      0.3894     -0.0000      0.2084      0.0539
        12         0.0000      0.0000      0.3376      0.1140      0.0298
        13        -0.0572     -0.1948      0.0000      0.0412      0.0108
        14         0.1511      0.0531      0.0000      0.0257      0.0068
        15         0.1134     -0.0185      0.0000      0.0132      0.0035
        16        -0.0000     -0.0000     -0.1266      0.0160      0.0044
        17        -0.0000      0.0000      0.0218      0.0005      0.0001
        18        -0.0257     -0.5277      0.0000      0.2791      0.0778
        19        -0.0000     -0.0000      0.1291      0.0167      0.0047
        20         0.3403     -0.3793      0.0000      0.2597      0.0748
        21         0.0000     -0.0000     -0.2640      0.0697      0.0201
        22         0.4033      0.1549      0.0000      0.1867      0.0542
        23         0.0000      0.0000     -0.2828      0.0800      0.0233
        24        -0.0000     -0.0000     -0.0558      0.0031      0.0009
        25         0.0000     -0.0000     -0.2464      0.0607      0.0184
        26        -0.0000      0.0000      0.0003      0.0000      0.0000
        27        -0.0851      0.0249     -0.0000      0.0079      0.0024
        28        -0.1479     -0.1145     -0.0000      0.0350      0.0108
        29         0.0000      0.0000     -0.1216      0.0148      0.0046
        30        -0.0000     -0.0000     -0.2569      0.0660      0.0205
        31        -0.2921      0.0794      0.0000      0.0916      0.0286
        32         0.1657     -0.3650     -0.0000      0.1607      0.0511
        33        -0.0000     -0.0000     -0.0143      0.0002      0.0001
        34         0.4078      0.0905      0.0000      0.1745      0.0573
        35         0.2202     -0.0749      0.0000      0.0541      0.0179
        36         0.2316      0.0174      0.0000      0.0540      0.0181
        37         0.0462      0.4743     -0.0000      0.2271      0.0767
        38         0.0656     -0.1791      0.0000      0.0364      0.0123
        39        -0.0000      0.0000     -0.2483      0.0616      0.0210
        40         0.4499     -0.2177     -0.0000      0.2498      0.0859
        41         0.0943      0.3323     -0.0000      0.1193      0.0412
        42        -0.0000     -0.0000      0.0990      0.0098      0.0034
        43        -0.0033      0.0100      0.0000      0.0001      0.0000
        44        -0.0000      0.0000     -0.2807      0.0788      0.0275
        45         0.0000     -0.0000      0.2347      0.0551      0.0198
        46         0.3684     -0.4778     -0.0000      0.3640      0.1308
        47        -0.3804     -0.1628     -0.0000      0.1712      0.0618
        48         0.0000      0.0000      0.0445      0.0020      0.0007
        49        -0.0000      0.0000     -0.1679      0.0282      0.0102
        50         0.0770     -0.1951     -0.0000      0.0440      0.0161
        51        -0.0000     -0.0000     -0.2480      0.0615      0.0227
        52         0.4889      0.1061     -0.0000      0.2503      0.0927
        53        -0.0000     -0.0000      0.2057      0.0423      0.0157
        54         0.0000     -0.0000     -0.3779      0.1428      0.0541
        55         0.0000      0.0000     -0.0699      0.0049      0.0019
        56         0.1769     -0.0587     -0.0000      0.0347      0.0133
        57        -0.1911     -0.0101      0.0000      0.0366      0.0140
        58        -0.0000     -0.0000     -0.2323      0.0539      0.0208
        59        -0.1715     -0.0510     -0.0000      0.0320      0.0124
        60         0.0000     -0.0000     -0.2973      0.0884      0.0342
        61        -0.1085     -0.1392      0.0000      0.0312      0.0121
        62         0.2278      0.0680      0.0000      0.0565      0.0220
        63         0.0894      0.1137      0.0000      0.0209      0.0082
        64        -0.2470      0.3421     -0.0000      0.1780      0.0704
        65         0.2264     -0.0983     -0.0000      0.0609      0.0243
        66         0.0000      0.0000     -0.0055      0.0000      0.0000
        67         0.0000      0.0000     -0.0688      0.0047      0.0019
        68        -0.1214      0.1062     -0.0000      0.0260      0.0105
        69        -0.0817     -0.1701      0.0000      0.0356      0.0144
        70        -0.1300     -0.2767      0.0000      0.0935      0.0380
        71        -0.0000     -0.0000     -0.3616      0.1308      0.0535
        72         0.0000      0.0000      0.2470      0.0610      0.0251
        73         0.2314     -0.0215      0.0000      0.0540      0.0224
        74         0.0753     -0.0017      0.0000      0.0057      0.0024
        75         0.0000      0.0000     -0.5965      0.3558      0.1487
        76        -0.0333      0.1479     -0.0000      0.0230      0.0096
        77         0.1372      0.4787      0.0000      0.2480      0.1043
        78        -0.1965      0.3253      0.0000      0.1444      0.0613
        79        -0.0000     -0.0000      0.2114      0.0447      0.0190
        80        -0.2270      0.0414     -0.0000      0.0532      0.0227
        81         0.0000      0.0000      0.0417      0.0017      0.0007
        82        -0.1839     -0.4611      0.0000      0.2464      0.1064
        83        -0.0000     -0.0000      0.0218      0.0005      0.0002
        84        -0.0000     -0.0000      0.0170      0.0003      0.0001
        85         0.0000     -0.0000     -0.2437      0.0594      0.0260
        86         0.1726     -0.2617     -0.0000      0.0983      0.0430
        87         0.0000      0.0000     -0.5492      0.3016      0.1323
        88        -0.0000      0.0000      0.0032      0.0000      0.0000
        89         0.0044     -0.0896     -0.0000      0.0081      0.0036
        90         0.0325     -0.1045      0.0000      0.0120      0.0053
        91         0.0452     -0.3775     -0.0000      0.1446      0.0646
        92         0.0000      0.0000      0.2048      0.0419      0.0188
        93         0.3509      0.3193     -0.0000      0.2251      0.1018
        94        -0.0853     -0.1679      0.0000      0.0355      0.0162
        95         0.0000      0.0000     -0.3107      0.0965      0.0441
        96         0.4030     -0.0100     -0.0000      0.1625      0.0750
        97        -0.0000     -0.0000      0.2485      0.0617      0.0288
        98         0.0000      0.0000     -0.1570      0.0246      0.0116
        99        -0.1357      0.0181     -0.0000      0.0187      0.0088
       100        -0.0008      0.1490      0.0000      0.0222      0.0105
       101        -0.3222     -0.4367      0.0000      0.2946      0.1401
       102         0.0000     -0.0000     -0.1713      0.0294      0.0140
       103         0.0034     -0.0751      0.0000      0.0057      0.0027
       104        -0.0688      0.0774     -0.0000      0.0107      0.0052
       105        -0.0000     -0.0000      0.0886      0.0078      0.0038
       106         0.2560     -0.0002      0.0000      0.0656      0.0317
       107        -0.3320     -0.2307      0.0000      0.1634      0.0797
       108         0.3737      0.0885      0.0000      0.1475      0.0721
       109        -0.0952     -0.1464     -0.0000      0.0305      0.0150
       110        -0.0000      0.0000      0.1852      0.0343      0.0169
       111         0.0000     -0.0000      0.1225      0.0150      0.0074
       112        -0.0000     -0.0000      0.0520      0.0027      0.0013
       113        -0.3306      0.0763     -0.0000      0.1151      0.0574
       114         0.3306      0.5139      0.0000      0.3734      0.1866
       115         0.0260     -0.3661      0.0000      0.1347      0.0674
       116         0.0765      0.2516     -0.0000      0.0692      0.0352
       117         0.1248     -0.1622      0.0000      0.0419      0.0214
       118        -0.0000     -0.0000     -0.1428      0.0204      0.0104
       119         0.0000      0.0000      0.1576      0.0248      0.0127
       120         0.2034     -0.1038     -0.0000      0.0522      0.0268
       121        -0.0000      0.0000     -0.2330      0.0543      0.0280
       122         0.2750     -0.2237      0.0000      0.1256      0.0650
       123        -0.0000     -0.0000     -0.1337      0.0179      0.0093
       124         0.0419      0.0383      0.0000      0.0032      0.0017
       125         0.0155     -0.0853     -0.0000      0.0075      0.0039
       126         0.0000     -0.0000      0.1341      0.0180      0.0094
       127        -0.0000      0.0000     -0.0361      0.0013      0.0007
       128        -0.5080     -0.1925      0.0000      0.2952      0.1549
       129         0.0866     -0.2059      0.0000      0.0499      0.0263
       130         0.0000     -0.0000      0.0408      0.0017      0.0009
       131        -0.0186     -0.0430     -0.0000      0.0022      0.0012
       132         0.0000     -0.0000     -0.1185      0.0140      0.0075
       133         0.0358     -0.1211      0.0000      0.0160      0.0085
       134        -0.0681     -0.0377     -0.0000      0.0061      0.0033
       135         0.0245     -0.1063      0.0000      0.0119      0.0064
       136        -0.0223      0.0833     -0.0000      0.0074      0.0040
       137        -0.0000     -0.0000     -0.0697      0.0049      0.0026
       138         0.0000      0.0000     -0.0381      0.0015      0.0008
       139        -0.2585      0.3343      0.0000      0.1786      0.0974
       140        -0.0000     -0.0000     -0.0028      0.0000      0.0000
       141        -0.0251     -0.2982     -0.0000      0.0895      0.0493
       142        -0.0000     -0.0000     -0.2461      0.0606      0.0334
       143         0.0000      0.0000      0.2237      0.0500      0.0277
       144         0.1789     -0.2178      0.0000      0.0794      0.0444
       145         0.0103     -0.2076      0.0000      0.0432      0.0242
       146         0.3061     -0.0527     -0.0000      0.0965      0.0543
       147        -0.2573     -0.3746      0.0000      0.2065      0.1168
       148        -0.0000     -0.0000     -0.0287      0.0008      0.0005
       149         0.0471     -0.0095      0.0000      0.0023      0.0013
       150        -0.0000     -0.0000      0.0732      0.0054      0.0030
       151        -0.0009     -0.0700     -0.0000      0.0049      0.0028
       152         0.0000      0.0000     -0.4353      0.1895      0.1088
       153        -0.2402      0.0830      0.0000      0.0646      0.0373
       154        -0.0000      0.0000      0.3582      0.1283      0.0741
       155        -0.0158      0.0699      0.0000      0.0051      0.0030
       156         0.1891      0.1807      0.0000      0.0684      0.0400
       157         0.0000      0.0000      0.0637      0.0041      0.0024
       158        -0.4254     -0.1404      0.0000      0.2007      0.1185
       159        -0.3421      0.3978      0.0000      0.2752      0.1629
       160        -0.3050      0.1155     -0.0000      0.1064      0.0632
       161        -0.0000      0.0000     -0.0214      0.0005      0.0003
       162        -0.0000      0.0000     -0.1654      0.0273      0.0163
       163         0.3910      0.0633      0.0000      0.1569      0.0941
       164        -0.0000     -0.0000      0.4770      0.2275      0.1365
       165         0.1484     -0.0759     -0.0000      0.0278      0.0167
       166         0.0605     -0.4935     -0.0000      0.2472      0.1498
       167        -0.0000     -0.0000     -0.2021      0.0408      0.0248
       168         0.3081      0.0542     -0.0000      0.0979      0.0596
       169        -0.0000     -0.0000      0.1784      0.0318      0.0194
       170        -0.0000     -0.0000     -0.0943      0.0089      0.0054
       171         0.3238     -0.0486      0.0000      0.1072      0.0661
       172        -0.0000     -0.0000      0.0594      0.0035      0.0022
       173         0.4779      0.5143      0.0000      0.4929      0.3062
       174        -0.0000      0.0000     -0.1012      0.0103      0.0064
       175        -0.1888     -0.0573      0.0000      0.0389      0.0243
       176         0.0000      0.0000      0.1672      0.0279      0.0174
       177         0.4939     -0.2244     -0.0000      0.2943      0.1838
       178         0.0000     -0.0000      0.3483      0.1213      0.0763
       179         0.0472      0.0382      0.0000      0.0037      0.0023
       180         0.2094      0.0551      0.0000      0.0469      0.0296
[...]
     12   0.000000D+00  0.502837D+00  0.000000D+00  0.324638D+00  0.000000D+00
     13   0.000000D+00  0.624962D-01  0.000000D+00 -0.109378D+00  0.000000D+00
     14   0.000000D+00  0.168498D+01  0.000000D+00 -0.322438D+00  0.000000D+00
     15  -0.227366D+00  0.000000D+00 -0.138784D+01  0.000000D+00 -0.567159D+00
     16  -0.279644D+00  0.000000D+00 -0.152052D+00  0.000000D+00  0.233238D+00
               561           562           563           564           565 
      1  -0.186207D+03 -0.186203D+03 -0.186194D+03 -0.186179D+03 -0.186159D+03
      2   0.000000D+00  0.000000D+00  0.000000D+00  0.000000D+00  0.353232D-01
      3   0.000000D+00  0.000000D+00  0.000000D+00  0.000000D+00  0.100169D+00
      4   0.505110D-02 -0.117406D+00  0.142464D+00  0.139292D-01  0.000000D+00
      5   0.000000D+00  0.000000D+00  0.000000D+00  0.000000D+00 -0.127210D+00
      6   0.000000D+00  0.000000D+00  0.000000D+00  0.000000D+00 -0.288651D+00
      7  -0.169297D-01  0.323841D+00 -0.421957D+00 -0.568991D-01  0.000000D+00
      8   0.220284D-01  0.322558D-01  0.451502D+00 -0.130238D+00  0.000000D+00
      9   0.224347D+00 -0.432976D+00 -0.111869D+01  0.659285D+00  0.000000D+00
     10   0.000000D+00  0.000000D+00  0.000000D+00  0.000000D+00  0.186935D+00
     11   0.000000D+00  0.000000D+00  0.000000D+00  0.000000D+00 -0.199791D+01
     12   0.000000D+00  0.000000D+00  0.000000D+00  0.000000D+00  0.137454D+00
     13   0.000000D+00  0.000000D+00  0.000000D+00  0.000000D+00  0.208609D+00
     14   0.000000D+00  0.000000D+00  0.000000D+00  0.000000D+00 -0.674817D-01
     15  -0.205144D+00  0.401532D+00  0.143792D+01 -0.795776D+00  0.000000D+00
     16   0.996891D-02 -0.121823D+00  0.358256D+00 -0.239258D+00  0.000000D+00
               566           567           568           569           570 
      1  -0.186116D+03 -0.186110D+03 -0.186091D+03 -0.186087D+03 -0.186082D+03
      2   0.236054D-03  0.896720D-01 -0.956408D-01  0.000000D+00  0.133556D+00
      3   0.508531D-01 -0.252094D-01  0.214739D+00  0.000000D+00 -0.127423D+00
      4   0.000000D+00  0.000000D+00  0.000000D+00  0.495300D-01  0.000000D+00
      5  -0.229921D-01 -0.302798D+00  0.293301D+00  0.000000D+00 -0.427677D+00
      6  -0.134444D+00  0.111940D+00 -0.639862D+00  0.000000D+00  0.395797D+00
      7   0.000000D+00  0.000000D+00  0.000000D+00 -0.149504D+00  0.000000D+00
      8   0.000000D+00  0.000000D+00  0.000000D+00  0.253243D-01  0.000000D+00
      9   0.000000D+00  0.000000D+00  0.000000D+00 -0.645850D-01  0.000000D+00
     10  -0.633935D-01  0.123215D+00 -0.320049D+00  0.000000D+00 -0.455339D-01
     11  -0.246721D+01 -0.215149D+01 -0.153097D+01  0.000000D+00  0.191569D+00
     12  -0.844362D-01 -0.227797D+00  0.419343D+00  0.000000D+00 -0.106673D+00
     13   0.129490D+00 -0.130228D-01  0.374212D-01  0.000000D+00  0.198353D+00
     14  -0.685856D+00 -0.508352D+00 -0.866870D+00  0.000000D+00  0.399779D+00
     15   0.000000D+00  0.000000D+00  0.000000D+00  0.129327D+00  0.000000D+00
     16   0.000000D+00  0.000000D+00  0.000000D+00 -0.228908D-01  0.000000D+00
               571           572           573           574           575 
      1  -0.186078D+03 -0.186069D+03 -0.186050D+03 -0.186032D+03 -0.186020D+03
      2   0.000000D+00  0.000000D+00  0.112027D+00  0.000000D+00  0.206335D+00
      3   0.000000D+00  0.000000D+00  0.621372D-02  0.000000D+00  0.118733D+00
      4   0.280958D-01 -0.896274D-01  0.000000D+00 -0.186036D+00  0.000000D+00
      5   0.000000D+00  0.000000D+00 -0.354975D+00  0.000000D+00 -0.639731D+00
      6   0.000000D+00  0.000000D+00 -0.202779D-01  0.000000D+00 -0.386339D+00
      7  -0.844722D-01  0.255301D+00  0.000000D+00  0.552744D+00  0.000000D+00
      8   0.473012D-01 -0.100914D+00  0.000000D+00  0.692127D-01  0.000000D+00
      9  -0.202451D+00  0.301985D+00  0.000000D+00 -0.117365D+01  0.000000D+00
     10   0.000000D+00  0.000000D+00  0.127693D+00  0.000000D+00 -0.118843D+01
     11   0.000000D+00  0.000000D+00 -0.730509D+00  0.000000D+00  0.164870D+01
     12   0.000000D+00  0.000000D+00  0.757321D-01  0.000000D+00 -0.848079D-01
     13   0.000000D+00  0.000000D+00  0.182239D-01  0.000000D+00 -0.112924D+00
     14   0.000000D+00  0.000000D+00  0.551419D+00  0.000000D+00 -0.913498D+00
     15   0.227508D+00 -0.382137D+00  0.000000D+00  0.159889D+01  0.000000D+00
     16  -0.298808D-01 -0.153416D-01  0.000000D+00 -0.126800D+00  0.000000D+00
               576           577           578           579           580 
      1  -0.186005D+03 -0.185998D+03 -0.185977D+03 -0.185952D+03 -0.185942D+03
      2   0.892309D-01 -0.193693D+00  0.000000D+00  0.000000D+00  0.101135D+00
      3  -0.121702D+00  0.187218D-01  0.000000D+00  0.000000D+00  0.689085D-01
      4   0.000000D+00  0.000000D+00 -0.237053D+00 -0.159999D+00  0.000000D+00
      5  -0.285323D+00  0.634577D+00  0.000000D+00  0.000000D+00 -0.333036D+00
      6   0.415467D+00 -0.583170D-01  0.000000D+00  0.000000D+00 -0.219423D+00
      7   0.000000D+00  0.000000D+00  0.745949D+00  0.507665D+00  0.000000D+00
      8   0.000000D+00  0.000000D+00 -0.453421D+00  0.260635D+00  0.000000D+00
      9   0.000000D+00  0.000000D+00  0.123378D+01 -0.187524D+01  0.000000D+00
     10  -0.103241D+01 -0.497452D+00  0.000000D+00  0.000000D+00 -0.663108D+00
     11   0.507177D+00  0.109889D+01  0.000000D+00  0.000000D+00  0.160181D+01
     12  -0.875116D+00 -0.650863D-01  0.000000D+00  0.000000D+00  0.169102D+00
     13  -0.372141D-01  0.196945D-01  0.000000D+00  0.000000D+00 -0.190563D+00
     14  -0.796383D+00 -0.446970D+00  0.000000D+00  0.000000D+00 -0.437592D-01
     15   0.000000D+00  0.000000D+00 -0.139106D+01  0.243522D+01  0.000000D+00
     16   0.000000D+00  0.000000D+00 -0.316770D+00  0.144528D+00  0.000000D+00
               581           582           583           584           585 
      1  -0.185935D+03 -0.185931D+03 -0.185875D+03 -0.185871D+03 -0.185862D+03
      2   0.000000D+00 -0.803700D-02  0.288189D-01  0.000000D+00 -0.237670D-01
      3   0.000000D+00 -0.868333D-01  0.827515D-01  0.000000D+00  0.452405D-01
      4   0.138276D+00  0.000000D+00  0.000000D+00 -0.271541D+00  0.000000D+00
      5   0.000000D+00  0.282715D-01 -0.100108D+00  0.000000D+00  0.102941D+00
      6   0.000000D+00  0.268057D+00 -0.278666D+00  0.000000D+00 -0.124683D+00
      7  -0.442154D+00  0.000000D+00  0.000000D+00  0.851095D+00  0.000000D+00
      8   0.890542D-01  0.000000D+00  0.000000D+00 -0.684446D+00  0.000000D+00
      9   0.129551D+00  0.000000D+00  0.000000D+00  0.128108D+01  0.000000D+00
     10   0.000000D+00  0.344090D+00  0.208585D+00  0.000000D+00 -0.362959D+00
     11   0.000000D+00  0.402019D+00  0.501059D-01  0.000000D+00 -0.507480D+00
     12   0.000000D+00  0.421050D-02  0.444980D+00  0.000000D+00 -0.419659D+00
     13   0.000000D+00  0.289596D+00  0.366561D-01  0.000000D+00  0.215652D+00
     14   0.000000D+00  0.282607D+00  0.205243D+00  0.000000D+00 -0.810903D+00
     15  -0.148329D+00  0.000000D+00  0.000000D+00 -0.159765D+01  0.000000D+00
     16   0.281570D+00  0.000000D+00  0.000000D+00 -0.694694D+00  0.000000D+00
               586           587           588           589           590 
      1  -0.185853D+03 -0.185842D+03 -0.185817D+03 -0.185784D+03 -0.185782D+03
      2   0.000000D+00  0.666433D-02 -0.142282D+00  0.000000D+00  0.116166D+00
      3   0.000000D+00 -0.102035D+00 -0.934159D-01  0.000000D+00 -0.128610D+00
      4   0.282187D-01  0.000000D+00  0.000000D+00 -0.484083D-01  0.000000D+00
      5   0.000000D+00 -0.153564D-01  0.472422D+00  0.000000D+00 -0.437079D+00
      6   0.000000D+00  0.315296D+00  0.330837D+00  0.000000D+00  0.432319D+00
      7  -0.900788D-01  0.000000D+00  0.000000D+00  0.169892D+00  0.000000D+00
      8   0.188877D+00  0.000000D+00  0.000000D+00 -0.389936D+00  0.000000D+00
      9  -0.494600D+00  0.000000D+00  0.000000D+00  0.868474D+00  0.000000D+00
     10   0.000000D+00  0.263227D+00 -0.120087D+00  0.000000D+00  0.405782D+00
     11   0.000000D+00  0.167380D+00 -0.246965D+01  0.000000D+00 -0.133733D+01
     12   0.000000D+00  0.142924D+00 -0.310174D+00  0.000000D+00 -0.128664D+00
     13   0.000000D+00  0.407096D+00  0.643189D-01  0.000000D+00 -0.242360D-01
     14   0.000000D+00  0.205993D+00 -0.109985D+01  0.000000D+00  0.551699D+00
     15   0.496805D+00  0.000000D+00  0.000000D+00 -0.109165D+01  0.000000D+00
     16   0.676157D+00  0.000000D+00  0.000000D+00 -0.479171D+00  0.000000D+00
               591           592           593           594           595 
      1  -0.185766D+03 -0.185756D+03 -0.185743D+03 -0.185712D+03 -0.185702D+03
      2   0.000000D+00 -0.175561D-01  0.000000D+00  0.000000D+00  0.000000D+00
      3   0.000000D+00 -0.582222D-01  0.000000D+00  0.000000D+00  0.000000D+00
      4  -0.468221D-01  0.000000D+00  0.211317D+00 -0.120660D-01 -0.670420D-01
      5   0.000000D+00  0.622875D-01  0.000000D+00  0.000000D+00  0.000000D+00
      6   0.000000D+00  0.190701D+00  0.000000D+00  0.000000D+00  0.000000D+00
      7   0.140060D+00  0.000000D+00 -0.710539D+00  0.347141D-01  0.223410D+00
      8  -0.817767D-01  0.000000D+00  0.378990D+00  0.766206D-01 -0.529046D-01
      9   0.285262D+00  0.000000D+00 -0.460903D+00 -0.219911D+00 -0.565584D-01
     10   0.000000D+00  0.183250D+00  0.000000D+00  0.000000D+00  0.000000D+00
     11   0.000000D+00  0.600287D-01  0.000000D+00  0.000000D+00  0.000000D+00
     12   0.000000D+00  0.585602D+00  0.000000D+00  0.000000D+00  0.000000D+00
     13   0.000000D+00 -0.457250D+00  0.000000D+00  0.000000D+00  0.000000D+00
     14   0.000000D+00  0.222445D+00  0.000000D+00  0.000000D+00  0.000000D+00
     15  -0.811132D-01  0.000000D+00  0.390919D+00 -0.101633D+00  0.957582D-01
     16   0.251004D+00  0.000000D+00  0.267962D+00 -0.129558D+00 -0.304268D+00
               596           597           598           599           600 
      1  -0.185693D+03 -0.185672D+03 -0.185665D+03 -0.185632D+03 -0.185632D+03
      2   0.171314D-01  0.990163D-01  0.665068D-01  0.892880D-01  0.000000D+00
      3  -0.388893D-02  0.587480D-01 -0.119681D-01  0.122163D+00  0.000000D+00
      4   0.000000D+00  0.000000D+00  0.000000D+00  0.000000D+00  0.402033D-01
      5  -0.680365D-01 -0.372469D+00 -0.243407D+00 -0.336593D+00  0.000000D+00
      6  -0.566902D-02 -0.195261D+00  0.270056D-01 -0.419530D+00  0.000000D+00
      7   0.000000D+00  0.000000D+00  0.000000D+00  0.000000D+00 -0.150942D+00
      8   0.000000D+00  0.000000D+00  0.000000D+00  0.000000D+00  0.257847D+00
      9   0.000000D+00  0.000000D+00  0.000000D+00  0.000000D+00 -0.853877D+00
     10   0.147606D+00 -0.964170D-01  0.160414D-01 -0.707427D+00  0.000000D+00
     11   0.105238D+01  0.134236D+00  0.432712D+00  0.318970D+00  0.000000D+00
     12   0.300039D+00  0.173786D+00  0.553045D+00 -0.266465D+00  0.000000D+00
     13  -0.186828D+00  0.332648D-01 -0.836899D-01 -0.694838D-02  0.000000D+00
     14   0.931421D+00  0.253182D+00  0.371793D+00 -0.614545D+00  0.000000D+00
     15   0.000000D+00  0.000000D+00  0.000000D+00  0.000000D+00  0.107151D+01
     16   0.000000D+00  0.000000D+00  0.000000D+00  0.000000D+00  0.231593D+00
               601           602           603           604           605 
      1  -0.185623D+03 -0.185619D+03 -0.185574D+03 -0.185572D+03 -0.185562D+03
      2   0.000000D+00  0.000000D+00  0.000000D+00  0.852441D-01 -0.178793D-01
      3   0.000000D+00  0.000000D+00  0.000000D+00  0.721953D-01 -0.482230D-01
      4  -0.999490D-01 -0.649333D-02 -0.727051D-01  0.000000D+00  0.000000D+00
      5   0.000000D+00  0.000000D+00  0.000000D+00 -0.318331D+00  0.538110D-01
      6   0.000000D+00  0.000000D+00  0.000000D+00 -0.242714D+00  0.155659D+00
      7   0.336028D+00  0.717428D-02  0.267835D+00  0.000000D+00  0.000000D+00
      8  -0.218454D+00  0.106440D+00  0.181732D+00  0.000000D+00  0.000000D+00
      9   0.493852D+00 -0.264878D+00 -0.114032D+01  0.000000D+00  0.000000D+00
     10   0.000000D+00  0.000000D+00  0.000000D+00 -0.632469D+00  0.129616D+01
     11   0.000000D+00  0.000000D+00  0.000000D+00 -0.227482D+01  0.122592D+01
     12   0.000000D+00  0.000000D+00  0.000000D+00  0.224698D+00  0.407887D+00
     13   0.000000D+00  0.000000D+00  0.000000D+00  0.294833D-01 -0.303640D-01
     14   0.000000D+00  0.000000D+00  0.000000D+00 -0.122561D+01  0.152340D+01
     15  -0.345142D+00  0.848089D-01  0.134782D+01  0.000000D+00  0.000000D+00
     16  -0.303196D+00  0.400017D+00  0.169751D+00  0.000000D+00  0.000000D+00
               606           607           608           609           610 
      1  -0.185509D+03 -0.185485D+03 -0.185460D+03 -0.185446D+03 -0.185438D+03
      2   0.233114D-01 -0.118803D+00  0.000000D+00 -0.237775D-01  0.000000D+00
      3  -0.520551D-01  0.172285D-01  0.000000D+00 -0.287268D-01  0.000000D+00
      4   0.000000D+00  0.000000D+00  0.610752D-01  0.000000D+00  0.560826D-01
      5  -0.100441D+00  0.431473D+00  0.000000D+00  0.895526D-01  0.000000D+00
      6   0.193761D+00 -0.564729D-01  0.000000D+00  0.135708D+00  0.000000D+00
      7   0.000000D+00  0.000000D+00 -0.199191D+00  0.000000D+00 -0.200992D+00
      8   0.000000D+00  0.000000D+00  0.872112D-01  0.000000D+00 -0.236947D-01
      9   0.000000D+00  0.000000D+00  0.199300D+00  0.000000D+00  0.562481D+00
     10   0.196530D+00 -0.647098D+00  0.000000D+00  0.259466D+00  0.000000D+00
     11  -0.467378D+00  0.247601D+01  0.000000D+00 -0.176826D+01  0.000000D+00
     12   0.578042D-01 -0.301580D+00  0.000000D+00 -0.360373D-01  0.000000D+00
     13   0.788604D-01 -0.962431D-01  0.000000D+00  0.376347D-01  0.000000D+00
     14   0.347213D+00 -0.422137D+00  0.000000D+00 -0.150502D+00  0.000000D+00
     15   0.000000D+00  0.000000D+00 -0.357008D+00  0.000000D+00 -0.577071D+00
     16   0.000000D+00  0.000000D+00  0.253628D+00  0.000000D+00 -0.506747D-01
               611           612           613           614           615 
      1  -0.185425D+03 -0.185422D+03 -0.185419D+03 -0.185396D+03 -0.185386D+03
      2   0.492376D-02  0.000000D+00 -0.632516D-01 -0.112972D+00  0.136884D+00
      3  -0.109919D-01  0.000000D+00 -0.574875D-01  0.107697D+00 -0.897375D-02
      4   0.000000D+00 -0.922292D-01  0.000000D+00  0.000000D+00  0.000000D+00
      5  -0.408877D-01  0.000000D+00  0.263274D+00  0.458079D+00 -0.535456D+00
      6   0.373512D-01  0.000000D+00  0.235764D+00 -0.414501D+00  0.410104D-01
      7   0.000000D+00  0.357165D+00  0.000000D+00  0.000000D+00  0.000000D+00
      8   0.000000D+00 -0.306126D+00  0.000000D+00  0.000000D+00  0.000000D+00
      9   0.000000D+00  0.608820D+00  0.000000D+00  0.000000D+00  0.000000D+00
     10   0.390705D+00  0.000000D+00 -0.355012D+00 -0.660692D+00  0.142871D+00
     11  -0.573868D+00  0.000000D+00  0.435565D+00  0.286008D+01 -0.223312D+01
     12   0.210562D+00  0.000000D+00 -0.317906D+00  0.238451D+00  0.244349D+00
     13  -0.100815D+00  0.000000D+00 -0.111164D-01 -0.150356D+00  0.109077D+00
     14   0.318951D+00  0.000000D+00 -0.684332D+00 -0.644699D+00  0.170744D+00
     15   0.000000D+00 -0.684548D+00  0.000000D+00  0.000000D+00  0.000000D+00
     16   0.000000D+00 -0.104706D+00  0.000000D+00  0.000000D+00  0.000000D+00
               616           617           618           619           620 
      1  -0.185351D+03 -0.185336D+03 -0.185330D+03 -0.185300D+03 -0.185255D+03
      2   0.000000D+00  0.323402D-01 -0.364917D-02  0.000000D+00  0.116760D-01
      3   0.000000D+00 -0.122546D+00 -0.112019D+00  0.000000D+00  0.105808D+00
      4   0.381198D-01  0.000000D+00  0.000000D+00 -0.537841D-01  0.000000D+00
      5   0.000000D+00 -0.122249D+00  0.220635D-01  0.000000D+00 -0.466896D-01
      6   0.000000D+00  0.480037D+00  0.444158D+00  0.000000D+00 -0.395130D+00
      7  -0.133051D+00  0.000000D+00  0.000000D+00  0.209211D+00  0.000000D+00
      8  -0.807131D-01  0.000000D+00  0.000000D+00 -0.179415D+00  0.000000D+00
      9   0.357415D+00  0.000000D+00  0.000000D+00  0.361378D+00  0.000000D+00
     10   0.000000D+00 -0.129732D+01 -0.650868D+00  0.000000D+00  0.549537D+00
     11   0.000000D+00 -0.276713D+00 -0.218420D+00  0.000000D+00 -0.129120D+01
     12   0.000000D+00 -0.759922D+00 -0.338115D+00  0.000000D+00  0.631052D+00
     13   0.000000D+00 -0.101315D-01 -0.253027D+00  0.000000D+00  0.103701D+00
     14   0.000000D+00 -0.160231D+01 -0.877745D+00  0.000000D+00  0.498745D+00
     15  -0.228842D+00  0.000000D+00  0.000000D+00 -0.402679D+00  0.000000D+00
     16  -0.227579D-01  0.000000D+00  0.000000D+00  0.941552D-02  0.000000D+00
               621           622           623           624           625 
      1  -0.185248D+03 -0.185238D+03 -0.185225D+03 -0.185095D+03 -0.185066D+03
      2  -0.245797D-01  0.829531D-02  0.133463D+00 -0.795744D-01 -0.408630D-01
      3   0.248208D-01 -0.104026D+00  0.211940D-01  0.632510D-01  0.107172D-01
      4   0.000000D+00  0.000000D+00  0.000000D+00  0.000000D+00  0.000000D+00
      5   0.426274D-01 -0.271502D-01 -0.556216D+00  0.335436D+00  0.177767D+00
      6  -0.115262D+00  0.432456D+00 -0.983356D-01 -0.230987D+00 -0.410025D-01
      7   0.000000D+00  0.000000D+00  0.000000D+00  0.000000D+00  0.000000D+00
      8   0.000000D+00  0.000000D+00  0.000000D+00  0.000000D+00  0.000000D+00
      9   0.000000D+00  0.000000D+00  0.000000D+00  0.000000D+00  0.000000D+00
     10   0.206768D+00 -0.724122D+00  0.104315D+00  0.825815D+00  0.438003D+00
     11  -0.137006D+00 -0.171056D+00  0.190658D+01 -0.165179D+01 -0.186864D+00
     12   0.166150D+00 -0.667186D+00  0.314439D+00  0.329989D+00 -0.763865D-01
     13   0.242842D+00  0.467044D-01 -0.590917D-01  0.491338D-01  0.138432D+00
     14   0.459600D+00 -0.631936D+00  0.713732D+00  0.208975D+00  0.741039D-01
     15   0.000000D+00  0.000000D+00  0.000000D+00  0.000000D+00  0.000000D+00
     16   0.000000D+00  0.000000D+00  0.000000D+00  0.000000D+00  0.000000D+00
               626           627           628           629           630 
      1  -0.184981D+03 -0.184896D+03 -0.184803D+03 -0.184736D+03 -0.184654D+03
      2   0.354485D-01 -0.861599D-02 -0.116150D-01  0.182049D-01 -0.477810D-03
      3  -0.122786D-01  0.360821D-02  0.484749D-02 -0.160874D-01  0.279238D-01
      4   0.000000D+00  0.000000D+00  0.000000D+00  0.000000D+00  0.000000D+00
      5  -0.117545D+00 -0.606842D-02  0.212079D-01 -0.772431D-01  0.334719D-01
      6   0.615505D-01 -0.218860D-02 -0.362771D-03  0.441578D-01 -0.776987D-01
      7   0.000000D+00  0.000000D+00  0.000000D+00  0.000000D+00  0.000000D+00
      8   0.000000D+00  0.000000D+00  0.000000D+00  0.000000D+00  0.000000D+00
      9   0.000000D+00  0.000000D+00  0.000000D+00  0.000000D+00  0.000000D+00
     10  -0.174309D+00  0.948891D-01 -0.110175D+00 -0.100518D+00  0.189023D+00
     11   0.961561D+00 -0.322607D+00 -0.198747D-01  0.369041D-01 -0.235381D+00
     12  -0.529940D-01 -0.129888D+00 -0.142094D+00 -0.779986D-01 -0.922850D-01
     13  -0.182142D+00 -0.384119D-01 -0.528102D-01 -0.550582D-01  0.898476D-01
     14   0.973308D-01 -0.397216D-01  0.135299D+00 -0.218069D+00  0.165031D+00
     15   0.000000D+00  0.000000D+00  0.000000D+00  0.000000D+00  0.000000D+00
     16   0.000000D+00  0.000000D+00  0.000000D+00  0.000000D+00  0.000000D+00
 Unable to Open any file for archive entry.
 1\1\GINC-HEL25\SP\RTPSSh TD-FC\Gen\C1H2O2\SABYASACHI\21-Mar-2022\0\\#P
  TD(Nstates=10000) tpssh/Gen SCF(maxcycles=100) Int(Grid=ultrafine)\\x
 GDB7_00001_tier4.com\\0,1\O,0,-1.023804,-0.438792,0.\C,0,0.,0.418952,0
 .\O,0,1.152985,0.109983,0.\H,0,-0.656942,-1.333012,0.\H,0,-0.376499,1.
 44977,0.\\Version=EM64L-G16RevC.01\State=1-A'\HF=-189.6363271\RMSD=1.9
 27e-09\PG=CS [SG(C1H2O2)]\\@
 The archive entry for this job was punched.


 IT IS A SIMPLE TASK TO MAKE THINGS COMPLEX,
 BUT A COMPLEX TASK TO MAKE THEM SIMPLE.
 Job cpu time:       0 days  0 hours 10 minutes 17.8 seconds.
 Elapsed time:       0 days  0 hours  1 minutes 17.5 seconds.
 File lengths (MBytes):  RWF=    508 Int=      0 D2E=      0 Chk=    107 Scr=      1
 Normal termination of Gaussian 16 at Mon Mar 21 20:02:05 2022.
