 Entering Gaussian System, Link 0=g16
 Input=000028.com
 Output=000028.log
 Initial command:
 /home/sabyasachi/g16/l1.exe "/scratch/sabyasachi/PBS_7976096.helios/Gau-26302.inp" -scrdir="/scratch/sabyasachi/PBS_7976096.helios/"
 Entering Link 1 = /home/sabyasachi/g16/l1.exe PID=     26303.
  
 Copyright (c) 1988-2019, Gaussian, Inc.  All Rights Reserved.
  
 This is part of the Gaussian(R) 16 program.  It is based on
 the Gaussian(R) 09 system (copyright 2009, Gaussian, Inc.),
 the Gaussian(R) 03 system (copyright 2003, Gaussian, Inc.),
 the Gaussian(R) 98 system (copyright 1998, Gaussian, Inc.),
 the Gaussian(R) 94 system (copyright 1995, Gaussian, Inc.),
 the Gaussian 92(TM) system (copyright 1992, Gaussian, Inc.),
 the Gaussian 90(TM) system (copyright 1990, Gaussian, Inc.),
 the Gaussian 88(TM) system (copyright 1988, Gaussian, Inc.),
 the Gaussian 86(TM) system (copyright 1986, Carnegie Mellon
 University), and the Gaussian 82(TM) system (copyright 1983,
 Carnegie Mellon University). Gaussian is a federally registered
 trademark of Gaussian, Inc.
  
 This software contains proprietary and confidential information,
 including trade secrets, belonging to Gaussian, Inc.
  
 This software is provided under written license and may be
 used, copied, transmitted, or stored only in accord with that
 written license.
  
 The following legend is applicable only to US Government
 contracts under FAR:
  
                    RESTRICTED RIGHTS LEGEND
  
 Use, reproduction and disclosure by the US Government is
 subject to restrictions as set forth in subparagraphs (a)
 and (c) of the Commercial Computer Software - Restricted
 Rights clause in FAR 52.227-19.
  
 Gaussian, Inc.
 340 Quinnipiac St., Bldg. 40, Wallingford CT 06492
  
  
 ---------------------------------------------------------------
 Warning -- This program may not be used in any manner that
 competes with the business of Gaussian, Inc. or will provide
 assistance to any competitor of Gaussian, Inc.  The licensee
 of this program is prohibited from giving any competitor of
 Gaussian, Inc. access to this program.  By using this program,
 the user acknowledges that Gaussian, Inc. is engaged in the
 business of creating and licensing software in the field of
 computational chemistry and represents and warrants to the
 licensee that it is not a competitor of Gaussian, Inc. and that
 it will not use this program in any manner prohibited above.
 ---------------------------------------------------------------
  

 Cite this work as:
 Gaussian 16, Revision C.01,
 M. J. Frisch, G. W. Trucks, H. B. Schlegel, G. E. Scuseria, 
 M. A. Robb, J. R. Cheeseman, G. Scalmani, V. Barone, 
 G. A. Petersson, H. Nakatsuji, X. Li, M. Caricato, A. V. Marenich, 
 J. Bloino, B. G. Janesko, R. Gomperts, B. Mennucci, H. P. Hratchian, 
 J. V. Ortiz, A. F. Izmaylov, J. L. Sonnenberg, D. Williams-Young, 
 F. Ding, F. Lipparini, F. Egidi, J. Goings, B. Peng, A. Petrone, 
 T. Henderson, D. Ranasinghe, V. G. Zakrzewski, J. Gao, N. Rega, 
 G. Zheng, W. Liang, M. Hada, M. Ehara, K. Toyota, R. Fukuda, 
 J. Hasegawa, M. Ishida, T. Nakajima, Y. Honda, O. Kitao, H. Nakai, 
 T. Vreven, K. Throssell, J. A. Montgomery, Jr., J. E. Peralta, 
 F. Ogliaro, M. J. Bearpark, J. J. Heyd, E. N. Brothers, K. N. Kudin, 
 V. N. Staroverov, T. A. Keith, R. Kobayashi, J. Normand, 
 K. Raghavachari, A. P. Rendell, J. C. Burant, S. S. Iyengar, 
 J. Tomasi, M. Cossi, J. M. Millam, M. Klene, C. Adamo, R. Cammi, 
 J. W. Ochterski, R. L. Martin, K. Morokuma, O. Farkas, 
 J. B. Foresman, and D. J. Fox, Gaussian, Inc., Wallingford CT, 2019.
 
 ******************************************
 Gaussian 16:  EM64L-G16RevC.01  3-Jul-2019
                21-Mar-2022 
 ******************************************
 %mem=64gb
 %nproc=8
 Will use up to    8 processors via shared memory.
 ---------------------------------------------------------------------
 #P TD(Nstates=10000) tpssh/Gen SCF(maxcycles=100) Int(Grid=ultrafine)
 ---------------------------------------------------------------------
 1/38=1,172=1/1;
 2/12=2,17=6,18=5,40=1/2;
 3/5=7,11=9,25=1,30=1,74=-35,75=-5/1,2,3,8;
 4//1;
 5/5=2,7=100,38=5/2;
 8/6=1,10=1,108=10000/1;
 9/41=10000,42=1,70=2/14;
 6/7=2,8=2,9=2,10=2/1;
 99/5=1,9=1/99;
 Leave Link    1 at Mon Mar 21 20:05:57 2022, MaxMem=  8589934592 cpu:               0.4 elap:               0.1
 (Enter /home/sabyasachi/g16/l101.exe)
 ---------------------
 xGDB7_00001_tier4.com
 ---------------------
 Symbolic Z-matrix:
 Charge =  0 Multiplicity = 1
 7                     1.10644   0.14251  -0.09098 
 7                    -0.08075  -0.51252   0.00607 
 6                    -1.1487    0.16746   0.00817 
 1                     1.85475  -0.40992   0.29153 
 1                     1.10968   1.10045   0.24271 
 1                    -2.08985  -0.3662    0.03525 
 1                    -1.16221   1.26097  -0.02408 
 
 ITRead=  0  0  0  0  0  0  0
 MicOpt= -1 -1 -1 -1 -1 -1 -1
 NAtoms=      7 NQM=        7 NQMF=       0 NMMI=      0 NMMIF=      0
                NMic=       0 NMicF=      0.
                    Isotopes and Nuclear Properties:
 (Nuclear quadrupole moments (NQMom) in fm**2, nuclear magnetic moments (NMagM)
  in nuclear magnetons)

  Atom         1           2           3           4           5           6           7
 IAtWgt=          14          14          12           1           1           1           1
 AtmWgt=  14.0030740  14.0030740  12.0000000   1.0078250   1.0078250   1.0078250   1.0078250
 NucSpn=           2           2           0           1           1           1           1
 AtZEff=  -0.0000000  -0.0000000  -0.0000000  -0.0000000  -0.0000000  -0.0000000  -0.0000000
 NQMom=    2.0440000   2.0440000   0.0000000   0.0000000   0.0000000   0.0000000   0.0000000
 NMagM=    0.4037610   0.4037610   0.0000000   2.7928460   2.7928460   2.7928460   2.7928460
 AtZNuc=   7.0000000   7.0000000   6.0000000   1.0000000   1.0000000   1.0000000   1.0000000
 Leave Link  101 at Mon Mar 21 20:05:57 2022, MaxMem=  8589934592 cpu:               0.6 elap:               0.1
 (Enter /home/sabyasachi/g16/l202.exe)
                          Input orientation:                          
 ---------------------------------------------------------------------
 Center     Atomic      Atomic             Coordinates (Angstroms)
 Number     Number       Type             X           Y           Z
 ---------------------------------------------------------------------
      1          7           0        1.106441    0.142513   -0.090982
      2          7           0       -0.080753   -0.512520    0.006066
      3          6           0       -1.148696    0.167456    0.008166
      4          1           0        1.854749   -0.409916    0.291533
      5          1           0        1.109677    1.100453    0.242713
      6          1           0       -2.089851   -0.366199    0.035249
      7          1           0       -1.162208    1.260974   -0.024080
 ---------------------------------------------------------------------
                    Distance matrix (angstroms):
                    1          2          3          4          5
     1  N    0.000000
     2  N    1.359381   0.000000
     3  C    2.257453   1.266047   0.000000
     4  H    1.005714   1.959129   3.071537   0.000000
     5  H    1.014402   2.018615   2.454739   1.684853   0.000000
     6  H    3.238982   2.014631   1.082263   3.953158   3.525775
     7  H    2.530257   2.077435   1.094077   3.463165   2.293122
                    6          7
     6  H    0.000000
     7  H    1.873962   0.000000
 Stoichiometry    CH4N2
 Framework group  C1[X(CH4N2)]
 Deg. of freedom    15
 Full point group                 C1      NOp   1
 Largest Abelian subgroup         C1      NOp   1
 Largest concise Abelian subgroup C1      NOp   1
                         Standard orientation:                         
 ---------------------------------------------------------------------
 Center     Atomic      Atomic             Coordinates (Angstroms)
 Number     Number       Type             X           Y           Z
 ---------------------------------------------------------------------
      1          7           0        1.106441    0.142513   -0.090982
      2          7           0       -0.080753   -0.512520    0.006066
      3          6           0       -1.148696    0.167456    0.008166
      4          1           0        1.854749   -0.409916    0.291533
      5          1           0        1.109676    1.100453    0.242713
      6          1           0       -2.089851   -0.366199    0.035249
      7          1           0       -1.162209    1.260974   -0.024080
 ---------------------------------------------------------------------
 Rotational constants (GHZ):          66.3844039          11.5398193           9.9244358
 Leave Link  202 at Mon Mar 21 20:05:57 2022, MaxMem=  8589934592 cpu:               0.1 elap:               0.0
 (Enter /home/sabyasachi/g16/l301.exe)
 General basis read from cards:  (5D, 7F)
 Centers:       4      5      6      7
 S 3 1.00
     Exponent=  1.3010701000D+01 Coefficients=  1.9682158000D-02
     Exponent=  1.9622572000D+00 Coefficients=  1.3796524000D-01
     Exponent=  4.4453796000D-01 Coefficients=  4.7831935000D-01
 S 1 1.00
     Exponent=  1.2194962000D-01 Coefficients=  1.0000000000D+00
 P 1 1.00
     Exponent=  8.0000000000D-01 Coefficients=  1.0000000000D+00
 P 1 1.00
     Exponent=  1.1704099050D-01 Coefficients=  1.0000000000D+00
 ****
 Centers:       3
 S 5 1.00
     Exponent=  1.2384016938D+03 Coefficients=  5.4568832082D-03
     Exponent=  1.8629004992D+02 Coefficients=  4.0638409211D-02
     Exponent=  4.2251176346D+01 Coefficients=  1.8025593888D-01
     Exponent=  1.1676557932D+01 Coefficients=  4.6315121755D-01
     Exponent=  3.5930506482D+00 Coefficients=  4.4087173314D-01
 S 1 1.00
     Exponent=  4.0245147363D-01 Coefficients=  1.0000000000D+00
 S 1 1.00
     Exponent=  1.3090182668D-01 Coefficients=  1.0000000000D+00
 S 1 1.00
     Exponent=  6.7053540256D-02 Coefficients=  1.0000000000D+00
 P 3 1.00
     Exponent=  9.4680970621D+00 Coefficients=  3.8387871728D-02
     Exponent=  2.0103545142D+00 Coefficients=  2.1117025112D-01
     Exponent=  5.4771004707D-01 Coefficients=  5.1328172114D-01
 P 1 1.00
     Exponent=  1.5268613795D-01 Coefficients=  1.0000000000D+00
 D 1 1.00
     Exponent=  8.0000000000D-01 Coefficients=  1.0000000000D+00
 D 1 1.00
     Exponent=  1.1713185140D-01 Coefficients=  1.0000000000D+00
 ****
 Centers:       1      2
 S 5 1.00
     Exponent=  1.7128415853D+03 Coefficients= -5.3934125305D-03
     Exponent=  2.5764812677D+02 Coefficients= -4.0221581118D-02
     Exponent=  5.8458245853D+01 Coefficients= -1.7931144990D-01
     Exponent=  1.6198367905D+01 Coefficients= -4.6376317823D-01
     Exponent=  5.0052600809D+00 Coefficients= -4.4171422662D-01
 S 1 1.00
     Exponent=  5.8731856571D-01 Coefficients=  1.0000000000D+00
 S 1 1.00
     Exponent=  1.8764592253D-01 Coefficients=  1.0000000000D+00
 S 1 1.00
     Exponent=  9.6171241529D-02 Coefficients=  1.0000000000D+00
 P 3 1.00
     Exponent=  1.3571470233D+01 Coefficients= -4.0072398852D-02
     Exponent=  2.9257372874D+00 Coefficients= -2.1807045028D-01
     Exponent=  7.9927750754D-01 Coefficients= -5.1294466049D-01
 P 1 1.00
     Exponent=  2.1954348034D-01 Coefficients=  1.0000000000D+00
 D 1 1.00
     Exponent=  1.0000000000D+00 Coefficients=  1.0000000000D+00
 D 1 1.00
     Exponent=  1.6697708112D-01 Coefficients=  1.0000000000D+00
 ****
 Ernie: Thresh=  0.10000D-02 Tol=  0.10000D-05 Strict=F.
 There are    98 symmetry adapted cartesian basis functions of A   symmetry.
 There are    92 symmetry adapted basis functions of A   symmetry.
    92 basis functions,   136 primitive gaussians,    98 cartesian basis functions
    12 alpha electrons       12 beta electrons
       nuclear repulsion energy        73.1919062595 Hartrees.
 IExCor= 2523 DFT=T Ex+Corr=TPSSh ExCW=0 ScaHFX=  0.100000
 ScaDFX=  0.900000  0.900000  1.000000  1.000000 ScalE2=  1.000000  1.000000
 IRadAn=      5 IRanWt=     -1 IRanGd=            0 ICorTp=0 IEmpDi=  4
 NAtoms=    7 NActive=    7 NUniq=    7 SFac= 1.00D+00 NAtFMM=   60 NAOKFM=F Big=F
 Integral buffers will be    131072 words long.
 Regular integral format.
 Two-electron integral symmetry is turned on.
 Leave Link  301 at Mon Mar 21 20:05:57 2022, MaxMem=  8589934592 cpu:               0.6 elap:               0.1
 (Enter /home/sabyasachi/g16/l302.exe)
 NPDir=0 NMtPBC=     1 NCelOv=     1 NCel=       1 NClECP=     1 NCelD=      1
         NCelK=      1 NCelE2=     1 NClLst=     1 CellRange=     0.0.
 One-electron integrals computed using PRISM.
 One-electron integral symmetry used in STVInt
 NBasis=    92 RedAO= T EigKep=  3.91D-04  NBF=    92
 NBsUse=    92 1.00D-06 EigRej= -1.00D+00 NBFU=    92
 Precomputing XC quadrature grid using
 IXCGrd= 4 IRadAn=           5 IRanWt=          -1 IRanGd=           0 AccXCQ= 0.00D+00.
 Generated NRdTot=       0 NPtTot=           0 NUsed=           0 NTot=          32
 NSgBfM=    98    98    98    98    98 MxSgAt=     7 MxSgA2=     7.
 Leave Link  302 at Mon Mar 21 20:05:58 2022, MaxMem=  8589934592 cpu:               0.9 elap:               0.1
 (Enter /home/sabyasachi/g16/l303.exe)
 DipDrv:  MaxL=1.
 Leave Link  303 at Mon Mar 21 20:05:58 2022, MaxMem=  8589934592 cpu:               0.2 elap:               0.0
 (Enter /home/sabyasachi/g16/l308.exe)
 Leave Link  308 at Mon Mar 21 20:05:58 2022, MaxMem=  8589934592 cpu:               0.2 elap:               0.1
 (Enter /home/sabyasachi/g16/l401.exe)
 ExpMin= 6.71D-02 ExpMax= 1.71D+03 ExpMxC= 2.58D+02 IAcc=3 IRadAn=         5 AccDes= 0.00D+00
 Harris functional with IExCor= 1009 and IRadAn=       5 diagonalized for initial guess.
 HarFok:  IExCor= 1009 AccDes= 0.00D+00 IRadAn=         5 IDoV= 1 UseB2=F ITyADJ=14
 ICtDFT=  3500011 ScaDFX=  1.000000  1.000000  1.000000  1.000000
 FoFCou: FMM=F IPFlag=           0 FMFlag=      100000 FMFlg1=           0
         NFxFlg=           0 DoJE=T BraDBF=F KetDBF=T FulRan=T
         wScrn=  0.000000 ICntrl=       500 IOpCl=  0 I1Cent=   200000004 NGrid=           0
         NMat0=    1 NMatS0=      1 NMatT0=    0 NMatD0=    1 NMtDS0=    0 NMtDT0=    0
 Petite list used in FoFCou.
 Harris En= -149.713609139303    
 JPrj=0 DoOrth=F DoCkMO=F.
 Leave Link  401 at Mon Mar 21 20:05:58 2022, MaxMem=  8589934592 cpu:               2.6 elap:               0.3
 (Enter /home/sabyasachi/g16/l502.exe)
 Keep R1 ints in memory in canonical form, NReq=16540191.
 FoFCou: FMM=F IPFlag=           0 FMFlag=           0 FMFlg1=           0
         NFxFlg=           0 DoJE=F BraDBF=F KetDBF=F FulRan=T
         wScrn=  0.000000 ICntrl=       600 IOpCl=  0 I1Cent=           0 NGrid=           0
         NMat0=    1 NMatS0=   4278 NMatT0=    0 NMatD0=    1 NMtDS0=    0 NMtDT0=    0
 Symmetry not used in FoFCou.
 Two-electron integral symmetry not used.
 Closed shell SCF:
 Using DIIS extrapolation, IDIIS=  1040.
 NGot=  8589934592 LenX=  8580760569 LenY=  8580750524
 Requested convergence on RMS density matrix=1.00D-08 within 100 cycles.
 Requested convergence on MAX density matrix=1.00D-06.
 Requested convergence on             energy=1.00D-06.
 No special actions if energy rises.
 Integral accuracy reduced to 1.0D-05 until final iterations.

 Cycle   1  Pass 0  IDiag  1:
 E= -149.815008933714    
 DIIS: error= 1.92D-02 at cycle   1 NSaved=   1.
 NSaved= 1 IEnMin= 1 EnMin= -149.815008933714     IErMin= 1 ErrMin= 1.92D-02
 ErrMax= 1.92D-02  0.00D+00 EMaxC= 1.00D-01 BMatC= 5.44D-02 BMatP= 5.44D-02
 IDIUse=3 WtCom= 8.08D-01 WtEn= 1.92D-01
 Coeff-Com:  0.100D+01
 Coeff-En:   0.100D+01
 Coeff:      0.100D+01
 Gap=     0.204 Goal=   None    Shift=    0.000
 GapD=    0.204 DampG=1.000 DampE=0.500 DampFc=0.5000 IDamp=-1.
 Damping current iteration by 5.00D-01
 RMSDP=8.37D-03 MaxDP=2.28D-01              OVMax= 1.57D-01

 Cycle   2  Pass 0  IDiag  1:
 E= -149.839368995434     Delta-E=       -0.024360061720 Rises=F Damp=T
 DIIS: error= 3.70D-03 at cycle   2 NSaved=   2.
 NSaved= 2 IEnMin= 2 EnMin= -149.839368995434     IErMin= 2 ErrMin= 3.70D-03
 ErrMax= 3.70D-03  0.00D+00 EMaxC= 1.00D-01 BMatC= 3.76D-03 BMatP= 5.44D-02
 IDIUse=3 WtCom= 9.63D-01 WtEn= 3.70D-02
 Coeff-Com:  0.474D-01 0.953D+00
 Coeff-En:   0.109D+00 0.891D+00
 Coeff:      0.496D-01 0.950D+00
 Gap=     0.231 Goal=   None    Shift=    0.000
 RMSDP=2.09D-03 MaxDP=3.97D-02 DE=-2.44D-02 OVMax= 1.12D-01

 Cycle   3  Pass 0  IDiag  1:
 E= -149.866464263822     Delta-E=       -0.027095268388 Rises=F Damp=F
 DIIS: error= 5.21D-03 at cycle   3 NSaved=   3.
 NSaved= 3 IEnMin= 3 EnMin= -149.866464263822     IErMin= 2 ErrMin= 3.70D-03
 ErrMax= 5.21D-03  0.00D+00 EMaxC= 1.00D-01 BMatC= 3.12D-03 BMatP= 3.76D-03
 IDIUse=3 WtCom= 9.48D-01 WtEn= 5.21D-02
 Coeff-Com: -0.221D-01 0.477D+00 0.545D+00
 Coeff-En:   0.000D+00 0.000D+00 0.100D+01
 Coeff:     -0.209D-01 0.452D+00 0.569D+00
 Gap=     0.208 Goal=   None    Shift=    0.000
 RMSDP=1.27D-03 MaxDP=2.99D-02 DE=-2.71D-02 OVMax= 4.58D-02

 Cycle   4  Pass 0  IDiag  1:
 E= -149.867595354869     Delta-E=       -0.001131091047 Rises=F Damp=F
 DIIS: error= 4.11D-03 at cycle   4 NSaved=   4.
 NSaved= 4 IEnMin= 4 EnMin= -149.867595354869     IErMin= 2 ErrMin= 3.70D-03
 ErrMax= 4.11D-03  0.00D+00 EMaxC= 1.00D-01 BMatC= 1.95D-03 BMatP= 3.12D-03
 IDIUse=3 WtCom= 9.59D-01 WtEn= 4.11D-02
 Coeff-Com: -0.219D-01 0.112D+00 0.438D+00 0.472D+00
 Coeff-En:   0.000D+00 0.000D+00 0.412D+00 0.588D+00
 Coeff:     -0.210D-01 0.108D+00 0.437D+00 0.477D+00
 Gap=     0.208 Goal=   None    Shift=    0.000
 RMSDP=5.84D-04 MaxDP=1.15D-02 DE=-1.13D-03 OVMax= 2.14D-02

 Cycle   5  Pass 0  IDiag  1:
 E= -149.869434747147     Delta-E=       -0.001839392277 Rises=F Damp=F
 DIIS: error= 5.92D-04 at cycle   5 NSaved=   5.
 NSaved= 5 IEnMin= 5 EnMin= -149.869434747147     IErMin= 5 ErrMin= 5.92D-04
 ErrMax= 5.92D-04  0.00D+00 EMaxC= 1.00D-01 BMatC= 3.21D-05 BMatP= 1.95D-03
 IDIUse=3 WtCom= 9.94D-01 WtEn= 5.92D-03
 Coeff-Com: -0.787D-02 0.214D-01 0.175D+00 0.222D+00 0.590D+00
 Coeff-En:   0.000D+00 0.000D+00 0.000D+00 0.000D+00 0.100D+01
 Coeff:     -0.782D-02 0.213D-01 0.174D+00 0.221D+00 0.592D+00
 Gap=     0.209 Goal=   None    Shift=    0.000
 RMSDP=8.84D-05 MaxDP=1.68D-03 DE=-1.84D-03 OVMax= 2.92D-03

 Cycle   6  Pass 0  IDiag  1:
 E= -149.869457199884     Delta-E=       -0.000022452737 Rises=F Damp=F
 DIIS: error= 1.88D-04 at cycle   6 NSaved=   6.
 NSaved= 6 IEnMin= 6 EnMin= -149.869457199884     IErMin= 6 ErrMin= 1.88D-04
 ErrMax= 1.88D-04  0.00D+00 EMaxC= 1.00D-01 BMatC= 6.39D-06 BMatP= 3.21D-05
 IDIUse=3 WtCom= 9.98D-01 WtEn= 1.88D-03
 Coeff-Com: -0.367D-02 0.615D-02 0.816D-01 0.107D+00 0.378D+00 0.430D+00
 Coeff-En:   0.000D+00 0.000D+00 0.000D+00 0.000D+00 0.152D+00 0.848D+00
 Coeff:     -0.366D-02 0.614D-02 0.815D-01 0.107D+00 0.378D+00 0.431D+00
 Gap=     0.208 Goal=   None    Shift=    0.000
 RMSDP=3.22D-05 MaxDP=7.58D-04 DE=-2.25D-05 OVMax= 1.07D-03

 Cycle   7  Pass 0  IDiag  1:
 E= -149.869463208562     Delta-E=       -0.000006008678 Rises=F Damp=F
 DIIS: error= 1.17D-05 at cycle   7 NSaved=   7.
 NSaved= 7 IEnMin= 7 EnMin= -149.869463208562     IErMin= 7 ErrMin= 1.17D-05
 ErrMax= 1.17D-05  0.00D+00 EMaxC= 1.00D-01 BMatC= 1.92D-08 BMatP= 6.39D-06
 IDIUse=1 WtCom= 1.00D+00 WtEn= 0.00D+00
 Coeff-Com: -0.513D-03 0.530D-03 0.119D-01 0.155D-01 0.639D-01 0.955D-01
 Coeff-Com:  0.813D+00
 Coeff:     -0.513D-03 0.530D-03 0.119D-01 0.155D-01 0.639D-01 0.955D-01
 Coeff:      0.813D+00
 Gap=     0.208 Goal=   None    Shift=    0.000
 RMSDP=3.00D-06 MaxDP=5.19D-05 DE=-6.01D-06 OVMax= 4.48D-05

 Initial convergence to 1.0D-05 achieved.  Increase integral accuracy.
 Cycle   8  Pass 1  IDiag  1:
 E= -149.869464243179     Delta-E=       -0.000001034617 Rises=F Damp=F
 DIIS: error= 3.25D-06 at cycle   1 NSaved=   1.
 NSaved= 1 IEnMin= 1 EnMin= -149.869464243179     IErMin= 1 ErrMin= 3.25D-06
 ErrMax= 3.25D-06  0.00D+00 EMaxC= 1.00D-01 BMatC= 2.03D-09 BMatP= 2.03D-09
 IDIUse=1 WtCom= 1.00D+00 WtEn= 0.00D+00
 Coeff-Com:  0.100D+01
 Coeff:      0.100D+01
 Gap=     0.208 Goal=   None    Shift=    0.000
 RMSDP=3.00D-06 MaxDP=5.19D-05 DE=-1.03D-06 OVMax= 3.09D-05

 Cycle   9  Pass 1  IDiag  1:
 E= -149.869464244638     Delta-E=       -0.000000001459 Rises=F Damp=F
 DIIS: error= 3.08D-06 at cycle   2 NSaved=   2.
 NSaved= 2 IEnMin= 2 EnMin= -149.869464244638     IErMin= 2 ErrMin= 3.08D-06
 ErrMax= 3.08D-06  0.00D+00 EMaxC= 1.00D-01 BMatC= 1.49D-09 BMatP= 2.03D-09
 IDIUse=1 WtCom= 1.00D+00 WtEn= 0.00D+00
 Coeff-Com:  0.451D+00 0.549D+00
 Coeff:      0.451D+00 0.549D+00
 Gap=     0.208 Goal=   None    Shift=    0.000
 RMSDP=8.14D-07 MaxDP=1.77D-05 DE=-1.46D-09 OVMax= 3.42D-05

 Cycle  10  Pass 1  IDiag  1:
 E= -149.869464245281     Delta-E=       -0.000000000642 Rises=F Damp=F
 DIIS: error= 2.72D-06 at cycle   3 NSaved=   3.
 NSaved= 3 IEnMin= 3 EnMin= -149.869464245281     IErMin= 3 ErrMin= 2.72D-06
 ErrMax= 2.72D-06  0.00D+00 EMaxC= 1.00D-01 BMatC= 8.79D-10 BMatP= 1.49D-09
 IDIUse=1 WtCom= 1.00D+00 WtEn= 0.00D+00
 Coeff-Com:  0.137D+00 0.414D+00 0.449D+00
 Coeff:      0.137D+00 0.414D+00 0.449D+00
 Gap=     0.208 Goal=   None    Shift=    0.000
 RMSDP=4.06D-07 MaxDP=8.70D-06 DE=-6.42D-10 OVMax= 1.76D-05

 Cycle  11  Pass 1  IDiag  1:
 E= -149.869464246140     Delta-E=       -0.000000000860 Rises=F Damp=F
 DIIS: error= 4.10D-07 at cycle   4 NSaved=   4.
 NSaved= 4 IEnMin= 4 EnMin= -149.869464246140     IErMin= 4 ErrMin= 4.10D-07
 ErrMax= 4.10D-07  0.00D+00 EMaxC= 1.00D-01 BMatC= 2.09D-11 BMatP= 8.79D-10
 IDIUse=1 WtCom= 1.00D+00 WtEn= 0.00D+00
 Coeff-Com: -0.104D-01 0.929D-01 0.185D+00 0.733D+00
 Coeff:     -0.104D-01 0.929D-01 0.185D+00 0.733D+00
 Gap=     0.208 Goal=   None    Shift=    0.000
 RMSDP=1.04D-07 MaxDP=2.35D-06 DE=-8.60D-10 OVMax= 1.53D-06

 Cycle  12  Pass 1  IDiag  1:
 E= -149.869464246157     Delta-E=       -0.000000000016 Rises=F Damp=F
 DIIS: error= 1.04D-07 at cycle   5 NSaved=   5.
 NSaved= 5 IEnMin= 5 EnMin= -149.869464246157     IErMin= 5 ErrMin= 1.04D-07
 ErrMax= 1.04D-07  0.00D+00 EMaxC= 1.00D-01 BMatC= 1.72D-12 BMatP= 2.09D-11
 IDIUse=1 WtCom= 1.00D+00 WtEn= 0.00D+00
 Coeff-Com: -0.827D-02 0.408D-01 0.902D-01 0.397D+00 0.480D+00
 Coeff:     -0.827D-02 0.408D-01 0.902D-01 0.397D+00 0.480D+00
 Gap=     0.208 Goal=   None    Shift=    0.000
 RMSDP=1.84D-08 MaxDP=3.00D-07 DE=-1.64D-11 OVMax= 4.72D-07

 Cycle  13  Pass 1  IDiag  1:
 E= -149.869464246156     Delta-E=        0.000000000000 Rises=F Damp=F
 DIIS: error= 3.11D-08 at cycle   6 NSaved=   6.
 NSaved= 6 IEnMin= 5 EnMin= -149.869464246157     IErMin= 6 ErrMin= 3.11D-08
 ErrMax= 3.11D-08  0.00D+00 EMaxC= 1.00D-01 BMatC= 1.39D-13 BMatP= 1.72D-12
 IDIUse=1 WtCom= 1.00D+00 WtEn= 0.00D+00
 Coeff-Com: -0.355D-02 0.119D-01 0.281D-01 0.131D+00 0.261D+00 0.571D+00
 Coeff:     -0.355D-02 0.119D-01 0.281D-01 0.131D+00 0.261D+00 0.571D+00
 Gap=     0.208 Goal=   None    Shift=    0.000
 RMSDP=5.35D-09 MaxDP=1.22D-07 DE= 1.14D-13 OVMax= 1.00D-07

 SCF Done:  E(RTPSSh) =  -149.869464246     A.U. after   13 cycles
            NFock= 13  Conv=0.54D-08     -V/T= 2.0094
 KE= 1.484676885935D+02 PE=-4.950778018358D+02 EE= 1.235487427366D+02
 Leave Link  502 at Mon Mar 21 20:06:02 2022, MaxMem=  8589934592 cpu:              27.6 elap:               3.6
 (Enter /home/sabyasachi/g16/l801.exe)
 DoSCS=F DFT=T ScalE2(SS,OS)=  1.000000  1.000000
 ExpMin= 6.71D-02 ExpMax= 1.71D+03 ExpMxC= 2.58D+02 IAcc=3 IRadAn=         5 AccDes= 0.00D+00
 HarFok:  IExCor=  205 AccDes= 0.00D+00 IRadAn=         5 IDoV=-2 UseB2=F ITyADJ=14
 ICtDFT= 12500011 ScaDFX=  1.000000  1.000000  1.000000  1.000000
 Largest valence mixing into a core orbital is  8.07D-05
 Largest core mixing into a valence orbital is  2.50D-05
 Range of M.O.s used for correlation:     4    92
 NBasis=    92 NAE=    12 NBE=    12 NFC=     3 NFV=     0
 NROrb=     89 NOA=     9 NOB=     9 NVA=    80 NVB=    80

 **** Warning!!: The largest alpha MO coefficient is  0.13962775D+02

 Leave Link  801 at Mon Mar 21 20:06:02 2022, MaxMem=  8589934592 cpu:               0.5 elap:               0.1
 (Enter /home/sabyasachi/g16/l914.exe)
 RHF ground state
 Keep R1, R2, and R3 ints in memory in canonical form, NReq=601491845.
 FoFCou: FMM=F IPFlag=           0 FMFlag=           0 FMFlg1=           0
         NFxFlg=           0 DoJE=F BraDBF=F KetDBF=F FulRan=T
         wScrn=  0.000000 ICntrl=       600 IOpCl=  0 I1Cent=           0 NGrid=           0
         NMat0=    1 NMatS0=   4278 NMatT0=    0 NMatD0=    1 NMtDS0=    0 NMtDT0=    0
 Symmetry not used in FoFCou.
 Two-electron integral symmetry not used.
 MDV=  8589934592 DFT=T DoStab=F Mixed=T DoRPA=T DoScal=F NonHer=T
 Making orbital integer symmetry assigments:
 Orbital symmetries:
       Occupied  (A) (A) (A) (A) (A) (A) (A) (A) (A) (A) (A) (A)
       Virtual   (A) (A) (A) (A) (A) (A) (A) (A) (A) (A) (A) (A)
                 (A) (A) (A) (A) (A) (A) (A) (A) (A) (A) (A) (A)
                 (A) (A) (A) (A) (A) (A) (A) (A) (A) (A) (A) (A)
                 (A) (A) (A) (A) (A) (A) (A) (A) (A) (A) (A) (A)
                 (A) (A) (A) (A) (A) (A) (A) (A) (A) (A) (A) (A)
                 (A) (A) (A) (A) (A) (A) (A) (A) (A) (A) (A) (A)
                 (A) (A) (A) (A) (A) (A) (A) (A)
   720 initial guesses have been made.
 Convergence on wavefunction:    0.001000000000000
 Davidson Disk Diagonalization:  ConvIn= 1.00D-03 SkipCon=T Conv= 1.00D-03.
 Max sub-space:  4320 roots to seek:  1440 dimension of matrix:         1440
 *** WARNING: Number of orthogonal guesses is          720
 Iteration     1 Dimension   720 NMult     0 NNew    720
 CISAX will form   720 AO SS matrices at one time.
 NMat=   720 NSing=   720 JSym2X= 0.
 New state      1 was old state      2
 New state      2 was old state      1
 New state     11 was old state     12
 New state     12 was old state     13
 New state     13 was old state     15
 New state     15 was old state     11
 New state     17 was old state     18
 New state     18 was old state     19
 New state     19 was old state     17
 New state     21 was old state     23
 New state     22 was old state     21
 New state     23 was old state     22
 New state     24 was old state     25
 New state     25 was old state     24
 New state     29 was old state     30
 New state     30 was old state     29
 New state     31 was old state     32
 New state     32 was old state     31
 New state     35 was old state     36
 New state     36 was old state     35
 New state     37 was old state     38
 New state     38 was old state     37
 New state     41 was old state     42
 New state     42 was old state     43
 New state     43 was old state     41
 New state     48 was old state     50
 New state     49 was old state     48
 New state     50 was old state     49
 New state     51 was old state     52
 New state     52 was old state     51
 New state     55 was old state     56
 New state     56 was old state     55
 New state     57 was old state     58
 New state     58 was old state     59
 New state     59 was old state     60
 New state     60 was old state     61
 New state     61 was old state     57
 New state     64 was old state     65
 New state     65 was old state     66
 New state     66 was old state     64
 New state     67 was old state     68
 New state     68 was old state     70
 New state     69 was old state     71
 New state     70 was old state     69
 New state     71 was old state     72
 New state     72 was old state     75
 New state     75 was old state     76
 New state     76 was old state     77
 New state     77 was old state     78
 New state     78 was old state     80
 New state     80 was old state     82
 New state     81 was old state     83
 New state     82 was old state     81
 New state     83 was old state     85
 New state     85 was old state     86
 New state     86 was old state     88
 New state     88 was old state     91
 New state     91 was old state     92
 New state     92 was old state     94
 New state     94 was old state     97
 New state     95 was old state     96
 New state     96 was old state     95
 New state     97 was old state     98
 New state     98 was old state    100
 New state     99 was old state    101
 New state    100 was old state     99
 New state    101 was old state    104
 New state    102 was old state    103
 New state    103 was old state    102
 New state    104 was old state    105
 New state    105 was old state    107
 New state    107 was old state    111
 New state    108 was old state    109
 New state    109 was old state    110
 New state    110 was old state    108
 New state    111 was old state    113
 New state    113 was old state    114
 New state    114 was old state    115
 New state    115 was old state    118
 New state    118 was old state    120
 New state    119 was old state    121
 New state    120 was old state    119
 New state    121 was old state    122
 New state    122 was old state    126
 New state    126 was old state    128
 New state    127 was old state    129
 New state    128 was old state    127
 New state    129 was old state    132
 New state    132 was old state    134
 New state    134 was old state    135
 New state    135 was old state    136
 New state    136 was old state    138
 New state    137 was old state    139
 New state    138 was old state    137
 New state    139 was old state    141
 New state    141 was old state    144
 New state    142 was old state    145
 New state    144 was old state    142
 New state    145 was old state    146
 New state    146 was old state    147
 New state    147 was old state    149
 New state    148 was old state    150
 New state    149 was old state    148
 New state    150 was old state    151
 New state    151 was old state    152
 New state    152 was old state    153
 New state    153 was old state    154
 New state    154 was old state    155
 New state    155 was old state    157
 New state    157 was old state    159
 New state    158 was old state    161
 New state    159 was old state    167
 New state    161 was old state    164
 New state    162 was old state    158
 New state    163 was old state    162
 New state    164 was old state    168
 New state    165 was old state    166
 New state    166 was old state    163
 New state    167 was old state    165
 New state    168 was old state    169
 New state    169 was old state    173
 New state    171 was old state    175
 New state    172 was old state    171
 New state    173 was old state    172
 New state    175 was old state    177
 New state    177 was old state    178
 New state    178 was old state    179
 New state    179 was old state    181
 New state    181 was old state    183
 New state    182 was old state    184
 New state    183 was old state    182
 New state    184 was old state    190
 New state    185 was old state    187
 New state    186 was old state    185
 New state    187 was old state    186
 New state    190 was old state    191
 New state    191 was old state    192
 New state    192 was old state    194
 New state    194 was old state    195
 New state    195 was old state    196
 New state    196 was old state    198
 New state    197 was old state    199
 New state    198 was old state    197
 New state    199 was old state    200
 New state    200 was old state    201
 New state    201 was old state    202
 New state    202 was old state    203
 New state    203 was old state    205
 New state    204 was old state    210
 New state    205 was old state    209
 New state    206 was old state    204
 New state    207 was old state    208
 New state    208 was old state    207
 New state    209 was old state    212
 New state    210 was old state    213
 New state    212 was old state    214
 New state    213 was old state    217
 New state    214 was old state    222
 New state    217 was old state    221
 New state    218 was old state    219
 New state    219 was old state    218
 New state    221 was old state    226
 New state    222 was old state    227
 New state    225 was old state    228
 New state    226 was old state    225
 New state    227 was old state    229
 New state    228 was old state    231
 New state    229 was old state    230
 New state    230 was old state    232
 New state    231 was old state    234
 New state    232 was old state    239
 New state    233 was old state    236
 New state    234 was old state    233
 New state    235 was old state    238
 New state    236 was old state    235
 New state    238 was old state    248
 New state    239 was old state    245
 New state    242 was old state    246
 New state    243 was old state    244
 New state    244 was old state    242
 New state    245 was old state    243
 New state    246 was old state    250
 New state    248 was old state    253
 New state    250 was old state    252
 New state    251 was old state    257
 New state    252 was old state    251
 New state    253 was old state    256
 New state    256 was old state    264
 New state    257 was old state    259
 New state    259 was old state    262
 New state    262 was old state    265
 New state    264 was old state    268
 New state    265 was old state    267
 New state    267 was old state    271
 New state    268 was old state    272
 New state    270 was old state    273
 New state    271 was old state    275
 New state    272 was old state    276
 New state    273 was old state    274
 New state    274 was old state    270
 New state    275 was old state    278
 New state    276 was old state    285
 New state    277 was old state    280
 New state    278 was old state    277
 New state    280 was old state    292
 New state    282 was old state    284
 New state    283 was old state    282
 New state    284 was old state    283
 New state    285 was old state    288
 New state    286 was old state    287
 New state    287 was old state    286
 New state    288 was old state    289
 New state    289 was old state    290
 New state    290 was old state    291
 New state    291 was old state    294
 New state    292 was old state    297
 New state    294 was old state    295
 New state    295 was old state    296
 No map to state    296
 New state    297 was old state    298
 New state    298 was old state    299
 New state    299 was old state    300
 New state    300 was old state    305
 New state    302 was old state    303
 New state    303 was old state    302
 New state    305 was old state    308
 New state    306 was old state    307
 New state    307 was old state    306
 New state    308 was old state    309
 New state    309 was old state    310
 New state    310 was old state    314
 New state    313 was old state    317
 New state    314 was old state    315
 New state    315 was old state    313
 New state    316 was old state    318
 New state    317 was old state    320
 New state    318 was old state    316
 New state    320 was old state    326
 New state    321 was old state    322
 New state    322 was old state    325
 New state    323 was old state    324
 New state    324 was old state    323
 New state    325 was old state    327
 New state    326 was old state    321
 New state    327 was old state    331
 New state    329 was old state    334
 New state    330 was old state    329
 New state    331 was old state    330
 New state    332 was old state    333
 New state    333 was old state    332
 New state    334 was old state    336
 New state    335 was old state    337
 New state    336 was old state    335
 New state    337 was old state    338
 New state    338 was old state    340
 New state    339 was old state    342
 New state    340 was old state    339
 New state    342 was old state    343
 New state    343 was old state    344
 New state    344 was old state    348
 New state    346 was old state    347
 New state    347 was old state    346
 New state    348 was old state    352
 New state    351 was old state    354
 New state    352 was old state    356
 New state    353 was old state    351
 New state    354 was old state    355
 New state    355 was old state    353
 New state    356 was old state    358
 New state    357 was old state    359
 New state    358 was old state    361
 New state    359 was old state    357
 New state    360 was old state    364
 New state    361 was old state    362
 New state    362 was old state    360
 New state    364 was old state    365
 New state    365 was old state    368
 New state    368 was old state    371
 New state    369 was old state    370
 New state    370 was old state    369
 New state    371 was old state    372
 New state    372 was old state    378
 New state    375 was old state    377
 New state    376 was old state    375
 New state    377 was old state    376
 New state    378 was old state    379
 New state    379 was old state    382
 New state    380 was old state    383
 New state    381 was old state    380
 New state    382 was old state    384
 New state    383 was old state    381
 New state    384 was old state    385
 New state    385 was old state    387
 New state    387 was old state    391
 New state    388 was old state    392
 New state    391 was old state    393
 New state    392 was old state    394
 New state    393 was old state    396
 New state    394 was old state    400
 New state    396 was old state    397
 New state    397 was old state    398
 New state    398 was old state    399
 New state    399 was old state    403
 New state    400 was old state    401
 New state    401 was old state    402
 New state    402 was old state    406
 New state    403 was old state    408
 New state    404 was old state    405
 New state    405 was old state    404
 New state    406 was old state    410
 New state    408 was old state    411
 New state    410 was old state    413
 New state    411 was old state    412
 New state    412 was old state    416
 New state    413 was old state    414
 New state    414 was old state    415
 No map to state    415
 New state    416 was old state    417
 New state    417 was old state    418
 New state    418 was old state    420
 New state    419 was old state    421
 New state    420 was old state    422
 New state    421 was old state    419
 New state    422 was old state    424
 New state    423 was old state    425
 New state    424 was old state    423
 New state    425 was old state    426
 New state    426 was old state    427
 New state    427 was old state    430
 New state    430 was old state    432
 New state    432 was old state    433
 New state    433 was old state    434
 New state    434 was old state    436
 New state    436 was old state    439
 New state    439 was old state    441
 New state    441 was old state    443
 New state    442 was old state    445
 New state    443 was old state    442
 New state    444 was old state    446
 New state    445 was old state    444
 New state    446 was old state    451
 New state    451 was old state    452
 New state    452 was old state    453
 New state    453 was old state    454
 No map to state    454
 New state    457 was old state    459
 New state    459 was old state    457
 New state    461 was old state    462
 New state    462 was old state    461
 New state    464 was old state    465
 New state    465 was old state    464
 New state    468 was old state    471
 New state    469 was old state    470
 New state    470 was old state    468
 New state    471 was old state    472
 New state    472 was old state    469
 New state    479 was old state    480
 New state    480 was old state    479
 New state    481 was old state    483
 New state    482 was old state    484
 New state    483 was old state    482
 New state    484 was old state    481
 New state    490 was old state    491
 New state    491 was old state    493
 New state    492 was old state    490
 New state    493 was old state    492
 New state    496 was old state    498
 New state    498 was old state    496
 New state    503 was old state    504
 New state    504 was old state    503
 New state    513 was old state    514
 New state    514 was old state    515
 New state    515 was old state    516
 New state    516 was old state    513
 New state    520 was old state    521
 New state    521 was old state    522
 New state    522 was old state    524
 New state    523 was old state    520
 New state    524 was old state    523
 New state    530 was old state    531
 New state    531 was old state    530
 New state    532 was old state    533
 New state    533 was old state    534
 New state    534 was old state    532
 New state    535 was old state    538
 New state    536 was old state    535
 New state    537 was old state    539
 New state    538 was old state    537
 New state    539 was old state    536
 New state    540 was old state    541
 New state    541 was old state    542
 New state    542 was old state    540
 New state    546 was old state    551
 New state    547 was old state    546
 New state    548 was old state    547
 New state    549 was old state    548
 New state    550 was old state    549
 New state    551 was old state    550
 New state    553 was old state    556
 New state    554 was old state    555
 New state    555 was old state    554
 New state    556 was old state    553
 New state    564 was old state    565
 New state    565 was old state    564
 New state    567 was old state    568
 New state    568 was old state    569
 New state    569 was old state    567
 New state    571 was old state    572
 New state    572 was old state    571
 New state    579 was old state    580
 New state    580 was old state    579
 New state    581 was old state    582
 New state    582 was old state    581
 New state    588 was old state    589
 New state    589 was old state    588
 New state    590 was old state    593
 New state    592 was old state    590
 New state    593 was old state    592
 New state    596 was old state    597
 New state    597 was old state    596
 New state    601 was old state    602
 New state    602 was old state    601
 New state    606 was old state    607
 New state    607 was old state    608
 New state    608 was old state    609
 New state    609 was old state    606
 New state    611 was old state    612
 New state    612 was old state    613
 New state    613 was old state    611
 New state    614 was old state    615
 New state    615 was old state    614
 New state    622 was old state    623
 New state    623 was old state    624
 New state    624 was old state    622
 New state    630 was old state    631
 New state    631 was old state    630
 New state    633 was old state    634
 New state    634 was old state    633
 New state    638 was old state    640
 New state    639 was old state    638
 New state    640 was old state    639
 New state    641 was old state    642
 New state    642 was old state    641
 New state    645 was old state    646
 New state    646 was old state    645
 New state    649 was old state    650
 New state    650 was old state    649
 New state    654 was old state    655
 New state    655 was old state    654
 New state    657 was old state    658
 New state    658 was old state    657
 New state    659 was old state    660
 New state    660 was old state    659
 New state    664 was old state    665
 New state    665 was old state    664
 New state    666 was old state    667
 New state    667 was old state    666
 New state    675 was old state    676
 New state    676 was old state    675
 New state    678 was old state    679
 New state    679 was old state    678
 New state    681 was old state    682
 New state    682 was old state    681
 New state    687 was old state    688
 New state    688 was old state    687
 New state    693 was old state    694
 New state    694 was old state    693
 New state    712 was old state    713
 New state    713 was old state    712
 Excitation Energies [eV] at current iteration:
 Root      1 :     5.914110965658915
 Root      2 :     6.072920736009860
 Root      3 :     6.397085271114785
 Root      4 :     7.178729207531678
 Root      5 :     7.360232581257114
 Root      6 :     7.853573453173959
 Root      7 :     8.114724604030004
 Root      8 :     8.668460744157237
 Root      9 :     8.881174357708186
 Root     10 :     8.997339844557436
 Root     11 :     9.415475953175099
 Root     12 :     9.652726113361926
 Root     13 :     9.706525484459414
 Root     14 :     9.891595812730216
 Root     15 :    10.215673708790360
 Root     16 :    10.341632195149910
 Root     17 :    10.505915648085930
 Root     18 :    10.576759828020510
 Root     19 :    10.674554883164330
 Root     20 :    10.954652786593520
 Root     21 :    11.230691710022330
 Root     22 :    11.292911973428750
 Root     23 :    11.297476362483410
 Root     24 :    11.508112346475520
 Root     25 :    11.634883632620360
 Root     26 :    11.698243817673690
 Root     27 :    11.867257379796740
 Root     28 :    11.980876712283100
 Root     29 :    12.023251084745950
 Root     30 :    12.120857955067920
 Root     31 :    12.278831987456650
 Root     32 :    12.349811771508820
 Root     33 :    12.538821846582430
 Root     34 :    12.765707117845820
 Root     35 :    12.835858411757740
 Root     36 :    12.857891328555830
 Root     37 :    12.867473986764490
 Root     38 :    12.912105279693960
 Root     39 :    13.148164811269200
 Root     40 :    13.313133615621610
 Root     41 :    13.484024510617440
 Root     42 :    13.550322572764070
 Root     43 :    13.583333660934240
 Root     44 :    13.740082251971450
 Root     45 :    13.894138063676540
 Root     46 :    13.968474867327290
 Root     47 :    14.228245642433970
 Root     48 :    14.283828347086640
 Root     49 :    14.368825418630710
 Root     50 :    14.440739150637260
 Root     51 :    14.480613546563690
 Root     52 :    14.619084085958060
 Root     53 :    14.694980993144950
 Root     54 :    14.734137752693880
 Root     55 :    15.004366284279560
 Root     56 :    15.108121104237600
 Root     57 :    15.123731430411580
 Root     58 :    15.196791497092160
 Root     59 :    15.200887201052320
 Root     60 :    15.288073254609530
 Root     61 :    15.336147309729530
 Root     62 :    15.413748539357700
 Root     63 :    15.542940585619570
 Root     64 :    15.618018643352410
 Root     65 :    15.659009344590890
 Root     66 :    15.675296864715630
 Root     67 :    15.826953050440620
 Root     68 :    15.835776760471460
 Root     69 :    15.921127239183970
 Root     70 :    15.986425979871070
 Root     71 :    16.081637334426960
 Root     72 :    16.195795789686370
 Root     73 :    16.232876769401140
 Root     74 :    16.262073725287050
 Root     75 :    16.294536794561960
 Root     76 :    16.372091021450750
 Root     77 :    16.488221454022670
 Root     78 :    16.505663911976420
 Root     79 :    16.553345201514920
 Root     80 :    16.621639526260680
 Root     81 :    16.651734293507680
 Root     82 :    16.686873572228440
 Root     83 :    16.718018947320390
 Root     84 :    16.806855459849030
 Root     85 :    16.882564309995790
 Root     86 :    16.978693080232500
 Root     87 :    17.089929546948180
 Root     88 :    17.192267330109320
 Root     89 :    17.255213674836880
 Root     90 :    17.282743379786400
 Root     91 :    17.364183483588260
 Root     92 :    17.418746607045150
 Root     93 :    17.488695265457240
 Root     94 :    17.608972722885380
 Root     95 :    17.742511742171860
 Root     96 :    17.818556927559690
 Root     97 :    17.890552182092360
 Root     98 :    18.024567385726230
 Root     99 :    18.054114773174440
 Root    100 :    18.076195785298590
 Root    101 :    18.193925256726100
 Root    102 :    18.281628503109590
 Root    103 :    18.416292287786120
 Root    104 :    18.467162248054060
 Root    105 :    18.522546460302410
 Root    106 :    18.602535783978420
 Root    107 :    18.755255574405680
 Root    108 :    18.792910146899660
 Root    109 :    18.832412140379590
 Root    110 :    18.856634965322950
 Root    111 :    18.932856189443410
 Root    112 :    18.990662304028630
 Root    113 :    19.075695772122930
 Root    114 :    19.157402476427850
 Root    115 :    19.230001696816830
 Root    116 :    19.313626551931990
 Root    117 :    19.336577936914280
 Root    118 :    19.377010055888290
 Root    119 :    19.415389753325840
 Root    120 :    19.444829950698990
 Root    121 :    19.478584456863380
 Root    122 :    19.572311989887940
 Root    123 :    19.647529744536990
 Root    124 :    19.719293221198470
 Root    125 :    19.762328352160620
 Root    126 :    19.844357845172370
 Root    127 :    19.956121175534830
 Root    128 :    19.981118825789600
 Root    129 :    20.066340924858140
 Root    130 :    20.150514181256740
 Root    131 :    20.167415403554500
 Root    132 :    20.261125776077060
 Root    133 :    20.301646727247230
 Root    134 :    20.376195026872560
 Root    135 :    20.457743146427840
 Root    136 :    20.500423976444660
 Root    137 :    20.605932325533040
 Root    138 :    20.627346390712030
 Root    139 :    20.657691604521910
 Root    140 :    20.713437642744410
 Root    141 :    20.847130285910150
 Root    142 :    20.883810176753620
 Root    143 :    20.923388492460340
 Root    144 :    20.958591485515360
 Root    145 :    21.015625101153180
 Root    146 :    21.385723298567830
 Root    147 :    21.399908904417720
 Root    148 :    21.426562936213860
 Root    149 :    21.491003350313520
 Root    150 :    21.541115878778050
 Root    151 :    21.554474554336220
 Root    152 :    21.594440012451420
 Root    153 :    21.661933730433370
 Root    154 :    21.718601072444980
 Root    155 :    21.786084241321380
 Root    156 :    21.914366424351250
 Root    157 :    22.039764269530650
 Root    158 :    22.155120475560640
 Root    159 :    22.247060763486140
 Root    160 :    22.290081920167560
 Root    161 :    22.323240520704560
 Root    162 :    22.347537741655770
 Root    163 :    22.393872663417310
 Root    164 :    22.404986597223110
 Root    165 :    22.481484264106120
 Root    166 :    22.548536022076650
 Root    167 :    22.608531133478840
 Root    168 :    22.678880474637570
 Root    169 :    22.733498462340080
 Root    170 :    22.869743535082610
 Root    171 :    22.909068193539980
 Root    172 :    22.937095539965320
 Root    173 :    22.985476450665140
 Root    174 :    23.039665363367710
 Root    175 :    23.118601243810950
 Root    176 :    23.211790574234690
 Root    177 :    23.281240175414520
 Root    178 :    23.324557391672130
 Root    179 :    23.378791574807990
 Root    180 :    23.481802806358820
 Root    181 :    23.535551322520750
 Root    182 :    23.612118392109710
 Root    183 :    23.713744860632140
 Root    184 :    23.909120664031270
 Root    185 :    23.948840990055420
 Root    186 :    23.977407250584950
 Root    187 :    24.042088779786150
 Root    188 :    24.106715048464120
 Root    189 :    24.194955541344610
 Root    190 :    24.248681170312570
 Root    191 :    24.306469729615300
 Root    192 :    24.347200842701120
 Root    193 :    24.384749922198810
 Root    194 :    24.503034642042190
 Root    195 :    24.576290375036290
 Root    196 :    24.666996707162330
 Root    197 :    24.768527794651180
 Root    198 :    24.779006699967360
 Root    199 :    24.855018319035710
 Root    200 :    24.921837403203440
 Root    201 :    25.107305189844450
 Root    202 :    25.245369053697870
 Root    203 :    25.361380409413120
 Root    204 :    25.417291863067450
 Root    205 :    25.453969378650190
 Root    206 :    25.535095419356590
 Root    207 :    25.564606347282680
 Root    208 :    25.598735543523040
 Root    209 :    25.675954296997850
 Root    210 :    25.697291478258390
 Root    211 :    25.722729132706450
 Root    212 :    25.798730610432200
 Root    213 :    25.884627288073810
 Root    214 :    26.009792802105430
 Root    215 :    26.037079696175010
 Root    216 :    26.067183066252530
 Root    217 :    26.175436567149780
 Root    218 :    26.281097010972380
 Root    219 :    26.319262854273170
 Root    220 :    26.345406803208010
 Root    221 :    26.458886267092380
 Root    222 :    26.463890373421830
 Root    223 :    26.542306731316960
 Root    224 :    26.576965616723080
 Root    225 :    26.666306929456120
 Root    226 :    26.702191448380250
 Root    227 :    26.761192096554060
 Root    228 :    26.793796395333130
 Root    229 :    26.850898582400810
 Root    230 :    26.941732744943380
 Root    231 :    26.984715936626990
 Root    232 :    27.100240471226340
 Root    233 :    27.156929263463270
 Root    234 :    27.210630039452000
 Root    235 :    27.363133386923110
 Root    236 :    27.397461663764310
 Root    237 :    27.473080230197730
 Root    238 :    27.518751610507990
 Root    239 :    27.570870031950760
 Root    240 :    27.744190470503760
 Root    241 :    27.959281845737230
 Root    242 :    28.022096469444090
 Root    243 :    28.063360442386910
 Root    244 :    28.111585741937270
 Root    245 :    28.151168858132120
 Root    246 :    28.194429431187030
 Root    247 :    28.347416553302690
 Root    248 :    28.464516252572850
 Root    249 :    28.672397720124010
 Root    250 :    28.773196670708600
 Root    251 :    28.905991455736480
 Root    252 :    28.931770084618620
 Root    253 :    29.008427796052390
 Root    254 :    29.076568313037520
 Root    255 :    29.126632018354580
 Root    256 :    29.183864744670620
 Root    257 :    29.359873315606020
 Root    258 :    29.403043609715510
 Root    259 :    29.528942668383860
 Root    260 :    29.577024096376900
 Root    261 :    29.607001445253450
 Root    262 :    29.661064869410910
 Root    263 :    29.756038187756510
 Root    264 :    29.808633951871610
 Root    265 :    29.921388384116700
 Root    266 :    30.003633416498070
 Root    267 :    30.104059562992040
 Root    268 :    30.185094413212490
 Root    269 :    30.308516335703350
 Root    270 :    30.343839064617610
 Root    271 :    30.377312709167950
 Root    272 :    30.429121326634740
 Root    273 :    30.561264398642860
 Root    274 :    30.623599994486700
 Root    275 :    30.710335538985820
 Root    276 :    30.736219288309180
 Root    277 :    30.903679513021310
 Root    278 :    30.923572733487230
 Root    279 :    30.951928356909780
 Root    280 :    31.092883085174800
 Root    281 :    31.224662970745880
 Root    282 :    31.304671379485260
 Root    283 :    31.409767364068640
 Root    284 :    31.463173168932740
 Root    285 :    31.500680665974780
 Root    286 :    31.557601593509740
 Root    287 :    31.693296603930590
 Root    288 :    31.712777252952360
 Root    289 :    31.814426791289950
 Root    290 :    31.931096260340530
 Root    291 :    32.004532035272560
 Root    292 :    32.187571300953780
 Root    293 :    32.284732747590690
 Root    294 :    32.314159226308970
 Root    295 :    32.358307291947730
 Root    296 :    32.473279177284890
 Root    297 :    32.529132127427740
 Root    298 :    32.826652981981790
 Root    299 :    32.930364178600390
 Root    300 :    33.085040316635120
 Root    301 :    33.116673999076800
 Root    302 :    33.251685144384960
 Root    303 :    33.264349041518140
 Root    304 :    33.318838009102870
 Root    305 :    33.430369091140650
 Root    306 :    33.507453515659340
 Root    307 :    33.538469108175730
 Root    308 :    33.704223753992590
 Root    309 :    34.017842547124450
 Root    310 :    34.162375354137100
 Root    311 :    34.232192593544140
 Root    312 :    34.319653176183310
 Root    313 :    34.369942257663860
 Root    314 :    34.539166118949100
 Root    315 :    34.582077753610770
 Root    316 :    34.624040770045470
 Root    317 :    34.701808890556720
 Root    318 :    34.761431020005870
 Root    319 :    34.965150694533750
 Root    320 :    35.053878592874240
 Root    321 :    35.079636132839550
 Root    322 :    35.179819322904560
 Root    323 :    35.254052475946430
 Root    324 :    35.331841070331640
 Root    325 :    35.405219174019120
 Root    326 :    35.417690641673670
 Root    327 :    35.640870781904920
 Root    328 :    35.678554818039390
 Root    329 :    35.818639402571040
 Root    330 :    35.829164317156830
 Root    331 :    35.996378677789280
 Root    332 :    36.137835845754790
 Root    333 :    36.272004634908730
 Root    334 :    36.410704671427220
 Root    335 :    36.445960322157250
 Root    336 :    36.510707337704350
 Root    337 :    36.581333623463320
 Root    338 :    36.676569324349980
 Root    339 :    36.882203971018190
 Root    340 :    36.932786593143750
 Root    341 :    37.081352615017270
 Root    342 :    37.259901565820640
 Root    343 :    37.348862191762930
 Root    344 :    37.499373716298170
 Root    345 :    37.597184261483010
 Root    346 :    37.649278081628620
 Root    347 :    37.734174495660400
 Root    348 :    37.985030367889640
 Root    349 :    38.210429861189520
 Root    350 :    38.232166722230740
 Root    351 :    38.323303697995000
 Root    352 :    38.361136310786020
 Root    353 :    38.405373534818220
 Root    354 :    38.497692296277160
 Root    355 :    38.579075718260980
 Root    356 :    38.646273130597070
 Root    357 :    39.009968193699680
 Root    358 :    39.106979790508380
 Root    359 :    39.122211541016730
 Root    360 :    39.249955551636580
 Root    361 :    39.268167237883140
 Root    362 :    39.358467595039390
 Root    363 :    39.651812733188120
 Root    364 :    39.719598215477410
 Root    365 :    40.027228086689600
 Root    366 :    40.192778342694690
 Root    367 :    40.246371939160350
 Root    368 :    40.328774121285310
 Root    369 :    40.374400585304680
 Root    370 :    40.419347810131570
 Root    371 :    40.590323238358860
 Root    372 :    40.651133679821920
 Root    373 :    40.859737631150100
 Root    374 :    41.169829652483830
 Root    375 :    41.380861876047400
 Root    376 :    41.446904976842130
 Root    377 :    41.512506602388890
 Root    378 :    41.657395179035800
 Root    379 :    41.682221228984420
 Root    380 :    41.736924103306410
 Root    381 :    41.946760730871750
 Root    382 :    41.972187176306420
 Root    383 :    42.003121723818250
 Root    384 :    42.247718567736850
 Root    385 :    42.366247016859480
 Root    386 :    42.442618693807530
 Root    387 :    42.474549689354170
 Root    388 :    42.509913534721760
 Root    389 :    42.674851142796630
 Root    390 :    42.710159016398390
 Root    391 :    42.936004462589520
 Root    392 :    43.183881156081140
 Root    393 :    43.279498600747000
 Root    394 :    43.404342281304350
 Root    395 :    43.479426422109820
 Root    396 :    43.602882702366240
 Root    397 :    43.969564201992050
 Root    398 :    44.236599640146090
 Root    399 :    44.383990923167110
 Root    400 :    44.543916798012360
 Root    401 :    44.735630028371700
 Root    402 :    44.886074423331760
 Root    403 :    44.984204629856430
 Root    404 :    45.145901524022680
 Root    405 :    45.251210719451100
 Root    406 :    45.421201445724290
 Root    407 :    45.549743456316430
 Root    408 :    45.556446924991800
 Root    409 :    45.607367277773250
 Root    410 :    45.744733698045640
 Root    411 :    45.796944621454830
 Root    412 :    46.022776245072860
 Root    413 :    46.221014025399730
 Root    414 :    46.342317237684570
 Root    415 :    46.654853718327130
 Root    416 :    46.948195011214320
 Root    417 :    47.116580347729680
 Root    418 :    47.404879643964250
 Root    419 :    47.561676139570130
 Root    420 :    47.580479086421480
 Root    421 :    47.613625425987320
 Root    422 :    47.833265948481990
 Root    423 :    48.009795371115240
 Root    424 :    48.143209265538150
 Root    425 :    48.356885536105960
 Root    426 :    48.437998165578430
 Root    427 :    48.567805632876700
 Root    428 :    48.831451115956330
 Root    429 :    48.944617120829470
 Root    430 :    49.169040149631850
 Root    431 :    49.318955642721530
 Root    432 :    49.345733418377950
 Root    433 :    49.675013822128690
 Root    434 :    49.722905547228330
 Root    435 :    49.869351800234720
 Root    436 :    49.967590016196550
 Root    437 :    50.221427236247430
 Root    438 :    50.277217595127750
 Root    439 :    50.385843412707390
 Root    440 :    50.539115507724650
 Root    441 :    50.764672250482360
 Root    442 :    50.795427490007160
 Root    443 :    50.955920691486470
 Root    444 :    51.111041682169410
 Root    445 :    51.241145936904340
 Root    446 :    51.349518102365080
 Root    447 :    51.809993233708620
 Root    448 :    51.920377958340350
 Root    449 :    51.962501589888680
 Root    450 :    52.199379955927720
 Root    451 :    52.451763276599150
 Root    452 :    52.618119737214190
 Root    453 :    52.746012670147470
 Root    454 :    52.866162167343990
 Root    455 :    53.162092752073920
 Root    456 :    53.386766169589220
 Root    457 :    53.485302967059390
 Root    458 :    53.567881806859400
 Root    459 :    53.696824289523010
 Root    460 :    53.934537944839930
 Root    461 :    54.115882330697670
 Root    462 :    54.197689458974060
 Root    463 :    54.325850323152660
 Root    464 :    54.548789161563230
 Root    465 :    54.622584633942820
 Root    466 :    54.867550306359870
 Root    467 :    54.928960408641220
 Root    468 :    55.040183176491140
 Root    469 :    55.115863771714640
 Root    470 :    55.257305476822330
 Root    471 :    55.312547720156910
 Root    472 :    55.407196787810590
 Root    473 :    55.486768034040860
 Root    474 :    55.728886915718010
 Root    475 :    55.904937994389930
 Root    476 :    56.400572802232940
 Root    477 :    56.631740419460930
 Root    478 :    56.669403555104240
 Root    479 :    56.892684608358450
 Root    480 :    56.965411271885010
 Root    481 :    57.187082061145870
 Root    482 :    57.244903960322810
 Root    483 :    57.314907165915390
 Root    484 :    57.345378740839640
 Root    485 :    57.532459460934120
 Root    486 :    57.793369124564780
 Root    487 :    57.826893626599500
 Root    488 :    57.889201612122710
 Root    489 :    58.110486332546250
 Root    490 :    58.229364297735740
 Root    491 :    58.460185908299150
 Root    492 :    58.525747933939040
 Root    493 :    58.618632783884880
 Root    494 :    58.896859990400140
 Root    495 :    59.131853540708500
 Root    496 :    59.452146081539260
 Root    497 :    59.486262279644830
 Root    498 :    59.494788653056940
 Root    499 :    59.794613731756580
 Root    500 :    60.170586620504640
 Root    501 :    60.241379866667190
 Root    502 :    60.286594723388790
 Root    503 :    60.391517377675230
 Root    504 :    60.494409568284960
 Root    505 :    60.866278984252470
 Root    506 :    61.092371706119220
 Root    507 :    61.147953417359050
 Root    508 :    61.219988193626790
 Root    509 :    61.354641043099440
 Root    510 :    61.546588652412710
 Root    511 :    61.760438414109170
 Root    512 :    61.942451745881310
 Root    513 :    62.029145200637150
 Root    514 :    62.185699798763010
 Root    515 :    62.326094244711550
 Root    516 :    62.423764796909450
 Root    517 :    62.472240107748560
 Root    518 :    62.562573252880220
 Root    519 :    62.846553342941430
 Root    520 :    62.999036904246840
 Root    521 :    63.124855044668380
 Root    522 :    63.316003310441460
 Root    523 :    63.412161833371770
 Root    524 :    63.434158626963020
 Root    525 :    63.614242626139260
 Root    526 :    63.886363292078530
 Root    527 :    63.964183178791380
 Root    528 :    64.042364929876290
 Root    529 :    64.205961008000710
 Root    530 :    64.418492254073950
 Root    531 :    64.509059946208820
 Root    532 :    64.616018554161130
 Root    533 :    64.849533251411460
 Root    534 :    64.876152070132160
 Root    535 :    65.056719271405060
 Root    536 :    65.240503345317340
 Root    537 :    65.288647641531510
 Root    538 :    65.352620019386010
 Root    539 :    65.417779359258320
 Root    540 :    65.615386555080630
 Root    541 :    65.701183035415600
 Root    542 :    65.823725521341400
 Root    543 :    66.266394010592340
 Root    544 :    66.568606460387100
 Root    545 :    66.882971802212130
 Root    546 :    67.095377072262920
 Root    547 :    67.152147257438300
 Root    548 :    67.217057422715650
 Root    549 :    67.363420987066970
 Root    550 :    67.439589648266140
 Root    551 :    67.546682000890000
 Root    552 :    67.828243995567550
 Root    553 :    68.004777005831950
 Root    554 :    68.120800211410440
 Root    555 :    68.201567303025510
 Root    556 :    68.251286336398930
 Root    557 :    68.290426481306780
 Root    558 :    68.492871984663590
 Root    559 :    68.713754629484820
 Root    560 :    68.864589188150900
 Root    561 :    69.139815009846000
 Root    562 :    69.260451881146410
 Root    563 :    69.597380881659380
 Root    564 :    69.913394774583760
 Root    565 :    70.019388238469870
 Root    566 :    70.234268264951010
 Root    567 :    70.373495347375230
 Root    568 :    70.497307804832500
 Root    569 :    70.525369827617870
 Root    570 :    70.616554930101020
 Root    571 :    70.929725411077530
 Root    572 :    71.040320596648680
 Root    573 :    71.434312239037440
 Root    574 :    71.508294715863000
 Root    575 :    71.659818015220250
 Root    576 :    71.875840976273640
 Root    577 :    72.060052423930270
 Root    578 :    72.145366304461940
 Root    579 :    72.444552439980060
 Root    580 :    72.514294146278500
 Root    581 :    72.652137670369510
 Root    582 :    72.794475215290110
 Root    583 :    72.900156345947960
 Root    584 :    73.121044545016940
 Root    585 :    73.512941494384020
 Root    586 :    73.851035711620410
 Root    587 :    73.974105391624150
 Root    588 :    74.258675032986550
 Root    589 :    74.372582126493000
 Root    590 :    74.505109998490200
 Root    591 :    74.622763776233770
 Root    592 :    74.787578309969120
 Root    593 :    74.929403572665630
 Root    594 :    75.375800130585690
 Root    595 :    75.445698132061840
 Root    596 :    75.601593706251490
 Root    597 :    75.621921465331330
 Root    598 :    75.840059730350360
 Root    599 :    76.531074149137750
 Root    600 :    76.569489087391420
 Root    601 :    77.124392961970570
 Root    602 :    77.182759472764730
 Root    603 :    77.257681193640110
 Root    604 :    77.540121155625400
 Root    605 :    77.732734285820950
 Root    606 :    78.031486553265070
 Root    607 :    78.201690267975390
 Root    608 :    78.245816241143060
 Root    609 :    78.285232362236240
 Root    610 :    78.549013293745790
 Root    611 :    78.833448730074150
 Root    612 :    78.849473966822760
 Root    613 :    78.980372051618230
 Root    614 :    79.214981766760300
 Root    615 :    79.415181217462750
 Root    616 :    79.778995174612380
 Root    617 :    79.937873778236640
 Root    618 :    80.232263191517700
 Root    619 :    80.548378158019290
 Root    620 :    80.698102031214290
 Root    621 :    80.974649994056110
 Root    622 :    81.409708579494800
 Root    623 :    81.542178658593220
 Root    624 :    81.717961049534860
 Root    625 :    81.881919022174160
 Root    626 :    82.359781101556140
 Root    627 :    82.512801783222570
 Root    628 :    82.613534466431990
 Root    629 :    82.663990749173640
 Root    630 :    83.190020426335020
 Root    631 :    83.219474547489540
 Root    632 :    83.460756142904560
 Root    633 :    83.767050855340140
 Root    634 :    83.858270309459840
 Root    635 :    84.532153273750050
 Root    636 :    84.928683641446430
 Root    637 :    85.563962286242050
 Root    638 :    85.807715878960340
 Root    639 :    85.933268329180340
 Root    640 :    86.100565451317450
 Root    641 :    86.560340337593570
 Root    642 :    86.748615917763150
 Root    643 :    86.866755156235240
 Root    644 :    87.367981833645690
 Root    645 :    87.555249142171020
 Root    646 :    87.685059678567640
 Root    647 :    88.271913677703580
 Root    648 :    88.756595428118430
 Root    649 :    88.802691225783050
 Root    650 :    88.936484523071660
 Root    651 :    89.536943917691370
 Root    652 :    89.899388523952270
 Root    653 :    89.908783146981090
 Root    654 :    90.750553204507650
 Root    655 :    90.833348599990980
 Root    656 :    91.267249281476710
 Root    657 :    91.515307848746600
 Root    658 :    91.695119450263150
 Root    659 :    91.979645737512800
 Root    660 :    92.260928533298380
 Root    661 :    92.654184753643190
 Root    662 :    92.766517864549900
 Root    663 :    93.137507650272810
 Root    664 :    93.364474408447190
 Root    665 :    93.522977920273080
 Root    666 :    93.861768301651540
 Root    667 :    94.011268077422670
 Root    668 :    94.224278659702080
 Root    669 :    94.947977916987360
 Root    670 :    95.299793444715040
 Root    671 :    95.531006741116530
 Root    672 :    95.771666747258290
 Root    673 :    95.968938573310380
 Root    674 :    96.168172091548230
 Root    675 :    96.847968480259770
 Root    676 :    96.921652176271120
 Root    677 :    97.138304126486670
 Root    678 :    97.409241226905720
 Root    679 :    97.458536294497680
 Root    680 :    98.372937873237940
 Root    681 :    98.976925699010050
 Root    682 :    99.028304598839030
 Root    683 :    99.681255711470730
 Root    684 :   100.098846639143400
 Root    685 :   100.481617499142200
 Root    686 :   100.845348094348100
 Root    687 :   101.148434525030000
 Root    688 :   101.216627588845000
 Root    689 :   101.921687250223400
 Root    690 :   102.169913914101700
 Root    691 :   102.445989238242400
 Root    692 :   102.652136330736200
 Root    693 :   103.217083611171900
 Root    694 :   103.489940199483000
 Root    695 :   103.968330443492100
 Root    696 :   104.321920578163100
 Root    697 :   105.345641116736700
 Root    698 :   105.779937307148800
 Root    699 :   106.162373272786100
 Root    700 :   106.311827623490900
 Root    701 :   106.350831079700800
 Root    702 :   107.415647853940400
 Root    703 :   107.633842765924300
 Root    704 :   107.881759370827900
 Root    705 :   108.347852275136000
 Root    706 :   109.391042193446200
 Root    707 :   109.582672899391400
 Root    708 :   109.925623656310300
 Root    709 :   111.224925007619300
 Root    710 :   111.351476872961200
 Root    711 :   111.745972728059600
 Root    712 :   112.123299576976000
 Root    713 :   112.444207764600800
 Root    714 :   112.730668665462800
 Root    715 :   114.465134172945700
 Root    716 :   116.251320232731200
 Root    717 :   117.326406968543600
 Root    718 :   119.452372328943700
 Root    719 :   122.278077383639200
 Root    720 :   124.404027880495400
 Convergence achieved for final wavefunctions.
 ***********************************************************************
 Excited states from <AA,BB:AA,BB> singles matrix:
 ***********************************************************************
 
 1PDM for each excited state written to RWF  633
 Ground to excited state transition densities written to RWF  633
 Ground to excited state transition electric dipole moments (Au):
       state          X           Y           Z        Dip. S.      Osc.
         1         0.4962     -0.0943      0.0448      0.2571      0.0373
         2         0.8880     -0.0294     -0.0145      0.7896      0.1175
         3        -0.6436      0.0210      0.1066      0.4261      0.0668
         4         0.0464     -0.0065     -0.3943      0.1576      0.0277
         5        -0.2492     -0.4192     -0.0643      0.2419      0.0436
         6         0.1863     -0.0426     -0.1654      0.0639      0.0123
         7         0.3071     -0.2022      0.0380      0.1366      0.0272
         8         0.2328     -0.0076      0.0059      0.0543      0.0115
         9         0.0927      0.6791      0.0995      0.4797      0.1044
        10        -0.1033      0.1615     -0.1422      0.0570      0.0126
        11        -0.0320      0.0836     -0.1386      0.0272      0.0063
        12         0.2929      0.1678      0.0712      0.1190      0.0281
        13        -0.3802      0.0848      0.0362      0.1531      0.0364
        14        -0.4147      0.3854     -0.0549      0.3236      0.0784
        15        -0.1786      0.5141      0.1120      0.3087      0.0773
        16         0.2892      0.0697     -0.1315      0.1058      0.0268
        17        -0.1149     -0.2050      0.3143      0.1540      0.0396
        18         0.2144     -0.0426      0.0494      0.0502      0.0130
        19         0.3307     -0.2639      0.0238      0.1796      0.0470
        20        -0.4287     -0.0444      0.0679      0.1904      0.0511
        21        -0.0959      0.0461      0.2844      0.0922      0.0254
        22        -0.5493     -0.0411     -0.0812      0.3100      0.0858
        23         0.3188      0.0411      0.0555      0.1064      0.0294
        24         0.3394     -0.1156     -0.0459      0.1307      0.0368
        25        -0.3156      0.1584     -0.2260      0.1758      0.0501
        26        -0.0986     -0.0096      0.2876      0.0925      0.0265
        27         0.4123     -0.0419     -0.0385      0.1732      0.0504
        28        -0.2532     -0.0538      0.1109      0.0793      0.0233
        29        -0.0313      0.0426     -0.0470      0.0050      0.0015
        30         0.1741     -0.4315      0.0864      0.2240      0.0665
        31         0.0327     -0.0358      0.3771      0.1446      0.0435
        32         0.1419      0.0200     -0.4749      0.2461      0.0745
        33        -0.1851     -0.4424     -0.1197      0.2443      0.0750
        34        -0.3053     -0.0167     -0.0315      0.0945      0.0296
        35         0.1197      0.2617     -0.0266      0.0835      0.0263
        36        -0.2828     -0.1234      0.0507      0.0978      0.0308
        37         0.0612      0.1502     -0.0423      0.0281      0.0089
        38        -0.3048      0.1909     -0.1312      0.1466      0.0464
        39         0.1331     -0.0545      0.2749      0.0963      0.0310
        40         0.1560      0.1067      0.0628      0.0397      0.0129
        41        -0.1882      0.0930      0.0400      0.0457      0.0151
        42         0.2612      0.0622      0.4870      0.3092      0.1027
        43         0.1425     -0.1314      0.1317      0.0549      0.0183
        44         0.1645     -0.0470     -0.1183      0.0432      0.0146
        45        -0.3230      0.0296      0.0416      0.1069      0.0364
        46         0.0538     -0.1299     -0.0545      0.0227      0.0078
        47        -0.2425      0.4015     -0.0192      0.2204      0.0768
        48        -0.2016      0.3209      0.1253      0.1593      0.0558
        49        -0.1593     -0.2412      0.0741      0.0891      0.0314
        50         0.3548      0.2140     -0.2168      0.2186      0.0774
        51         0.4403      0.2660      0.0708      0.2696      0.0957
        52         0.1915     -0.1043      0.0168      0.0478      0.0171
        53         0.0065     -0.2052      0.1357      0.0605      0.0218
        54         0.0458     -0.1943     -0.0831      0.0467      0.0169
        55         0.3938     -0.0621      0.0424      0.1607      0.0591
        56         0.1481     -0.0081     -0.0136      0.0222      0.0082
        57        -0.2161      0.0830     -0.0673      0.0581      0.0215
        58         0.0556      0.2476      0.0720      0.0696      0.0259
        59         0.0583     -0.3361     -0.2432      0.1755      0.0654
        60         0.0225     -0.0186      0.3607      0.1309      0.0490
        61        -0.1053     -0.0937     -0.1204      0.0344      0.0129
        62        -0.0920     -0.0406      0.3153      0.1095      0.0414
        63         0.1857     -0.2143      0.1108      0.0927      0.0353
        64         0.0768     -0.0564     -0.0235      0.0096      0.0037
        65         0.0172      0.0184     -0.0730      0.0060      0.0023
        66        -0.0901     -0.3837      0.1513      0.1782      0.0684
        67        -0.1283     -0.2328      0.3859      0.2196      0.0851
        68         0.0899     -0.1441     -0.3057      0.1223      0.0474
        69         0.0114      0.2568      0.1096      0.0781      0.0305
        70        -0.1328     -0.3386      0.0240      0.1328      0.0520
        71        -0.6702     -0.3623     -0.1333      0.5982      0.2357
        72        -0.1966      0.0547      0.2266      0.0930      0.0369
        73         0.3324     -0.1273      0.0722      0.1319      0.0524
        74        -0.2779      0.3027      0.0677      0.1734      0.0691
        75         0.0164     -0.1883     -0.3822      0.1818      0.0726
        76         0.0112     -0.0572      0.0768      0.0093      0.0037
        77         0.1806     -0.2862      0.0626      0.1184      0.0478
        78        -0.1682      0.2696      0.0232      0.1015      0.0410
        79        -0.0088     -0.0363      0.2978      0.0900      0.0365
        80        -0.4565     -0.0352     -0.1027      0.2202      0.0897
        81        -0.1975      0.1166      0.1280      0.0690      0.0281
        82        -0.1615      0.2401     -0.1345      0.1018      0.0416
        83        -0.3378      0.0448      0.0325      0.1172      0.0480
        84         0.1963      0.0198      0.1762      0.0700      0.0288
        85        -0.2893     -0.4135      0.0595      0.2582      0.1068
        86         0.4404      0.4233     -0.0513      0.3758      0.1563
        87        -0.1503      0.1579      0.3031      0.1393      0.0583
        88         0.4438     -0.2449      0.2189      0.3049      0.1284
        89         0.2391     -0.0693     -0.0021      0.0620      0.0262
        90        -0.1454      0.1169     -0.0983      0.0445      0.0188
        91         0.0585      0.2482      0.0164      0.0653      0.0278
        92        -0.0526     -0.1615     -0.0705      0.0338      0.0144
        93        -0.0014     -0.2083     -0.2842      0.1242      0.0532
        94        -0.2648      0.1584     -0.3028      0.1869      0.0806
        95        -0.0190      0.0949      0.3482      0.1306      0.0568
        96         0.0948     -0.2526      0.1392      0.0921      0.0402
        97         0.2489      0.3680     -0.1804      0.2299      0.1008
        98         0.0817      0.2994      0.0287      0.0972      0.0429
        99         0.2231     -0.0261     -0.1372      0.0693      0.0306
       100         0.2380     -0.0894     -0.1471      0.0863      0.0382
       101        -0.3635     -0.1948     -0.0605      0.1737      0.0774
       102         0.1045     -0.1828      0.0232      0.0449      0.0201
       103         0.1241      0.0852     -0.0238      0.0232      0.0105
       104         0.0770      0.0458     -0.1360      0.0265      0.0120
       105         0.0061     -0.3058     -0.3325      0.2041      0.0926
       106         0.1049      0.1611     -0.0804      0.0434      0.0198
       107         0.1481      0.0500      0.0648      0.0286      0.0132
       108         0.1091      0.0432      0.2847      0.0949      0.0437
       109         0.0548      0.1274     -0.1363      0.0378      0.0174
       110         0.0001     -0.0290     -0.2012      0.0413      0.0191
       111        -0.2253     -0.2431      0.1900      0.1460      0.0677
       112        -0.1171      0.0072      0.0054      0.0138      0.0064
       113         0.1730      0.1457     -0.2140      0.0970      0.0453
       114         0.2884      0.1615      0.2072      0.1522      0.0714
       115        -0.0554      0.0090     -0.0108      0.0033      0.0015
       116        -0.2201     -0.0595     -0.0698      0.0569      0.0269
       117         0.1433      0.0012     -0.0853      0.0278      0.0132
       118        -0.0697      0.0861      0.0511      0.0149      0.0071
       119        -0.0761      0.0362     -0.0082      0.0072      0.0034
[...]
     14  -0.805099D-02 -0.485655D+00  0.318689D+00  0.351614D-01 -0.220433D+00
     15  -0.102818D+00 -0.166346D-01  0.300548D-01  0.142015D+00  0.202859D-02
     16  -0.114517D+00 -0.983399D-01 -0.863394D-01  0.242772D-02 -0.219122D+00
               651           652           653           654           655 
      1  -0.146579D+03 -0.146566D+03 -0.146565D+03 -0.146534D+03 -0.146531D+03
      2   0.568223D-02  0.895580D-01 -0.830233D-01  0.389246D-01  0.153374D-01
      3  -0.295288D-01  0.760047D-01  0.211175D-02  0.533730D-01 -0.197285D-01
      4   0.590775D-01  0.103629D-01  0.717301D-02 -0.251442D-01  0.618798D-01
      5   0.418797D-02 -0.280894D+00  0.283630D+00 -0.128878D+00 -0.396158D-01
      6   0.924390D-01 -0.224681D+00 -0.859994D-02 -0.167600D+00  0.586986D-01
      7  -0.170073D+00 -0.293560D-01 -0.164868D-01  0.830097D-01 -0.183994D+00
      8   0.594466D-02  0.569453D-01 -0.527027D-01 -0.973125D-01 -0.832587D-01
      9   0.182479D+00  0.194310D-01 -0.880560D-02  0.846267D-01  0.230995D+00
     10   0.345849D-02  0.690644D-02  0.291172D+00 -0.232437D+00  0.916580D-01
     11   0.170539D+00 -0.130931D+00  0.772371D+00 -0.109125D+00 -0.206157D+00
     12  -0.402209D-01  0.329302D+00 -0.542904D-01 -0.131295D+00 -0.837591D-01
     13   0.148608D+00 -0.935023D-02  0.272183D-01  0.176687D+00 -0.131920D+00
     14  -0.145037D+00 -0.115320D+00 -0.350898D+00 -0.161195D+00 -0.974844D-01
     15  -0.274500D+00  0.563426D-01 -0.332328D-01 -0.677729D-01 -0.210017D+00
     16  -0.263184D-02  0.178839D+00 -0.100140D+00 -0.112687D+00 -0.161347D+00
               656           657           658           659           660 
      1  -0.146515D+03 -0.146506D+03 -0.146500D+03 -0.146489D+03 -0.146479D+03
      2  -0.528107D-01  0.465048D-01  0.417560D-02  0.277277D-01  0.556383D-01
      3   0.551910D-02  0.251934D-01 -0.191041D-01 -0.573850D-01  0.433911D-01
      4   0.282265D-01  0.632526D-02  0.406529D-02 -0.401165D-02 -0.124914D-01
      5   0.154596D+00 -0.144251D+00 -0.162994D-01 -0.100310D+00 -0.160522D+00
      6  -0.108078D-01 -0.760829D-01  0.568055D-01  0.161461D+00 -0.133273D+00
      7  -0.969880D-01 -0.786207D-02 -0.763397D-02  0.903632D-02  0.417139D-01
      8  -0.202284D+00  0.400627D-01 -0.243280D-01 -0.842553D-02 -0.432673D-01
      9   0.727155D-01 -0.808213D-02  0.490121D+00 -0.143947D+00  0.120135D-01
     10  -0.840347D-01 -0.349977D+00 -0.107141D+00 -0.346804D+00 -0.107282D-01
     11   0.130270D+01 -0.103763D+00 -0.248104D+00 -0.381474D+00  0.378572D+00
     12   0.188077D+00  0.627054D-01  0.135038D-01 -0.414286D-02 -0.290941D+00
     13   0.168653D+00 -0.198504D+00  0.955083D-01  0.561139D-01  0.857104D-01
     14   0.219635D+00 -0.457485D+00 -0.190962D+00 -0.827635D-01  0.593335D+00
     15  -0.402772D-01  0.269343D-01 -0.582644D+00  0.144353D+00 -0.133576D+00
     16  -0.327253D+00  0.120955D+00 -0.652313D-01  0.306435D-02 -0.118337D+00
               661           662           663           664           665 
      1  -0.146464D+03 -0.146460D+03 -0.146447D+03 -0.146438D+03 -0.146433D+03
      2  -0.389654D-02 -0.684077D-02 -0.263411D-01 -0.245273D-01  0.309660D-01
      3   0.699660D-01 -0.199725D-02  0.360672D-01  0.489960D-01  0.588184D-01
      4   0.125721D-01  0.155750D+00 -0.302943D-01  0.115887D-01  0.264149D-01
      5   0.886369D-02  0.173732D-01  0.907232D-01  0.804061D-01 -0.971282D-01
      6  -0.213070D+00  0.959257D-02 -0.104770D+00 -0.158578D+00 -0.188180D+00
      7  -0.272481D-01 -0.477592D+00  0.101596D+00 -0.429799D-01 -0.801213D-01
      8   0.311564D-01  0.118796D+00  0.238375D+00 -0.924988D-01 -0.668034D-01
      9  -0.632926D-01  0.867983D+00 -0.638158D+00  0.840198D-01  0.203782D+00
     10  -0.917268D-01  0.182542D+00 -0.270385D-02 -0.216003D+00 -0.282992D+00
     11  -0.275599D+00  0.701993D+00  0.209632D+00  0.156711D+00  0.101797D+00
     12   0.611288D-01  0.551114D-01  0.315011D+00 -0.220423D+00  0.491429D+00
     13   0.525530D-01  0.238589D+00 -0.256468D+00  0.577691D-01 -0.147669D+00
     14  -0.331569D+00  0.456277D+00 -0.157939D+00 -0.417793D+00 -0.269682D+00
     15   0.101209D+00 -0.873981D+00  0.618021D+00 -0.141898D+00 -0.264642D+00
     16  -0.104903D+00  0.232476D+00  0.375203D+00  0.131870D-03 -0.105797D+00
               666           667           668           669           670 
      1  -0.146420D+03 -0.146415D+03 -0.146407D+03 -0.146380D+03 -0.146367D+03
      2  -0.666520D-02  0.285632D-01 -0.629494D-01  0.305531D-01 -0.784848D-01
      3  -0.160370D-01 -0.459362D-01 -0.639123D-01 -0.225633D-01 -0.136852D-01
      4   0.545888D-01  0.544766D-01  0.117647D-01  0.672170D-02  0.120546D+00
      5   0.183039D-01 -0.827878D-01  0.189109D+00 -0.104285D+00  0.248259D+00
      6   0.513811D-01  0.136573D+00  0.192713D+00  0.824025D-01  0.515667D-01
      7  -0.156903D+00 -0.159650D+00 -0.358453D-01 -0.208179D-01 -0.362744D+00
      8   0.126213D+00  0.637737D-01  0.962709D-02  0.146923D-02  0.185298D+00
      9   0.517010D-01  0.179475D+00  0.314733D-01 -0.113080D-01  0.497418D+00
     10  -0.587128D-01  0.113914D+00 -0.106215D+00 -0.173213D+00  0.140928D+00
     11  -0.143330D+00  0.983293D-01 -0.125180D+00 -0.225716D+00  0.329982D+00
     12  -0.161207D-01 -0.860936D-01 -0.222401D-02 -0.780008D-01  0.339257D-01
     13  -0.186752D-01  0.191482D+00  0.123360D+00 -0.351557D-01  0.178566D+00
     14  -0.101910D+00  0.186566D+00 -0.105396D-01  0.188567D+00  0.147574D+00
     15  -0.866297D-01 -0.212532D+00 -0.575524D-01 -0.126393D-01 -0.654915D+00
     16   0.125205D+00  0.647034D-02  0.909333D-02 -0.581641D-01  0.277145D+00
               671           672           673           674           675 
      1  -0.146359D+03 -0.146350D+03 -0.146343D+03 -0.146335D+03 -0.146310D+03
      2   0.259051D-01  0.350394D-01 -0.615988D-01 -0.308637D-01 -0.357525D-01
      3   0.499078D-01  0.695522D-02  0.598108D-02  0.612168D-01 -0.330938D-01
      4  -0.248389D-01 -0.258475D-02  0.436430D-02  0.255037D-01 -0.229586D-01
      5  -0.837626D-01 -0.121963D+00  0.204671D+00  0.958127D-01  0.993647D-01
      6  -0.143389D+00 -0.245577D-01 -0.343110D-01 -0.198306D+00  0.104214D+00
      7   0.765548D-01 -0.201444D-02 -0.849907D-02 -0.756528D-01  0.688450D-01
      8  -0.239735D-01 -0.106274D+00  0.501119D-02 -0.336879D-01  0.136797D+00
      9  -0.131981D+00  0.354292D+00  0.440667D-01  0.333812D+00 -0.290667D+00
     10   0.445701D-01 -0.824506D-01  0.204946D+00 -0.443434D+00 -0.301829D+00
     11  -0.389349D-01 -0.578038D+00 -0.491658D+00  0.645142D+00 -0.479147D+00
     12  -0.145641D+00 -0.152502D+00  0.242379D+00 -0.203019D+00  0.936518D-01
     13  -0.619691D-01  0.920393D-01 -0.152212D+00  0.167949D+00 -0.152835D+00
     14   0.396572D-01 -0.290507D-02  0.715576D-02 -0.276193D+00 -0.270787D+00
     15   0.146287D+00 -0.326327D+00 -0.225624D-01 -0.499772D+00  0.323868D+00
     16   0.638801D-02 -0.997962D-01 -0.987746D-01 -0.438728D-01  0.273266D+00
               676           677           678           679           680 
      1  -0.146308D+03 -0.146300D+03 -0.146290D+03 -0.146288D+03 -0.146254D+03
      2   0.287694D-01 -0.969402D-01  0.771484D-01 -0.159738D-01  0.518888D-01
      3  -0.412845D-01 -0.735443D-01 -0.687143D-02  0.447564D-01 -0.249286D-01
      4  -0.117367D-03 -0.203789D-01 -0.233545D-01 -0.202450D-01 -0.159232D-01
      5  -0.100455D+00  0.322600D+00 -0.242768D+00  0.390200D-01 -0.167002D+00
      6   0.123641D+00  0.234176D+00  0.304611D-01 -0.138739D+00  0.555695D-01
      7  -0.329095D-02  0.700507D-01  0.791349D-01  0.619202D-01  0.492439D-01
      8  -0.300716D+00 -0.190509D+00  0.174971D-01 -0.321430D-01  0.129478D+00
      9   0.416744D+00  0.104887D+00 -0.107703D+00 -0.636240D-01 -0.240914D+00
     10   0.174620D+00  0.202418D+00  0.355306D+00 -0.867978D-03  0.722532D-01
     11  -0.489197D+00 -0.345711D-02  0.337721D-01 -0.925214D+00  0.101423D+00
     12   0.396746D-01 -0.486972D+00 -0.126927D+00 -0.171057D+00 -0.553831D+00
     13   0.240538D+00  0.507172D-01 -0.465644D-01 -0.938441D-01 -0.101023D+00
     14   0.315664D+00 -0.277671D+00  0.172938D+00 -0.555554D-01  0.117619D+00
     15  -0.430961D+00 -0.108089D+00  0.160404D+00  0.110580D+00  0.318328D+00
     16  -0.503846D+00 -0.339455D+00 -0.645329D-01 -0.302081D-01  0.253244D+00
               681           682           683           684           685 
      1  -0.146232D+03 -0.146230D+03 -0.146206D+03 -0.146191D+03 -0.146177D+03
      2   0.562344D-01 -0.410516D-01 -0.374201D-01 -0.564072D-02  0.289648D-01
      3  -0.677420D-01  0.811895D-01 -0.479721D-01  0.280155D-01 -0.513800D-01
      4   0.121675D-01  0.953752D-02 -0.349504D-02 -0.105885D-01 -0.242554D-01
      5  -0.171884D+00  0.129148D+00  0.114098D+00  0.137395D-01 -0.900068D-01
      6   0.202495D+00 -0.241317D+00  0.156114D+00 -0.997479D-01  0.152682D+00
      7  -0.342797D-01 -0.230139D-01  0.532540D-02  0.239373D-01  0.870566D-01
      8  -0.567143D-01 -0.385685D-01  0.570093D-01 -0.103595D+00  0.126899D+00
      9   0.134382D+00  0.384341D-01 -0.105678D+00  0.470344D-01 -0.228956D+00
     10   0.177760D+00 -0.199000D+00 -0.480644D-01 -0.319936D+00  0.480619D+00
     11  -0.183760D+00  0.123678D+00  0.821114D-01 -0.532462D-01 -0.829506D+00
     12  -0.924347D-02  0.229258D-01 -0.166690D+00 -0.462355D-01  0.182707D+00
     13   0.464311D-01  0.335967D-01  0.853594D-01  0.303696D-01 -0.164021D+00
     14   0.276608D+00 -0.224943D+00 -0.923238D-01 -0.693203D-01  0.309537D+00
     15  -0.939931D-01 -0.130334D+00  0.176292D+00  0.171725D-01  0.216770D+00
     16  -0.493135D-01  0.160951D+00  0.954793D-01 -0.791713D-01  0.333932D-01
               686           687           688           689           690 
      1  -0.146163D+03 -0.146152D+03 -0.146150D+03 -0.146124D+03 -0.146115D+03
      2   0.476580D-02  0.188243D-04 -0.363830D-01  0.480431D-01  0.297547D-01
      3   0.241895D-01 -0.344608D-01  0.317829D-01  0.406806D-01 -0.790049D-01
      4   0.497651D-01  0.676584D-01 -0.335524D-01 -0.247846D-02 -0.169951D-01
      5  -0.276724D-01  0.827172D-02  0.112049D+00 -0.152493D+00 -0.972571D-01
      6  -0.830659D-01  0.114465D+00 -0.102958D+00 -0.129445D+00  0.260571D+00
      7  -0.148463D+00 -0.219977D+00  0.110873D+00  0.109897D-01  0.456062D-01
      8   0.124303D+00  0.797049D-02 -0.684250D-01  0.217245D-01  0.600610D-02
      9  -0.940426D-02  0.378408D+00 -0.712856D-01 -0.368748D-02 -0.698259D-01
     10  -0.317904D-01 -0.760899D-01 -0.298736D-01  0.128313D+00  0.451263D+00
     11  -0.145783D-01 -0.137108D+00  0.112423D+01  0.381272D-01  0.120641D+00
     12   0.527801D-01  0.366912D+00  0.273824D+00  0.426330D-01 -0.193219D+00
     13  -0.243204D-01 -0.461496D-01 -0.116590D+00  0.916652D-01  0.928950D-01
     14  -0.425660D-01 -0.563602D-01 -0.308675D+00  0.194307D+00  0.411593D+00
     15  -0.697333D-02 -0.433918D+00 -0.307145D-01  0.124526D-01  0.501525D-01
     16   0.246465D+00 -0.302007D-01 -0.101480D+00  0.548339D-02  0.257446D-01
               691           692           693           694           695 
      1  -0.146105D+03 -0.146097D+03 -0.146076D+03 -0.146066D+03 -0.146049D+03
      2   0.182097D-01  0.129085D-01  0.108106D-01 -0.928596D-01  0.297397D-01
      3   0.116865D-01 -0.521995D-01  0.550277D-01  0.769925D-01 -0.244710D-01
      4   0.106782D-02 -0.198351D-03 -0.377853D-01  0.147397D-01  0.728328D-01
      5  -0.558363D-01 -0.286584D-01 -0.446345D-01  0.319209D+00 -0.102105D+00
      6  -0.418089D-01  0.157712D+00 -0.192668D+00 -0.261231D+00  0.907261D-01
      7  -0.160722D-02  0.106460D-02  0.129674D+00 -0.614007D-01 -0.243402D+00
      8  -0.101329D-01  0.234234D-01 -0.293487D-01 -0.239190D-01 -0.531245D-01
      9   0.271510D-01 -0.717100D-01 -0.148051D+00  0.914356D-01  0.520271D+00
     10  -0.316537D+00 -0.182868D+00  0.241896D+00  0.394741D-02  0.348850D+00
     11  -0.216994D+00 -0.168661D+00 -0.270922D+00 -0.135583D+00 -0.470518D+00
     12  -0.121215D+00 -0.109300D+00  0.304968D+00 -0.261616D+00 -0.155411D+00
     13   0.199408D+00  0.160148D+00 -0.613618D-01  0.536443D-01  0.199774D+00
     14  -0.342948D+00 -0.277682D+00  0.451878D+00 -0.567799D+00  0.267484D+00
     15  -0.625418D-01  0.109315D+00  0.141435D+00 -0.566007D-01 -0.437755D+00
     16   0.389712D-01  0.430402D-01 -0.953312D-01  0.175036D+00 -0.156144D+00
               696           697           698           699           700 
      1  -0.146036D+03 -0.145998D+03 -0.145982D+03 -0.145968D+03 -0.145963D+03
      2   0.547331D-01  0.108328D+00  0.200025D-02  0.234887D-01  0.242034D-01
      3   0.125953D-01 -0.311385D-01  0.255685D-01 -0.294523D-01  0.914432D-02
      4   0.513735D-01 -0.144815D-01 -0.285224D-02 -0.106491D-01 -0.501611D-02
      5  -0.180816D+00 -0.388634D+00 -0.216337D-01 -0.997653D-01 -0.105004D+00
      6  -0.452572D-01  0.979731D-01 -0.903337D-01  0.100376D+00 -0.209682D-01
      7  -0.166678D+00  0.442824D-01  0.635072D-02  0.384357D-01  0.184224D-01
      8   0.455884D-01 -0.955182D-03  0.455815D-01  0.297452D-01  0.390560D-01
      9   0.272681D+00 -0.486147D-01 -0.933344D-01 -0.137786D+00 -0.937014D-01
     10  -0.739911D-01 -0.212644D+00 -0.328190D-01 -0.783611D-01  0.156553D+00
     11  -0.607950D+00 -0.113098D+00  0.262418D-01 -0.330548D+00 -0.873217D-02
     12  -0.148516D-02 -0.582367D+00  0.892078D-01 -0.233295D+00 -0.426940D+00
     13   0.186272D-01 -0.477399D-01 -0.317896D-01  0.509629D-01  0.113475D+00
     14  -0.181908D+00  0.243320D+00 -0.607916D-01  0.396798D+00  0.481384D+00
     15  -0.323153D+00  0.974222D-01  0.994903D-04  0.134344D+00  0.415102D-01
     16   0.365954D-01  0.381058D-01  0.161454D-01 -0.959636D-02  0.132962D-01
               701           702           703           704           705 
      1  -0.145961D+03 -0.145922D+03 -0.145914D+03 -0.145905D+03 -0.145888D+03
      2   0.245404D-02 -0.475418D-01 -0.248373D-01 -0.119335D-01  0.326535D-01
      3  -0.571112D-01 -0.278475D-01 -0.167587D-01  0.400084D-01  0.263287D-01
      4  -0.964425D-02 -0.311965D-01 -0.196145D-01 -0.204558D-02 -0.245251D-01
      5  -0.117644D-01  0.182206D+00  0.100358D+00  0.549511D-01 -0.108619D+00
      6   0.189862D+00  0.118636D+00  0.478184D-01 -0.111790D+00 -0.969934D-01
      7   0.387236D-01  0.118791D+00  0.668001D-01  0.667460D-02  0.802621D-01
      8   0.309423D-01  0.967761D-02  0.550477D-01 -0.803005D-02 -0.143085D+00
      9  -0.719421D-01 -0.253650D+00 -0.220879D+00  0.832464D-02  0.892025D-01
     10   0.351584D+00 -0.209743D+00 -0.809290D-01  0.148752D+00 -0.788958D-01
     11   0.552020D-01  0.517806D+00 -0.214956D+00  0.217489D+00 -0.506558D+00
     12  -0.119997D+00 -0.956045D-01  0.698789D-01  0.127027D+00  0.118919D+00
     13   0.310528D-01 -0.701031D-03  0.306744D-01 -0.835428D-01  0.696733D-02
     14   0.527812D+00  0.135530D+00 -0.280072D+00  0.208047D+00 -0.173848D+00
     15   0.110235D+00  0.559197D-01  0.182961D+00 -0.368403D-01 -0.215344D+00
     16   0.425643D-01 -0.671553D-01  0.533214D-01 -0.214975D-01 -0.174080D+00
               706           707           708           709           710 
      1  -0.145849D+03 -0.145842D+03 -0.145830D+03 -0.145782D+03 -0.145777D+03
      2  -0.427541D-01  0.126999D-01 -0.514612D-01 -0.563285D-02  0.197801D-03
      3   0.617439D-01  0.116911D-01 -0.590438D-01  0.372736D-01 -0.311468D-01
      4  -0.241216D-01 -0.157551D-01 -0.522217D-01 -0.228598D-01 -0.320282D-01
      5   0.152992D+00 -0.421702D-01  0.181786D+00  0.416436D-01 -0.862644D-03
      6  -0.240733D+00 -0.344950D-01  0.224614D+00 -0.116404D+00  0.911509D-01
      7   0.855583D-01  0.561682D-01  0.183391D+00  0.785696D-01  0.109622D+00
      8   0.312507D-01  0.559748D-01  0.105086D+00 -0.698128D-02  0.319545D-01
      9  -0.233603D+00 -0.872658D-01 -0.421153D+00 -0.111512D+00 -0.239081D+00
     10  -0.210633D+00  0.515704D+00  0.449331D+00  0.265029D-01 -0.170610D+00
     11   0.950312D-01 -0.757595D+00  0.746192D+00  0.666297D+00 -0.433421D-02
     12   0.116884D+00  0.485734D+00  0.257586D-01  0.149264D+00 -0.125661D+00
     13  -0.419697D-01 -0.402282D-01 -0.628640D-01 -0.856767D-02  0.971549D-01
     14  -0.546589D-01  0.353788D+00  0.493430D+00 -0.150115D+00 -0.813169D-01
     15   0.178017D+00  0.169744D+00  0.291806D+00  0.415693D-01  0.191218D+00
     16   0.994952D-01 -0.576642D-01 -0.263292D-01  0.225174D-01  0.224356D-01
               711           712           713           714           715 
      1  -0.145763D+03 -0.145749D+03 -0.145737D+03 -0.145727D+03 -0.145663D+03
      2  -0.102942D+00  0.252205D-02 -0.348886D-01  0.527193D-02  0.773846D-01
      3  -0.707114D-01 -0.197531D-01  0.360166D-01 -0.540294D-02  0.447801D-01
      4   0.892039D-02 -0.146834D-01 -0.291324D-02 -0.337069D-01 -0.127018D-01
      5   0.398699D+00 -0.870098D-02  0.138515D+00  0.680467D-02 -0.320414D+00
      6   0.249097D+00  0.690614D-01 -0.125394D+00  0.434760D-01 -0.188779D+00
      7  -0.363243D-01  0.535518D-01  0.947920D-02  0.113584D+00  0.507419D-01
      8   0.198720D-01  0.205713D-01 -0.295274D-01  0.416587D-01 -0.116632D-01
      9   0.524495D-01 -0.167340D+00 -0.229253D-01 -0.241352D+00 -0.719636D-01
     10   0.681370D+00 -0.103334D+00 -0.537404D+00  0.208647D+00 -0.315357D+00
     11   0.824688D+00  0.505503D+00  0.102917D+01  0.199113D+00 -0.868321D+00
     12  -0.375192D+00 -0.131627D+00 -0.444141D+00 -0.109536D+00  0.128538D+00
     13   0.517999D-01 -0.442264D-01  0.295044D-01  0.931135D-01  0.423816D-01
     14   0.245368D+00 -0.133519D+00 -0.246651D+00  0.238467D+00 -0.355724D+00
     15  -0.157596D+00  0.122616D+00 -0.144355D+00  0.202703D+00  0.201340D+00
     16  -0.654644D-01  0.367630D-01  0.121365D+00 -0.191165D-01  0.550392D-01
               716           717           718           719           720 
      1  -0.145597D+03 -0.145558D+03 -0.145480D+03 -0.145376D+03 -0.145298D+03
      2  -0.575255D-01 -0.643860D-02  0.825000D-02  0.648492D-03  0.225223D-01
      3   0.519882D-01 -0.140102D-01  0.721683D-03 -0.374236D-01 -0.597326D-02
      4  -0.126672D-01  0.175692D-02 -0.355325D-02 -0.411062D-02  0.639509D-02
      5   0.174421D+00  0.342547D-01 -0.116558D-01 -0.374884D-01 -0.138516D-01
      6  -0.177015D+00  0.326367D-01  0.145031D-01  0.119073D+00  0.458040D-01
      7   0.429800D-01 -0.317827D-02  0.995223D-02  0.189486D-01 -0.273273D-01
      8   0.774530D-03  0.338413D-01  0.107296D-01  0.105133D-01  0.413714D-02
      9  -0.102625D+00 -0.479565D-01 -0.183140D-01  0.278339D-02  0.442350D-01
     10  -0.245118D+00  0.267581D+00  0.158312D+00  0.350719D+00  0.577135D-01
     11  -0.106273D+00  0.459138D+00 -0.575296D+00 -0.462666D+00 -0.331726D+00
     12   0.166538D+00  0.233273D+00 -0.445007D+00  0.127277D+00  0.146745D+00
     13  -0.398461D-01 -0.369497D-01  0.789302D-01 -0.206299D-01 -0.237545D-01
     14  -0.292708D+00  0.160873D+00 -0.228299D+00  0.293047D+00 -0.439543D-01
     15   0.368800D-01  0.323396D-01  0.103882D+00  0.547475D-01  0.970357D-02
     16   0.101747D+00 -0.583729D-01  0.421146D-01 -0.135852D+00 -0.275079D-01
 Unable to Open any file for archive entry.
 1\1\GINC-HEL11\SP\RTPSSh TD-FC\Gen\C1H4N2\SABYASACHI\21-Mar-2022\0\\#P
  TD(Nstates=10000) tpssh/Gen SCF(maxcycles=100) Int(Grid=ultrafine)\\x
 GDB7_00001_tier4.com\\0,1\N,0,1.106441,0.142513,-0.090982\N,0,-0.08075
 3,-0.51252,0.006066\C,0,-1.148696,0.167456,0.008166\H,0,1.854749,-0.40
 9916,0.291533\H,0,1.109677,1.100453,0.242713\H,0,-2.089851,-0.366199,0
 .035249\H,0,-1.162208,1.260974,-0.02408\\Version=EM64L-G16RevC.01\Stat
 e=1-A\HF=-149.8694642\RMSD=5.355e-09\PG=C01 [X(C1H4N2)]\\@
 The archive entry for this job was punched.


 SUCCESS IS COUNTED SWEETEST
 BY THOSE WHO NE'ER SUCCEED.
 TO COMPREHEND NECTAR
 REQUIRES SOREST NEED.
           EMILY DICKINSON
 Job cpu time:       0 days  0 hours 23 minutes 24.9 seconds.
 Elapsed time:       0 days  0 hours  2 minutes 55.9 seconds.
 File lengths (MBytes):  RWF=    666 Int=      0 D2E=      0 Chk=    150 Scr=      1
 Normal termination of Gaussian 16 at Mon Mar 21 20:08:53 2022.
