 Entering Gaussian System, Link 0=g16
 Input=000025.com
 Output=000025.log
 Initial command:
 /home/sabyasachi/g16/l1.exe "/scratch/sabyasachi/PBS_7976093.helios/Gau-155333.inp" -scrdir="/scratch/sabyasachi/PBS_7976093.helios/"
 Entering Link 1 = /home/sabyasachi/g16/l1.exe PID=    155334.
  
 Copyright (c) 1988-2019, Gaussian, Inc.  All Rights Reserved.
  
 This is part of the Gaussian(R) 16 program.  It is based on
 the Gaussian(R) 09 system (copyright 2009, Gaussian, Inc.),
 the Gaussian(R) 03 system (copyright 2003, Gaussian, Inc.),
 the Gaussian(R) 98 system (copyright 1998, Gaussian, Inc.),
 the Gaussian(R) 94 system (copyright 1995, Gaussian, Inc.),
 the Gaussian 92(TM) system (copyright 1992, Gaussian, Inc.),
 the Gaussian 90(TM) system (copyright 1990, Gaussian, Inc.),
 the Gaussian 88(TM) system (copyright 1988, Gaussian, Inc.),
 the Gaussian 86(TM) system (copyright 1986, Carnegie Mellon
 University), and the Gaussian 82(TM) system (copyright 1983,
 Carnegie Mellon University). Gaussian is a federally registered
 trademark of Gaussian, Inc.
  
 This software contains proprietary and confidential information,
 including trade secrets, belonging to Gaussian, Inc.
  
 This software is provided under written license and may be
 used, copied, transmitted, or stored only in accord with that
 written license.
  
 The following legend is applicable only to US Government
 contracts under FAR:
  
                    RESTRICTED RIGHTS LEGEND
  
 Use, reproduction and disclosure by the US Government is
 subject to restrictions as set forth in subparagraphs (a)
 and (c) of the Commercial Computer Software - Restricted
 Rights clause in FAR 52.227-19.
  
 Gaussian, Inc.
 340 Quinnipiac St., Bldg. 40, Wallingford CT 06492
  
  
 ---------------------------------------------------------------
 Warning -- This program may not be used in any manner that
 competes with the business of Gaussian, Inc. or will provide
 assistance to any competitor of Gaussian, Inc.  The licensee
 of this program is prohibited from giving any competitor of
 Gaussian, Inc. access to this program.  By using this program,
 the user acknowledges that Gaussian, Inc. is engaged in the
 business of creating and licensing software in the field of
 computational chemistry and represents and warrants to the
 licensee that it is not a competitor of Gaussian, Inc. and that
 it will not use this program in any manner prohibited above.
 ---------------------------------------------------------------
  

 Cite this work as:
 Gaussian 16, Revision C.01,
 M. J. Frisch, G. W. Trucks, H. B. Schlegel, G. E. Scuseria, 
 M. A. Robb, J. R. Cheeseman, G. Scalmani, V. Barone, 
 G. A. Petersson, H. Nakatsuji, X. Li, M. Caricato, A. V. Marenich, 
 J. Bloino, B. G. Janesko, R. Gomperts, B. Mennucci, H. P. Hratchian, 
 J. V. Ortiz, A. F. Izmaylov, J. L. Sonnenberg, D. Williams-Young, 
 F. Ding, F. Lipparini, F. Egidi, J. Goings, B. Peng, A. Petrone, 
 T. Henderson, D. Ranasinghe, V. G. Zakrzewski, J. Gao, N. Rega, 
 G. Zheng, W. Liang, M. Hada, M. Ehara, K. Toyota, R. Fukuda, 
 J. Hasegawa, M. Ishida, T. Nakajima, Y. Honda, O. Kitao, H. Nakai, 
 T. Vreven, K. Throssell, J. A. Montgomery, Jr., J. E. Peralta, 
 F. Ogliaro, M. J. Bearpark, J. J. Heyd, E. N. Brothers, K. N. Kudin, 
 V. N. Staroverov, T. A. Keith, R. Kobayashi, J. Normand, 
 K. Raghavachari, A. P. Rendell, J. C. Burant, S. S. Iyengar, 
 J. Tomasi, M. Cossi, J. M. Millam, M. Klene, C. Adamo, R. Cammi, 
 J. W. Ochterski, R. L. Martin, K. Morokuma, O. Farkas, 
 J. B. Foresman, and D. J. Fox, Gaussian, Inc., Wallingford CT, 2019.
 
 ******************************************
 Gaussian 16:  EM64L-G16RevC.01  3-Jul-2019
                21-Mar-2022 
 ******************************************
 %mem=64gb
 %nproc=8
 Will use up to    8 processors via shared memory.
 ---------------------------------------------------------------------
 #P TD(Nstates=10000) tpssh/Gen SCF(maxcycles=100) Int(Grid=ultrafine)
 ---------------------------------------------------------------------
 1/38=1,172=1/1;
 2/12=2,17=6,18=5,40=1/2;
 3/5=7,11=9,25=1,30=1,74=-35,75=-5/1,2,3,8;
 4//1;
 5/5=2,7=100,38=5/2;
 8/6=1,10=1,108=10000/1;
 9/41=10000,42=1,70=2/14;
 6/7=2,8=2,9=2,10=2/1;
 99/5=1,9=1/99;
 Leave Link    1 at Mon Mar 21 20:12:15 2022, MaxMem=  8589934592 cpu:               0.4 elap:               0.1
 (Enter /home/sabyasachi/g16/l101.exe)
 ---------------------
 xGDB7_00001_tier4.com
 ---------------------
 Symbolic Z-matrix:
 Charge =  0 Multiplicity = 1
 7                    -1.07847  -0.1569    0. 
 6                     0.16196   0.38494   0. 
 8                     1.18917  -0.24546  0. 
 1                    -1.89843   0.41943  0. 
 1                    -1.17812  -1.15707  -0.00001 
 1                     0.14071   1.48995  -0.00001 
 
 ITRead=  0  0  0  0  0  0
 MicOpt= -1 -1 -1 -1 -1 -1
 NAtoms=      6 NQM=        6 NQMF=       0 NMMI=      0 NMMIF=      0
                NMic=       0 NMicF=      0.
                    Isotopes and Nuclear Properties:
 (Nuclear quadrupole moments (NQMom) in fm**2, nuclear magnetic moments (NMagM)
  in nuclear magnetons)

  Atom         1           2           3           4           5           6
 IAtWgt=          14          12          16           1           1           1
 AtmWgt=  14.0030740  12.0000000  15.9949146   1.0078250   1.0078250   1.0078250
 NucSpn=           2           0           0           1           1           1
 AtZEff=  -0.0000000  -0.0000000  -0.0000000  -0.0000000  -0.0000000  -0.0000000
 NQMom=    2.0440000   0.0000000   0.0000000   0.0000000   0.0000000   0.0000000
 NMagM=    0.4037610   0.0000000   0.0000000   2.7928460   2.7928460   2.7928460
 AtZNuc=   7.0000000   6.0000000   8.0000000   1.0000000   1.0000000   1.0000000
 Leave Link  101 at Mon Mar 21 20:12:15 2022, MaxMem=  8589934592 cpu:               0.6 elap:               0.1
 (Enter /home/sabyasachi/g16/l202.exe)
                          Input orientation:                          
 ---------------------------------------------------------------------
 Center     Atomic      Atomic             Coordinates (Angstroms)
 Number     Number       Type             X           Y           Z
 ---------------------------------------------------------------------
      1          7           0       -1.078471   -0.156900    0.000001
      2          6           0        0.161963    0.384944    0.000002
      3          8           0        1.189170   -0.245458   -0.000001
      4          1           0       -1.898427    0.419427   -0.000004
      5          1           0       -1.178124   -1.157073   -0.000005
      6          1           0        0.140706    1.489948   -0.000007
 ---------------------------------------------------------------------
                    Distance matrix (angstroms):
                    1          2          3          4          5
     1  N    0.000000
     2  C    1.353614   0.000000
     3  O    2.269370   1.205222   0.000000
     4  H    1.002238   2.060679   3.158374   0.000000
     5  H    1.005125   2.042951   2.536754   1.733260   0.000000
     6  H    2.049024   1.105208   2.027538   2.303059   2.957369
                    6
     6  H    0.000000
 Stoichiometry    CH3NO
 Framework group  C1[X(CH3NO)]
 Deg. of freedom    12
 Full point group                 C1      NOp   1
 Largest Abelian subgroup         C1      NOp   1
 Largest concise Abelian subgroup C1      NOp   1
                         Standard orientation:                         
 ---------------------------------------------------------------------
 Center     Atomic      Atomic             Coordinates (Angstroms)
 Number     Number       Type             X           Y           Z
 ---------------------------------------------------------------------
      1          7           0        1.078471   -0.156900   -0.000001
      2          6           0       -0.161963    0.384944   -0.000002
      3          8           0       -1.189170   -0.245458    0.000001
      4          1           0        1.898427    0.419427    0.000004
      5          1           0        1.178124   -1.157073    0.000005
      6          1           0       -0.140706    1.489948    0.000007
 ---------------------------------------------------------------------
 Rotational constants (GHZ):          74.0566602          11.4602930           9.9244769
 Leave Link  202 at Mon Mar 21 20:12:15 2022, MaxMem=  8589934592 cpu:               0.1 elap:               0.0
 (Enter /home/sabyasachi/g16/l301.exe)
 General basis read from cards:  (5D, 7F)
 Centers:       4      5      6
 S 3 1.00
     Exponent=  1.3010701000D+01 Coefficients=  1.9682158000D-02
     Exponent=  1.9622572000D+00 Coefficients=  1.3796524000D-01
     Exponent=  4.4453796000D-01 Coefficients=  4.7831935000D-01
 S 1 1.00
     Exponent=  1.2194962000D-01 Coefficients=  1.0000000000D+00
 P 1 1.00
     Exponent=  8.0000000000D-01 Coefficients=  1.0000000000D+00
 P 1 1.00
     Exponent=  1.1704099050D-01 Coefficients=  1.0000000000D+00
 ****
 Centers:       2
 S 5 1.00
     Exponent=  1.2384016938D+03 Coefficients=  5.4568832082D-03
     Exponent=  1.8629004992D+02 Coefficients=  4.0638409211D-02
     Exponent=  4.2251176346D+01 Coefficients=  1.8025593888D-01
     Exponent=  1.1676557932D+01 Coefficients=  4.6315121755D-01
     Exponent=  3.5930506482D+00 Coefficients=  4.4087173314D-01
 S 1 1.00
     Exponent=  4.0245147363D-01 Coefficients=  1.0000000000D+00
 S 1 1.00
     Exponent=  1.3090182668D-01 Coefficients=  1.0000000000D+00
 S 1 1.00
     Exponent=  6.7053540256D-02 Coefficients=  1.0000000000D+00
 P 3 1.00
     Exponent=  9.4680970621D+00 Coefficients=  3.8387871728D-02
     Exponent=  2.0103545142D+00 Coefficients=  2.1117025112D-01
     Exponent=  5.4771004707D-01 Coefficients=  5.1328172114D-01
 P 1 1.00
     Exponent=  1.5268613795D-01 Coefficients=  1.0000000000D+00
 D 1 1.00
     Exponent=  8.0000000000D-01 Coefficients=  1.0000000000D+00
 D 1 1.00
     Exponent=  1.1713185140D-01 Coefficients=  1.0000000000D+00
 ****
 Centers:       1
 S 5 1.00
     Exponent=  1.7128415853D+03 Coefficients= -5.3934125305D-03
     Exponent=  2.5764812677D+02 Coefficients= -4.0221581118D-02
     Exponent=  5.8458245853D+01 Coefficients= -1.7931144990D-01
     Exponent=  1.6198367905D+01 Coefficients= -4.6376317823D-01
     Exponent=  5.0052600809D+00 Coefficients= -4.4171422662D-01
 S 1 1.00
     Exponent=  5.8731856571D-01 Coefficients=  1.0000000000D+00
 S 1 1.00
     Exponent=  1.8764592253D-01 Coefficients=  1.0000000000D+00
 S 1 1.00
     Exponent=  9.6171241529D-02 Coefficients=  1.0000000000D+00
 P 3 1.00
     Exponent=  1.3571470233D+01 Coefficients= -4.0072398852D-02
     Exponent=  2.9257372874D+00 Coefficients= -2.1807045028D-01
     Exponent=  7.9927750754D-01 Coefficients= -5.1294466049D-01
 P 1 1.00
     Exponent=  2.1954348034D-01 Coefficients=  1.0000000000D+00
 D 1 1.00
     Exponent=  1.0000000000D+00 Coefficients=  1.0000000000D+00
 D 1 1.00
     Exponent=  1.6697708112D-01 Coefficients=  1.0000000000D+00
 ****
 Centers:       3
 S 5 1.00
     Exponent=  2.2661767785D+03 Coefficients= -5.3431809926D-03
     Exponent=  3.4087010191D+02 Coefficients= -3.9890039230D-02
     Exponent=  7.7363135167D+01 Coefficients= -1.7853911985D-01
     Exponent=  2.1479644940D+01 Coefficients= -4.6427684959D-01
     Exponent=  6.6589433124D+00 Coefficients= -4.4309745172D-01
 S 1 1.00
     Exponent=  8.0975975668D-01 Coefficients=  1.0000000000D+00
 S 1 1.00
     Exponent=  2.5530772234D-01 Coefficients=  1.0000000000D+00
 S 1 1.00
     Exponent=  7.6572453250D-02 Coefficients=  1.0000000000D+00
 P 3 1.00
     Exponent=  1.7721504317D+01 Coefficients=  4.3394573193D-02
     Exponent=  3.8635505440D+00 Coefficients=  2.3094120765D-01
     Exponent=  1.0480920883D+00 Coefficients=  5.1375311064D-01
 P 1 1.00
     Exponent=  2.7641544411D-01 Coefficients=  1.0000000000D+00
 P 1 1.00
     Exponent=  6.9002276350D-02 Coefficients=  1.0000000000D+00
 D 1 1.00
     Exponent=  1.2000000000D+00 Coefficients=  1.0000000000D+00
 D 1 1.00
     Exponent=  1.7992024323D-01 Coefficients=  1.0000000000D+00
 ****
 Ernie: Thresh=  0.10000D-02 Tol=  0.10000D-05 Strict=F.
 There are    93 symmetry adapted cartesian basis functions of A   symmetry.
 There are    87 symmetry adapted basis functions of A   symmetry.
    87 basis functions,   129 primitive gaussians,    93 cartesian basis functions
    12 alpha electrons       12 beta electrons
       nuclear repulsion energy        71.5209938297 Hartrees.
 IExCor= 2523 DFT=T Ex+Corr=TPSSh ExCW=0 ScaHFX=  0.100000
 ScaDFX=  0.900000  0.900000  1.000000  1.000000 ScalE2=  1.000000  1.000000
 IRadAn=      5 IRanWt=     -1 IRanGd=            0 ICorTp=0 IEmpDi=  4
 NAtoms=    6 NActive=    6 NUniq=    6 SFac= 1.00D+00 NAtFMM=   60 NAOKFM=F Big=F
 Integral buffers will be    131072 words long.
 Regular integral format.
 Two-electron integral symmetry is turned on.
 Leave Link  301 at Mon Mar 21 20:12:15 2022, MaxMem=  8589934592 cpu:               0.5 elap:               0.1
 (Enter /home/sabyasachi/g16/l302.exe)
 NPDir=0 NMtPBC=     1 NCelOv=     1 NCel=       1 NClECP=     1 NCelD=      1
         NCelK=      1 NCelE2=     1 NClLst=     1 CellRange=     0.0.
 One-electron integrals computed using PRISM.
 One-electron integral symmetry used in STVInt
 NBasis=    87 RedAO= T EigKep=  2.36D-04  NBF=    87
 NBsUse=    87 1.00D-06 EigRej= -1.00D+00 NBFU=    87
 Precomputing XC quadrature grid using
 IXCGrd= 4 IRadAn=           5 IRanWt=          -1 IRanGd=           0 AccXCQ= 0.00D+00.
 Generated NRdTot=       0 NPtTot=           0 NUsed=           0 NTot=          32
 NSgBfM=    93    93    93    93    93 MxSgAt=     6 MxSgA2=     6.
 Leave Link  302 at Mon Mar 21 20:12:16 2022, MaxMem=  8589934592 cpu:               0.9 elap:               0.1
 (Enter /home/sabyasachi/g16/l303.exe)
 DipDrv:  MaxL=1.
 Leave Link  303 at Mon Mar 21 20:12:16 2022, MaxMem=  8589934592 cpu:               0.2 elap:               0.0
 (Enter /home/sabyasachi/g16/l308.exe)
 Leave Link  308 at Mon Mar 21 20:12:16 2022, MaxMem=  8589934592 cpu:               0.2 elap:               0.0
 (Enter /home/sabyasachi/g16/l401.exe)
 ExpMin= 6.71D-02 ExpMax= 2.27D+03 ExpMxC= 3.41D+02 IAcc=3 IRadAn=         5 AccDes= 0.00D+00
 Harris functional with IExCor= 1009 and IRadAn=       5 diagonalized for initial guess.
 HarFok:  IExCor= 1009 AccDes= 0.00D+00 IRadAn=         5 IDoV= 1 UseB2=F ITyADJ=14
 ICtDFT=  3500011 ScaDFX=  1.000000  1.000000  1.000000  1.000000
 FoFCou: FMM=F IPFlag=           0 FMFlag=      100000 FMFlg1=           0
         NFxFlg=           0 DoJE=T BraDBF=F KetDBF=T FulRan=T
         wScrn=  0.000000 ICntrl=       500 IOpCl=  0 I1Cent=   200000004 NGrid=           0
         NMat0=    1 NMatS0=      1 NMatT0=    0 NMatD0=    1 NMtDS0=    0 NMtDT0=    0
 Petite list used in FoFCou.
 Harris En= -169.636375986232    
 JPrj=0 DoOrth=F DoCkMO=F.
 Leave Link  401 at Mon Mar 21 20:12:16 2022, MaxMem=  8589934592 cpu:               2.3 elap:               0.3
 (Enter /home/sabyasachi/g16/l502.exe)
 Keep R1 ints in memory in canonical form, NReq=14682158.
 FoFCou: FMM=F IPFlag=           0 FMFlag=           0 FMFlg1=           0
         NFxFlg=           0 DoJE=F BraDBF=F KetDBF=F FulRan=T
         wScrn=  0.000000 ICntrl=       600 IOpCl=  0 I1Cent=           0 NGrid=           0
         NMat0=    1 NMatS0=   3828 NMatT0=    0 NMatD0=    1 NMtDS0=    0 NMtDT0=    0
 Symmetry not used in FoFCou.
 Two-electron integral symmetry not used.
 Closed shell SCF:
 Using DIIS extrapolation, IDIIS=  1040.
 NGot=  8589934592 LenX=  8582586684 LenY=  8582577594
 Requested convergence on RMS density matrix=1.00D-08 within 100 cycles.
 Requested convergence on MAX density matrix=1.00D-06.
 Requested convergence on             energy=1.00D-06.
 No special actions if energy rises.
 Integral accuracy reduced to 1.0D-05 until final iterations.

 Cycle   1  Pass 0  IDiag  1:
 E= -169.702608645953    
 DIIS: error= 3.01D-02 at cycle   1 NSaved=   1.
 NSaved= 1 IEnMin= 1 EnMin= -169.702608645953     IErMin= 1 ErrMin= 3.01D-02
 ErrMax= 3.01D-02  0.00D+00 EMaxC= 1.00D-01 BMatC= 1.01D-01 BMatP= 1.01D-01
 IDIUse=3 WtCom= 6.99D-01 WtEn= 3.01D-01
 Coeff-Com:  0.100D+01
 Coeff-En:   0.100D+01
 Coeff:      0.100D+01
 Gap=     0.237 Goal=   None    Shift=    0.000
 GapD=    0.237 DampG=1.000 DampE=0.500 DampFc=0.5000 IDamp=-1.
 Damping current iteration by 5.00D-01
 RMSDP=1.48D-02 MaxDP=5.02D-01              OVMax= 3.12D-01

 Cycle   2  Pass 0  IDiag  1:
 E= -169.686794676339     Delta-E=        0.015813969614 Rises=F Damp=T
 DIIS: error= 1.69D-02 at cycle   2 NSaved=   2.
 NSaved= 2 IEnMin= 1 EnMin= -169.702608645953     IErMin= 2 ErrMin= 1.69D-02
 ErrMax= 1.69D-02  0.00D+00 EMaxC= 1.00D-01 BMatC= 4.07D-02 BMatP= 1.01D-01
 IDIUse=3 WtCom= 8.31D-01 WtEn= 1.69D-01
 Coeff-Com:  0.367D+00 0.633D+00
 Coeff-En:   0.559D+00 0.441D+00
 Coeff:      0.400D+00 0.600D+00
 Gap=     0.250 Goal=   None    Shift=    0.000
 RMSDP=5.30D-03 MaxDP=1.98D-01 DE= 1.58D-02 OVMax= 2.26D-01

 Cycle   3  Pass 0  IDiag  1:
 E= -169.772555879405     Delta-E=       -0.085761203066 Rises=F Damp=F
 DIIS: error= 1.32D-02 at cycle   3 NSaved=   3.
 NSaved= 3 IEnMin= 3 EnMin= -169.772555879405     IErMin= 3 ErrMin= 1.32D-02
 ErrMax= 1.32D-02  0.00D+00 EMaxC= 1.00D-01 BMatC= 1.63D-02 BMatP= 4.07D-02
 IDIUse=3 WtCom= 8.68D-01 WtEn= 1.32D-01
 Coeff-Com:  0.173D+00 0.385D+00 0.442D+00
 Coeff-En:   0.000D+00 0.000D+00 0.100D+01
 Coeff:      0.150D+00 0.334D+00 0.516D+00
 Gap=     0.240 Goal=   None    Shift=    0.000
 RMSDP=1.53D-03 MaxDP=4.52D-02 DE=-8.58D-02 OVMax= 7.57D-02

 Cycle   4  Pass 0  IDiag  1:
 E= -169.783964879473     Delta-E=       -0.011409000068 Rises=F Damp=F
 DIIS: error= 5.76D-03 at cycle   4 NSaved=   4.
 NSaved= 4 IEnMin= 4 EnMin= -169.783964879473     IErMin= 4 ErrMin= 5.76D-03
 ErrMax= 5.76D-03  0.00D+00 EMaxC= 1.00D-01 BMatC= 3.39D-03 BMatP= 1.63D-02
 IDIUse=3 WtCom= 9.42D-01 WtEn= 5.76D-02
 Coeff-Com:  0.115D-01 0.435D-01 0.318D+00 0.627D+00
 Coeff-En:   0.000D+00 0.000D+00 0.210D+00 0.790D+00
 Coeff:      0.108D-01 0.410D-01 0.312D+00 0.636D+00
 Gap=     0.245 Goal=   None    Shift=    0.000
 RMSDP=5.67D-04 MaxDP=1.66D-02 DE=-1.14D-02 OVMax= 2.64D-02

 Cycle   5  Pass 0  IDiag  1:
 E= -169.786756085560     Delta-E=       -0.002791206087 Rises=F Damp=F
 DIIS: error= 9.62D-04 at cycle   5 NSaved=   5.
 NSaved= 5 IEnMin= 5 EnMin= -169.786756085560     IErMin= 5 ErrMin= 9.62D-04
 ErrMax= 9.62D-04  0.00D+00 EMaxC= 1.00D-01 BMatC= 1.10D-04 BMatP= 3.39D-03
 IDIUse=3 WtCom= 9.90D-01 WtEn= 9.62D-03
 Coeff-Com: -0.196D-02 0.383D-02 0.138D+00 0.333D+00 0.527D+00
 Coeff-En:   0.000D+00 0.000D+00 0.000D+00 0.000D+00 0.100D+01
 Coeff:     -0.194D-02 0.379D-02 0.136D+00 0.330D+00 0.531D+00
 Gap=     0.245 Goal=   None    Shift=    0.000
 RMSDP=1.23D-04 MaxDP=3.31D-03 DE=-2.79D-03 OVMax= 3.96D-03

 Cycle   6  Pass 0  IDiag  1:
 E= -169.786863658899     Delta-E=       -0.000107573339 Rises=F Damp=F
 DIIS: error= 1.41D-04 at cycle   6 NSaved=   6.
 NSaved= 6 IEnMin= 6 EnMin= -169.786863658899     IErMin= 6 ErrMin= 1.41D-04
 ErrMax= 1.41D-04  0.00D+00 EMaxC= 1.00D-01 BMatC= 3.10D-06 BMatP= 1.10D-04
 IDIUse=3 WtCom= 9.99D-01 WtEn= 1.41D-03
 Coeff-Com: -0.934D-03-0.100D-02 0.360D-01 0.890D-01 0.211D+00 0.665D+00
 Coeff-En:   0.000D+00 0.000D+00 0.000D+00 0.000D+00 0.000D+00 0.100D+01
 Coeff:     -0.933D-03-0.100D-02 0.360D-01 0.889D-01 0.211D+00 0.666D+00
 Gap=     0.245 Goal=   None    Shift=    0.000
 RMSDP=2.29D-05 MaxDP=4.06D-04 DE=-1.08D-04 OVMax= 4.72D-04

 Cycle   7  Pass 0  IDiag  1:
 E= -169.786866490040     Delta-E=       -0.000002831141 Rises=F Damp=F
 DIIS: error= 1.49D-05 at cycle   7 NSaved=   7.
 NSaved= 7 IEnMin= 7 EnMin= -169.786866490040     IErMin= 7 ErrMin= 1.49D-05
 ErrMax= 1.49D-05  0.00D+00 EMaxC= 1.00D-01 BMatC= 5.23D-08 BMatP= 3.10D-06
 IDIUse=1 WtCom= 1.00D+00 WtEn= 0.00D+00
 Coeff-Com:  0.107D-04-0.470D-03 0.388D-02 0.876D-02 0.351D-01 0.150D+00
 Coeff-Com:  0.803D+00
 Coeff:      0.107D-04-0.470D-03 0.388D-02 0.876D-02 0.351D-01 0.150D+00
 Coeff:      0.803D+00
 Gap=     0.245 Goal=   None    Shift=    0.000
 RMSDP=3.31D-06 MaxDP=4.11D-05 DE=-2.83D-06 OVMax= 5.80D-05

 Initial convergence to 1.0D-05 achieved.  Increase integral accuracy.
 Cycle   8  Pass 1  IDiag  1:
 E= -169.786868731956     Delta-E=       -0.000002241916 Rises=F Damp=F
 DIIS: error= 3.60D-06 at cycle   1 NSaved=   1.
 NSaved= 1 IEnMin= 1 EnMin= -169.786868731956     IErMin= 1 ErrMin= 3.60D-06
 ErrMax= 3.60D-06  0.00D+00 EMaxC= 1.00D-01 BMatC= 2.46D-09 BMatP= 2.46D-09
 IDIUse=1 WtCom= 1.00D+00 WtEn= 0.00D+00
 Coeff-Com:  0.100D+01
 Coeff:      0.100D+01
 Gap=     0.245 Goal=   None    Shift=    0.000
 RMSDP=3.31D-06 MaxDP=4.11D-05 DE=-2.24D-06 OVMax= 3.44D-05

 Cycle   9  Pass 1  IDiag  1:
 E= -169.786868732278     Delta-E=       -0.000000000322 Rises=F Damp=F
 DIIS: error= 5.15D-06 at cycle   2 NSaved=   2.
 NSaved= 2 IEnMin= 2 EnMin= -169.786868732278     IErMin= 1 ErrMin= 3.60D-06
 ErrMax= 5.15D-06  0.00D+00 EMaxC= 1.00D-01 BMatC= 2.77D-09 BMatP= 2.46D-09
 IDIUse=1 WtCom= 1.00D+00 WtEn= 0.00D+00
 Coeff-Com:  0.518D+00 0.482D+00
 Coeff:      0.518D+00 0.482D+00
 Gap=     0.245 Goal=   None    Shift=    0.000
 RMSDP=7.98D-07 MaxDP=1.81D-05 DE=-3.22D-10 OVMax= 3.50D-05

 Cycle  10  Pass 1  IDiag  1:
 E= -169.786868734029     Delta-E=       -0.000000001751 Rises=F Damp=F
 DIIS: error= 3.47D-06 at cycle   3 NSaved=   3.
 NSaved= 3 IEnMin= 3 EnMin= -169.786868734029     IErMin= 3 ErrMin= 3.47D-06
 ErrMax= 3.47D-06  0.00D+00 EMaxC= 1.00D-01 BMatC= 1.04D-09 BMatP= 2.46D-09
 IDIUse=1 WtCom= 1.00D+00 WtEn= 0.00D+00
 Coeff-Com:  0.191D+00 0.361D+00 0.448D+00
 Coeff:      0.191D+00 0.361D+00 0.448D+00
 Gap=     0.245 Goal=   None    Shift=    0.000
 RMSDP=3.10D-07 MaxDP=8.11D-06 DE=-1.75D-09 OVMax= 1.35D-05

 Cycle  11  Pass 1  IDiag  1:
 E= -169.786868734826     Delta-E=       -0.000000000797 Rises=F Damp=F
 DIIS: error= 7.09D-07 at cycle   4 NSaved=   4.
 NSaved= 4 IEnMin= 4 EnMin= -169.786868734826     IErMin= 4 ErrMin= 7.09D-07
 ErrMax= 7.09D-07  0.00D+00 EMaxC= 1.00D-01 BMatC= 4.33D-11 BMatP= 1.04D-09
 IDIUse=1 WtCom= 1.00D+00 WtEn= 0.00D+00
 Coeff-Com:  0.191D-01 0.121D+00 0.221D+00 0.639D+00
 Coeff:      0.191D-01 0.121D+00 0.221D+00 0.639D+00
 Gap=     0.245 Goal=   None    Shift=    0.000
 RMSDP=8.36D-08 MaxDP=2.35D-06 DE=-7.97D-10 OVMax= 2.87D-06

 Cycle  12  Pass 1  IDiag  1:
 E= -169.786868734862     Delta-E=       -0.000000000037 Rises=F Damp=F
 DIIS: error= 1.58D-07 at cycle   5 NSaved=   5.
 NSaved= 5 IEnMin= 5 EnMin= -169.786868734862     IErMin= 5 ErrMin= 1.58D-07
 ErrMax= 1.58D-07  0.00D+00 EMaxC= 1.00D-01 BMatC= 3.70D-12 BMatP= 4.33D-11
 IDIUse=1 WtCom= 1.00D+00 WtEn= 0.00D+00
 Coeff-Com: -0.498D-02 0.319D-01 0.667D-01 0.302D+00 0.604D+00
 Coeff:     -0.498D-02 0.319D-01 0.667D-01 0.302D+00 0.604D+00
 Gap=     0.245 Goal=   None    Shift=    0.000
 RMSDP=2.34D-08 MaxDP=4.78D-07 DE=-3.67D-11 OVMax= 8.81D-07

 Cycle  13  Pass 1  IDiag  1:
 E= -169.786868734866     Delta-E=       -0.000000000003 Rises=F Damp=F
 DIIS: error= 5.83D-08 at cycle   6 NSaved=   6.
 NSaved= 6 IEnMin= 6 EnMin= -169.786868734866     IErMin= 6 ErrMin= 5.83D-08
 ErrMax= 5.83D-08  0.00D+00 EMaxC= 1.00D-01 BMatC= 3.81D-13 BMatP= 3.70D-12
 IDIUse=1 WtCom= 1.00D+00 WtEn= 0.00D+00
 Coeff-Com: -0.396D-02 0.119D-01 0.251D-01 0.135D+00 0.343D+00 0.489D+00
 Coeff:     -0.396D-02 0.119D-01 0.251D-01 0.135D+00 0.343D+00 0.489D+00
 Gap=     0.245 Goal=   None    Shift=    0.000
 RMSDP=5.72D-09 MaxDP=1.67D-07 DE=-3.30D-12 OVMax= 1.67D-07

 SCF Done:  E(RTPSSh) =  -169.786868735     A.U. after   13 cycles
            NFock= 13  Conv=0.57D-08     -V/T= 2.0088
 KE= 1.682997230781D+02 PE=-5.404058794576D+02 EE= 1.307982938149D+02
 Leave Link  502 at Mon Mar 21 20:12:19 2022, MaxMem=  8589934592 cpu:              24.3 elap:               3.2
 (Enter /home/sabyasachi/g16/l801.exe)
 DoSCS=F DFT=T ScalE2(SS,OS)=  1.000000  1.000000
 ExpMin= 6.71D-02 ExpMax= 2.27D+03 ExpMxC= 3.41D+02 IAcc=3 IRadAn=         5 AccDes= 0.00D+00
 HarFok:  IExCor=  205 AccDes= 0.00D+00 IRadAn=         5 IDoV=-2 UseB2=F ITyADJ=14
 ICtDFT= 12500011 ScaDFX=  1.000000  1.000000  1.000000  1.000000
 Largest valence mixing into a core orbital is  8.27D-05
 Largest core mixing into a valence orbital is  2.10D-05
 Range of M.O.s used for correlation:     4    87
 NBasis=    87 NAE=    12 NBE=    12 NFC=     3 NFV=     0
 NROrb=     84 NOA=     9 NOB=     9 NVA=    75 NVB=    75

 **** Warning!!: The largest alpha MO coefficient is  0.22635806D+02

 Leave Link  801 at Mon Mar 21 20:12:19 2022, MaxMem=  8589934592 cpu:               0.4 elap:               0.1
 (Enter /home/sabyasachi/g16/l914.exe)
 RHF ground state
 Keep R1, R2, and R3 ints in memory in canonical form, NReq=513682702.
 FoFCou: FMM=F IPFlag=           0 FMFlag=           0 FMFlg1=           0
         NFxFlg=           0 DoJE=F BraDBF=F KetDBF=F FulRan=T
         wScrn=  0.000000 ICntrl=       600 IOpCl=  0 I1Cent=           0 NGrid=           0
         NMat0=    1 NMatS0=   3828 NMatT0=    0 NMatD0=    1 NMtDS0=    0 NMtDT0=    0
 Symmetry not used in FoFCou.
 Two-electron integral symmetry not used.
 MDV=  8589934592 DFT=T DoStab=F Mixed=T DoRPA=T DoScal=F NonHer=T
 Making orbital integer symmetry assigments:
 Orbital symmetries:
       Occupied  (A) (A) (A) (A) (A) (A) (A) (A) (A) (A) (A) (A)
       Virtual   (A) (A) (A) (A) (A) (A) (A) (A) (A) (A) (A) (A)
                 (A) (A) (A) (A) (A) (A) (A) (A) (A) (A) (A) (A)
                 (A) (A) (A) (A) (A) (A) (A) (A) (A) (A) (A) (A)
                 (A) (A) (A) (A) (A) (A) (A) (A) (A) (A) (A) (A)
                 (A) (A) (A) (A) (A) (A) (A) (A) (A) (A) (A) (A)
                 (A) (A) (A) (A) (A) (A) (A) (A) (A) (A) (A) (A)
                 (A) (A) (A)
   675 initial guesses have been made.
 Convergence on wavefunction:    0.001000000000000
 Davidson Disk Diagonalization:  ConvIn= 1.00D-03 SkipCon=T Conv= 1.00D-03.
 Max sub-space:  4050 roots to seek:  1350 dimension of matrix:         1350
 *** WARNING: Number of orthogonal guesses is          675
 Iteration     1 Dimension   675 NMult     0 NNew    675
 CISAX will form   675 AO SS matrices at one time.
 NMat=   675 NSing=   675 JSym2X= 0.
 New state      3 was old state      4
 New state      4 was old state      5
 New state      5 was old state      3
 New state      9 was old state     10
 New state     10 was old state      9
 New state     14 was old state     16
 New state     15 was old state     14
 New state     16 was old state     17
 New state     17 was old state     18
 New state     18 was old state     20
 New state     20 was old state     21
 New state     21 was old state     22
 New state     22 was old state     15
 New state     25 was old state     26
 New state     26 was old state     28
 New state     28 was old state     25
 New state     38 was old state     41
 New state     40 was old state     38
 New state     41 was old state     40
 New state     44 was old state     45
 New state     45 was old state     44
 New state     46 was old state     48
 New state     47 was old state     46
 New state     48 was old state     47
 New state     49 was old state     50
 New state     50 was old state     49
 New state     54 was old state     55
 New state     55 was old state     54
 New state     56 was old state     57
 New state     57 was old state     56
 New state     59 was old state     62
 New state     61 was old state     59
 New state     62 was old state     61
 New state     65 was old state     66
 New state     66 was old state     69
 New state     67 was old state     65
 New state     69 was old state     67
 New state     70 was old state     72
 New state     71 was old state     70
 New state     72 was old state     74
 New state     74 was old state     77
 New state     75 was old state     71
 New state     76 was old state     78
 New state     77 was old state     75
 New state     78 was old state     79
 New state     79 was old state     80
 New state     80 was old state     76
 New state     81 was old state     84
 New state     82 was old state     81
 New state     84 was old state     86
 New state     85 was old state     87
 New state     86 was old state     88
 New state     87 was old state     85
 New state     88 was old state     89
 New state     89 was old state     90
 New state     90 was old state     91
 New state     91 was old state     92
 New state     92 was old state     95
 New state     93 was old state     94
 New state     94 was old state     93
 New state     95 was old state     97
 New state     96 was old state     98
 New state     97 was old state     99
 New state     98 was old state     96
 New state     99 was old state    100
 New state    100 was old state    110
 New state    101 was old state    104
 New state    102 was old state    101
 New state    103 was old state    107
 New state    104 was old state    103
 New state    105 was old state    102
 New state    107 was old state    105
 New state    109 was old state    112
 New state    110 was old state    109
 New state    111 was old state    114
 New state    112 was old state    111
 New state    113 was old state    115
 New state    114 was old state    119
 New state    115 was old state    113
 New state    116 was old state    118
 New state    117 was old state    122
 New state    118 was old state    117
 New state    119 was old state    124
 New state    122 was old state    123
 New state    123 was old state    116
 New state    124 was old state    125
 New state    125 was old state    129
 New state    127 was old state    135
 New state    128 was old state    127
 New state    129 was old state    128
 New state    133 was old state    136
 New state    134 was old state    133
 New state    135 was old state    139
 New state    136 was old state    134
 New state    139 was old state    145
 New state    140 was old state    141
 New state    141 was old state    140
 New state    142 was old state    144
 New state    143 was old state    142
 New state    144 was old state    143
 New state    145 was old state    148
 New state    146 was old state    151
 New state    148 was old state    149
 New state    149 was old state    146
 New state    151 was old state    152
 New state    152 was old state    154
 New state    153 was old state    155
 New state    154 was old state    153
 New state    155 was old state    157
 New state    156 was old state    158
 New state    157 was old state    161
 New state    158 was old state    159
 New state    159 was old state    156
 New state    161 was old state    162
 New state    162 was old state    163
 New state    163 was old state    166
 New state    164 was old state    165
 New state    165 was old state    164
 New state    166 was old state    169
 New state    167 was old state    170
 New state    168 was old state    167
 New state    169 was old state    168
 New state    170 was old state    171
 New state    171 was old state    174
 New state    172 was old state    173
 New state    173 was old state    172
 New state    174 was old state    176
 New state    176 was old state    178
 New state    178 was old state    179
 New state    179 was old state    181
 New state    180 was old state    183
 New state    181 was old state    180
 New state    183 was old state    187
 New state    184 was old state    185
 New state    185 was old state    186
 New state    186 was old state    184
 New state    187 was old state    193
 New state    188 was old state    191
 New state    190 was old state    188
 New state    191 was old state    190
 New state    192 was old state    199
 New state    193 was old state    195
 New state    194 was old state    200
 New state    195 was old state    197
 New state    196 was old state    201
 New state    197 was old state    196
 New state    199 was old state    202
 New state    200 was old state    194
 New state    201 was old state    204
 New state    202 was old state    210
 New state    204 was old state    208
 New state    207 was old state    209
 New state    208 was old state    207
 New state    209 was old state    216
 New state    210 was old state    224
 New state    211 was old state    215
 New state    212 was old state    214
 New state    213 was old state    212
 New state    214 was old state    211
 New state    215 was old state    213
 New state    216 was old state    220
 New state    217 was old state    219
 New state    218 was old state    217
 New state    219 was old state    218
 New state    220 was old state    222
 New state    221 was old state    226
 New state    222 was old state    223
 New state    223 was old state    221
 New state    224 was old state    225
 New state    225 was old state    227
 New state    226 was old state    228
 New state    227 was old state    233
 New state    228 was old state    229
 New state    229 was old state    231
 New state    231 was old state    240
 New state    232 was old state    239
 New state    233 was old state    232
 New state    234 was old state    236
 New state    235 was old state    234
 New state    236 was old state    235
 New state    237 was old state    238
 New state    238 was old state    237
 New state    239 was old state    244
 New state    240 was old state    241
 New state    241 was old state    242
 New state    242 was old state    260
 New state    243 was old state    246
 New state    244 was old state    245
 New state    245 was old state    243
 New state    246 was old state    250
 New state    247 was old state    249
 New state    249 was old state    252
 New state    250 was old state    247
 New state    251 was old state    254
 New state    252 was old state    251
 New state    254 was old state    257
 New state    255 was old state    256
 New state    256 was old state    258
 New state    257 was old state    255
 New state    258 was old state    259
 New state    259 was old state    261
 New state    260 was old state    262
 New state    261 was old state    265
 New state    262 was old state    263
 New state    263 was old state    264
 New state    264 was old state    267
 New state    265 was old state    268
 New state    267 was old state    269
 No map to state    268
 New state    269 was old state    270
 New state    270 was old state    272
 New state    271 was old state    278
 New state    272 was old state    273
 New state    273 was old state    271
 New state    274 was old state    277
 New state    275 was old state    274
 New state    277 was old state    275
 New state    278 was old state    283
 New state    282 was old state    284
 New state    283 was old state    285
 New state    284 was old state    282
 New state    285 was old state    286
 New state    286 was old state    287
 New state    287 was old state    290
 New state    288 was old state    291
 New state    289 was old state    288
 New state    290 was old state    289
 New state    291 was old state    292
 New state    292 was old state    295
 New state    294 was old state    299
 New state    295 was old state    294
 New state    296 was old state    298
 New state    297 was old state    296
 New state    298 was old state    297
 New state    299 was old state    301
 New state    300 was old state    302
 New state    301 was old state    300
 New state    302 was old state    305
 New state    303 was old state    304
 New state    304 was old state    303
 New state    305 was old state    307
 New state    307 was old state    308
 New state    308 was old state    314
 New state    309 was old state    312
 New state    310 was old state    309
 New state    311 was old state    310
 New state    312 was old state    311
 New state    314 was old state    317
 New state    317 was old state    322
 New state    318 was old state    319
 New state    319 was old state    324
 New state    320 was old state    323
 New state    321 was old state    320
 New state    322 was old state    321
 New state    323 was old state    318
 New state    324 was old state    326
 New state    326 was old state    327
 New state    327 was old state    328
 New state    328 was old state    331
 New state    331 was old state    333
 New state    332 was old state    336
 New state    333 was old state    332
 New state    335 was old state    344
 New state    336 was old state    335
 New state    339 was old state    341
 New state    341 was old state    339
 New state    344 was old state    346
 New state    346 was old state    347
 New state    347 was old state    348
 New state    348 was old state    350
 New state    350 was old state    351
 New state    351 was old state    353
 New state    353 was old state    354
 New state    354 was old state    357
 New state    357 was old state    358
 New state    358 was old state    360
 New state    360 was old state    361
 New state    361 was old state    363
 New state    363 was old state    364
 New state    364 was old state    367
 New state    367 was old state    372
 New state    368 was old state    369
 New state    369 was old state    373
 New state    370 was old state    368
 New state    372 was old state    370
 New state    373 was old state    374
 New state    374 was old state    375
 New state    375 was old state    379
 New state    376 was old state    378
 New state    378 was old state    381
 New state    379 was old state    382
 New state    381 was old state    376
 New state    382 was old state    384
 New state    384 was old state    385
 New state    385 was old state    387
 New state    387 was old state    391
 New state    390 was old state    394
 New state    391 was old state    392
 New state    392 was old state    393
 New state    393 was old state    396
 New state    394 was old state    395
 New state    395 was old state    390
 New state    396 was old state    397
 New state    397 was old state    398
 New state    398 was old state    399
 New state    399 was old state    400
 New state    400 was old state    401
 New state    401 was old state    402
 New state    402 was old state    403
 New state    403 was old state    404
 New state    404 was old state    407
 New state    407 was old state    408
 New state    408 was old state    410
 New state    410 was old state    411
 New state    411 was old state    413
 New state    413 was old state    414
 New state    414 was old state    417
 New state    415 was old state    418
 New state    416 was old state    415
 New state    417 was old state    419
 New state    418 was old state    416
 New state    419 was old state    420
 New state    420 was old state    421
 New state    421 was old state    426
 New state    422 was old state    423
 New state    423 was old state    422
 New state    425 was old state    427
 New state    426 was old state    425
 New state    427 was old state    428
 New state    428 was old state    430
 New state    429 was old state    431
 New state    430 was old state    429
 New state    431 was old state    432
 New state    432 was old state    433
 New state    433 was old state    434
 New state    434 was old state    442
 New state    435 was old state    436
 New state    436 was old state    435
 New state    438 was old state    439
 New state    439 was old state    438
 New state    440 was old state    441
 New state    441 was old state    446
 New state    442 was old state    443
 New state    443 was old state    440
 New state    444 was old state    445
 New state    445 was old state    444
 New state    446 was old state    447
 New state    447 was old state    448
 New state    448 was old state    452
 New state    452 was old state    453
 New state    453 was old state    454
 New state    454 was old state    455
 New state    455 was old state    457
 New state    456 was old state    458
 New state    457 was old state    456
 New state    458 was old state    459
 New state    459 was old state    460
 New state    460 was old state    462
 New state    461 was old state    464
 New state    462 was old state    461
 New state    464 was old state    466
 New state    465 was old state    469
 New state    466 was old state    468
 New state    467 was old state    476
 New state    468 was old state    467
 New state    469 was old state    470
 New state    470 was old state    465
 New state    476 was old state    478
 New state    478 was old state    482
 New state    479 was old state    481
 New state    481 was old state    479
 New state    482 was old state    483
 No map to state    483
 New state    485 was old state    486
 New state    486 was old state    487
 New state    487 was old state    485
 New state    488 was old state    489
 New state    489 was old state    490
 New state    490 was old state    491
 New state    491 was old state    488
 New state    492 was old state    494
 New state    493 was old state    492
 New state    494 was old state    493
 New state    496 was old state    498
 New state    497 was old state    496
 New state    498 was old state    497
 New state    502 was old state    504
 New state    503 was old state    502
 New state    504 was old state    503
 New state    508 was old state    511
 New state    509 was old state    508
 New state    510 was old state    509
 New state    511 was old state    512
 New state    512 was old state    510
 New state    513 was old state    514
 New state    514 was old state    515
 New state    515 was old state    513
 New state    520 was old state    521
 New state    521 was old state    520
 New state    523 was old state    524
 New state    524 was old state    523
 New state    527 was old state    528
 New state    528 was old state    527
 New state    534 was old state    535
 New state    535 was old state    534
 New state    536 was old state    537
 New state    537 was old state    539
 New state    538 was old state    536
 New state    539 was old state    538
 New state    545 was old state    546
 New state    546 was old state    545
 New state    549 was old state    550
 New state    550 was old state    549
 New state    551 was old state    552
 New state    552 was old state    551
 New state    553 was old state    554
 New state    554 was old state    555
 New state    555 was old state    553
 New state    558 was old state    559
 New state    559 was old state    558
 New state    560 was old state    561
 New state    561 was old state    560
 New state    563 was old state    564
 New state    564 was old state    563
 New state    565 was old state    566
 New state    566 was old state    565
 New state    568 was old state    572
 New state    570 was old state    568
 New state    572 was old state    573
 New state    573 was old state    570
 New state    574 was old state    575
 New state    575 was old state    576
 New state    576 was old state    574
 New state    577 was old state    578
 New state    578 was old state    580
 New state    579 was old state    577
 New state    580 was old state    579
 New state    581 was old state    583
 New state    582 was old state    581
 New state    583 was old state    584
 New state    584 was old state    582
 New state    585 was old state    586
 New state    586 was old state    589
 New state    587 was old state    588
 New state    588 was old state    590
 New state    589 was old state    591
 New state    590 was old state    585
 New state    591 was old state    593
 New state    592 was old state    595
 New state    593 was old state    587
 New state    594 was old state    592
 New state    595 was old state    594
 New state    596 was old state    597
 New state    597 was old state    598
 New state    598 was old state    600
 New state    599 was old state    601
 New state    600 was old state    599
 New state    601 was old state    603
 New state    603 was old state    605
 New state    605 was old state    606
 New state    606 was old state    596
 New state    607 was old state    609
 New state    608 was old state    607
 New state    609 was old state    608
 New state    612 was old state    613
 New state    613 was old state    612
 New state    618 was old state    619
 New state    619 was old state    620
 New state    620 was old state    618
 New state    623 was old state    625
 New state    625 was old state    623
 New state    627 was old state    628
 New state    628 was old state    627
 New state    629 was old state    631
 New state    630 was old state    629
 New state    631 was old state    632
 New state    632 was old state    630
 New state    635 was old state    636
 New state    636 was old state    635
 New state    638 was old state    639
 New state    639 was old state    638
 New state    647 was old state    648
 New state    648 was old state    647
 New state    651 was old state    652
 New state    652 was old state    651
 New state    655 was old state    657
 New state    657 was old state    655
 New state    662 was old state    663
 New state    663 was old state    662
 New state    673 was old state    674
 New state    674 was old state    673
 Excitation Energies [eV] at current iteration:
 Root      1 :     5.754180025999057
 Root      2 :     6.713875758450302
 Root      3 :     7.195350804123406
 Root      4 :     7.452598910329217
 Root      5 :     7.950517027970414
 Root      6 :     8.014400991603569
 Root      7 :     8.455812194824141
 Root      8 :     8.987906351951763
 Root      9 :     9.226812235389714
 Root     10 :     9.264052482196227
 Root     11 :     9.694036824957278
 Root     12 :     9.739592021971305
 Root     13 :     9.992710885094628
 Root     14 :    10.083234076579610
 Root     15 :    10.143981652037030
 Root     16 :    10.246377016375350
 Root     17 :    10.718133164697690
 Root     18 :    10.761932292000230
 Root     19 :    10.824666318831100
 Root     20 :    10.903229969741460
 Root     21 :    11.087294708146840
 Root     22 :    11.162007955970020
 Root     23 :    11.349801664627800
 Root     24 :    11.500307525451920
 Root     25 :    11.638576604572490
 Root     26 :    11.744929207057750
 Root     27 :    11.750978896287980
 Root     28 :    11.753614869627460
 Root     29 :    11.907414701615910
 Root     30 :    11.996309844553750
 Root     31 :    12.502798701578690
 Root     32 :    12.532002792639700
 Root     33 :    12.685632840249350
 Root     34 :    12.795278475130450
 Root     35 :    13.242717606958700
 Root     36 :    13.302616909116840
 Root     37 :    13.330216998566140
 Root     38 :    13.408078795396980
 Root     39 :    13.410318202092780
 Root     40 :    13.514441670182520
 Root     41 :    13.544900736719250
 Root     42 :    13.763115426949350
 Root     43 :    13.810873747945440
 Root     44 :    13.832479462787440
 Root     45 :    13.986084142470440
 Root     46 :    14.028961984612730
 Root     47 :    14.131982036134370
 Root     48 :    14.260449137070820
 Root     49 :    14.362258469023440
 Root     50 :    14.399545618899400
 Root     51 :    14.540490166337900
 Root     52 :    14.825974074775160
 Root     53 :    14.986454441496100
 Root     54 :    15.040281023660240
 Root     55 :    15.172538264075700
 Root     56 :    15.233985087099910
 Root     57 :    15.298009876444730
 Root     58 :    15.317117485603820
 Root     59 :    15.366910954299540
 Root     60 :    15.399348971155230
 Root     61 :    15.402832942294670
 Root     62 :    15.523027749939280
 Root     63 :    15.621112405961910
 Root     64 :    15.621755724573520
 Root     65 :    15.697262103548900
 Root     66 :    15.779277857643820
 Root     67 :    15.859715105724940
 Root     68 :    15.899024380094890
 Root     69 :    15.932475857927360
 Root     70 :    15.970878246071350
 Root     71 :    16.044138373797860
 Root     72 :    16.220029804470450
 Root     73 :    16.249644541946270
 Root     74 :    16.407905025920630
 Root     75 :    16.452221831687750
 Root     76 :    16.550641185746810
 Root     77 :    16.553418082405500
 Root     78 :    16.696675649481140
 Root     79 :    16.887917899147210
 Root     80 :    16.907075309669320
 Root     81 :    17.153460542731050
 Root     82 :    17.246307386186730
 Root     83 :    17.312566192063390
 Root     84 :    17.358894400307710
 Root     85 :    17.389051531024620
 Root     86 :    17.440767692255290
 Root     87 :    17.478635931161120
 Root     88 :    17.554043820377420
 Root     89 :    17.595230967499860
 Root     90 :    17.622434880717050
 Root     91 :    17.701393267236730
 Root     92 :    17.785181374831200
 Root     93 :    17.858664907079230
 Root     94 :    17.930059186578140
 Root     95 :    18.140709369197680
 Root     96 :    18.164321102134340
 Root     97 :    18.318913344147220
 Root     98 :    18.328222214078550
 Root     99 :    18.412238425714820
 Root    100 :    18.449254788819910
 Root    101 :    18.966644103209650
 Root    102 :    18.971027943889080
 Root    103 :    19.007726507960960
 Root    104 :    19.123728626639110
 Root    105 :    19.127454425941440
 Root    106 :    19.184379836934460
 Root    107 :    19.186633839642380
 Root    108 :    19.347045303179370
 Root    109 :    19.408164950233630
 Root    110 :    19.466876317692250
 Root    111 :    19.478800437782430
 Root    112 :    19.488966063148690
 Root    113 :    19.583810256428870
 Root    114 :    19.612200212955470
 Root    115 :    19.644778504923330
 Root    116 :    19.763838548093410
 Root    117 :    19.848261073881410
 Root    118 :    19.891655038946550
 Root    119 :    19.969734544550850
 Root    120 :    19.988356541197070
 Root    121 :    20.045988257452190
 Root    122 :    20.107931587144280
 Root    123 :    20.124405573852450
 Root    124 :    20.191574372405830
 Root    125 :    20.559220918437910
 Root    126 :    20.701395276995970
 Root    127 :    20.739011718139710
 Root    128 :    20.748950354136340
 Root    129 :    20.827216181890740
 Root    130 :    20.990583102176520
 Root    131 :    21.074550766506490
 Root    132 :    21.142989330462470
 Root    133 :    21.261189432135740
 Root    134 :    21.289272852166720
 Root    135 :    21.297795388787140
 Root    136 :    21.315100815193250
 Root    137 :    21.366066567135500
 Root    138 :    21.450312579272630
 Root    139 :    21.463991827279680
 Root    140 :    21.513952498323800
 Root    141 :    21.572584608309670
 Root    142 :    21.649121909102130
 Root    143 :    21.717720050670990
 Root    144 :    21.783162410130380
 Root    145 :    21.843855361713190
 Root    146 :    21.924300773377730
 Root    147 :    21.957821790829730
 Root    148 :    22.012712855060360
 Root    149 :    22.081167561871290
 Root    150 :    22.189984007834140
 Root    151 :    22.369216694887550
 Root    152 :    22.503217944401700
 Root    153 :    22.506028762073110
 Root    154 :    22.563977278779660
 Root    155 :    22.787331587125850
 Root    156 :    22.984751051729650
 Root    157 :    23.086905217300630
 Root    158 :    23.163214038820920
 Root    159 :    23.253954760173060
 Root    160 :    23.289336501986770
 Root    161 :    23.356173156575670
 Root    162 :    23.360038308128010
 Root    163 :    23.544712091859270
 Root    164 :    23.590487950574010
 Root    165 :    23.593063454474700
 Root    166 :    23.641013076320420
 Root    167 :    23.688499354558470
 Root    168 :    23.721121571228060
 Root    169 :    23.752209765596270
 Root    170 :    23.770748529227380
 Root    171 :    24.018818717351150
 Root    172 :    24.079611482499140
 Root    173 :    24.162906911753500
 Root    174 :    24.223814436803120
 Root    175 :    24.357647510410140
 Root    176 :    24.396567267998830
 Root    177 :    24.405095900771150
 Root    178 :    24.659366668406390
 Root    179 :    24.677612099018550
 Root    180 :    24.754023786676050
 Root    181 :    24.826286040232350
 Root    182 :    24.902386297991650
 Root    183 :    24.934135075721360
 Root    184 :    24.942025187976620
 Root    185 :    24.990473222749940
 Root    186 :    25.012996882321210
 Root    187 :    25.185425127254660
 Root    188 :    25.239143204728610
 Root    189 :    25.251757009562010
 Root    190 :    25.296839515064260
 Root    191 :    25.403051670329110
 Root    192 :    25.502886229092130
 Root    193 :    25.538150563396730
 Root    194 :    25.692244786818640
 Root    195 :    25.767357868595010
 Root    196 :    25.785623950911640
 Root    197 :    25.858806928236430
 Root    198 :    25.929291620210150
 Root    199 :    25.957419085429360
 Root    200 :    26.093248099767520
 Root    201 :    26.244185694294740
 Root    202 :    26.301850850887470
 Root    203 :    26.465773264629610
 Root    204 :    26.518256529341870
 Root    205 :    26.568320685615640
 Root    206 :    26.593467524654900
 Root    207 :    26.756349542224970
 Root    208 :    26.775036241022890
 Root    209 :    26.886950444761330
 Root    210 :    26.950500810704690
 Root    211 :    27.002241742288920
 Root    212 :    27.029385350455980
 Root    213 :    27.061865872195190
 Root    214 :    27.104355924753000
 Root    215 :    27.167125949262560
 Root    216 :    27.184186829795240
 Root    217 :    27.211178571292490
 Root    218 :    27.319382170350290
 Root    219 :    27.411253188885850
 Root    220 :    27.437129571992860
 Root    221 :    27.526632107713520
 Root    222 :    27.634402499495110
 Root    223 :    27.756490539138460
 Root    224 :    27.792095542104920
 Root    225 :    27.932216959199690
 Root    226 :    27.976381920694400
 Root    227 :    28.165507193344840
 Root    228 :    28.268402920900670
 Root    229 :    28.299869919316310
 Root    230 :    28.314905880150970
 Root    231 :    28.468091682106910
 Root    232 :    28.548496479737350
 Root    233 :    28.556731582001060
 Root    234 :    28.719838533508180
 Root    235 :    28.759461803692820
 Root    236 :    28.832193770722660
 Root    237 :    28.942573684304040
 Root    238 :    29.025123674990640
 Root    239 :    29.161616894047890
 Root    240 :    29.172704531329730
 Root    241 :    29.181337304879300
 Root    242 :    29.273880559135410
 Root    243 :    29.349227256198450
 Root    244 :    29.465438892270170
 Root    245 :    29.565402306650230
 Root    246 :    29.638158557957340
 Root    247 :    29.757242552759110
 Root    248 :    29.803839465840920
 Root    249 :    29.891323827200800
 Root    250 :    29.938780440252520
 Root    251 :    29.984171630137270
 Root    252 :    30.139808511718490
 Root    253 :    30.140057405394190
 Root    254 :    30.166225866924800
 Root    255 :    30.412137752998240
 Root    256 :    30.520612058733590
 Root    257 :    30.529791092656550
 Root    258 :    30.638738250022550
 Root    259 :    30.740032249101730
 Root    260 :    30.749738538678990
 Root    261 :    30.805701543526570
 Root    262 :    30.894689557979920
 Root    263 :    30.931365843227680
 Root    264 :    31.017625362219880
 Root    265 :    31.106063281061670
 Root    266 :    31.195738355678600
 Root    267 :    31.271585700770930
 Root    268 :    31.303467750083060
 Root    269 :    31.338253545831090
 Root    270 :    31.353208047287020
 Root    271 :    31.491212657316210
 Root    272 :    31.579358135830000
 Root    273 :    31.728976327318380
 Root    274 :    31.837692323543870
 Root    275 :    32.084578748232180
 Root    276 :    32.126128362960580
 Root    277 :    32.264758975708990
 Root    278 :    32.466379601271750
 Root    279 :    32.544469525564830
 Root    280 :    32.546192170628050
 Root    281 :    32.574932542766230
 Root    282 :    32.763509377901450
 Root    283 :    32.878091100563740
 Root    284 :    32.944151122543520
 Root    285 :    33.041549055158540
 Root    286 :    33.066913122496590
 Root    287 :    33.204672104781600
 Root    288 :    33.338025684530050
 Root    289 :    33.358130649339760
 Root    290 :    33.433296913498420
 Root    291 :    33.494553455069700
 Root    292 :    33.591951192250160
 Root    293 :    33.688419984222780
 Root    294 :    33.891230380968950
 Root    295 :    33.988412383713090
 Root    296 :    34.134923210548400
 Root    297 :    34.167221670020260
 Root    298 :    34.248777432882260
 Root    299 :    34.314873726194490
 Root    300 :    34.367935122249280
 Root    301 :    34.614336576627160
 Root    302 :    34.670256695849900
 Root    303 :    34.672916773737440
 Root    304 :    34.877133714012270
 Root    305 :    35.175167824474140
 Root    306 :    35.297929912234980
 Root    307 :    35.396999499860500
 Root    308 :    35.615122106793760
 Root    309 :    35.746928946614330
 Root    310 :    35.805737803518130
 Root    311 :    35.815920623592160
 Root    312 :    35.888208878927760
 Root    313 :    35.953049259901800
 Root    314 :    36.113552711679610
 Root    315 :    36.219849647190220
 Root    316 :    36.474778766785900
 Root    317 :    36.505920904242310
 Root    318 :    36.603328971081640
 Root    319 :    36.651108412005210
 Root    320 :    36.728368014204560
 Root    321 :    36.791315631379410
 Root    322 :    36.858092223717970
 Root    323 :    37.328473136451540
 Root    324 :    37.358905096323350
 Root    325 :    37.472264636992340
 Root    326 :    37.825238296779920
 Root    327 :    37.952646529303890
 Root    328 :    38.089762219504840
 Root    329 :    38.331316881297610
 Root    330 :    38.417544343918270
 Root    331 :    38.540729927321190
 Root    332 :    38.750533048200590
 Root    333 :    38.847288628390760
 Root    334 :    38.936495420495180
 Root    335 :    38.993739756083230
 Root    336 :    39.150059240557280
 Root    337 :    39.189021027196230
 Root    338 :    39.199909042406420
 Root    339 :    39.238460809198700
 Root    340 :    39.356772626204340
 Root    341 :    39.489223814047010
 Root    342 :    39.512022021277740
 Root    343 :    39.567605607257650
 Root    344 :    39.882292695133650
 Root    345 :    39.955890548557390
 Root    346 :    40.193192953944970
 Root    347 :    40.380435367993940
 Root    348 :    40.594104353747700
 Root    349 :    40.619866193029640
 Root    350 :    40.808917515473650
 Root    351 :    41.024795409301500
 Root    352 :    41.291732376180850
 Root    353 :    41.517521910211720
 Root    354 :    41.600333249598450
 Root    355 :    41.682929714870380
 Root    356 :    41.753999255740640
 Root    357 :    41.934699193080360
 Root    358 :    41.946644383202520
 Root    359 :    42.228381645706290
 Root    360 :    42.280177908655390
 Root    361 :    42.365389731430490
 Root    362 :    42.535861845198430
 Root    363 :    42.901490701505030
 Root    364 :    42.976655724346320
 Root    365 :    43.210851936825420
 Root    366 :    43.354893597674220
 Root    367 :    43.445609140957000
 Root    368 :    43.500807051538860
 Root    369 :    43.718587404220640
 Root    370 :    43.799104147133270
 Root    371 :    43.907404818399590
 Root    372 :    44.089925540510420
 Root    373 :    44.561570175943790
 Root    374 :    44.686747855496410
 Root    375 :    44.963214314874360
 Root    376 :    44.984748940072680
 Root    377 :    45.075633654833580
 Root    378 :    45.241795679912290
 Root    379 :    45.358974226221180
 Root    380 :    45.471515410528650
 Root    381 :    45.635571614811680
 Root    382 :    45.883411749479950
 Root    383 :    46.554187229649260
 Root    384 :    46.932276421295480
 Root    385 :    47.057377435433470
 Root    386 :    47.320906779464880
 Root    387 :    47.350539379225880
 Root    388 :    47.554909872134860
 Root    389 :    47.645783575493710
 Root    390 :    48.059127380044610
 Root    391 :    48.074070110994670
 Root    392 :    48.382994517844470
 Root    393 :    48.502140967771170
 Root    394 :    48.509083875652890
 Root    395 :    48.799851355097720
 Root    396 :    48.809385005576320
 Root    397 :    48.914183970326580
 Root    398 :    49.210920358309980
 Root    399 :    50.084323404030030
 Root    400 :    50.132240343452810
 Root    401 :    50.299789698745290
 Root    402 :    50.403529901047890
 Root    403 :    50.703469688231190
 Root    404 :    50.951291597002080
 Root    405 :    51.113460736102270
 Root    406 :    51.349412419781670
 Root    407 :    51.534133980935440
 Root    408 :    51.704177378933060
 Root    409 :    51.749208360950160
 Root    410 :    52.093848804263510
 Root    411 :    52.143899646265240
 Root    412 :    52.233635833614810
 Root    413 :    52.413774389727410
 Root    414 :    52.479968768540390
 Root    415 :    52.484258959657620
 Root    416 :    52.548692932553870
 Root    417 :    52.744596953104460
 Root    418 :    52.824521746877880
 Root    419 :    52.906579316134620
 Root    420 :    53.114616508175930
 Root    421 :    53.553951373881080
 Root    422 :    53.747434311281140
 Root    423 :    53.875674019554890
 Root    424 :    53.896369793619970
 Root    425 :    54.282203910588470
 Root    426 :    54.417758627128810
 Root    427 :    54.505818329756810
 Root    428 :    54.558057167904000
 Root    429 :    54.601469484052370
 Root    430 :    54.639312458668590
 Root    431 :    54.812475183925490
 Root    432 :    55.012679936769580
 Root    433 :    55.332118784449410
 Root    434 :    55.541858730392790
 Root    435 :    55.736382634734020
 Root    436 :    55.821344268756830
 Root    437 :    56.049887065867050
 Root    438 :    56.070141861971540
 Root    439 :    56.085090943064480
 Root    440 :    56.199671425376930
 Root    441 :    56.276046746979220
 Root    442 :    56.308340457187900
 Root    443 :    56.535466027885200
 Root    444 :    56.546171690095470
 Root    445 :    56.595718925324770
 Root    446 :    57.139622607236130
 Root    447 :    57.562918721917110
 Root    448 :    57.639456974625560
 Root    449 :    57.809482712852500
 Root    450 :    58.083362090143580
 Root    451 :    58.161608779157610
 Root    452 :    58.215128123919700
 Root    453 :    58.263730788954350
 Root    454 :    58.455587623930410
 Root    455 :    58.522623019080620
 Root    456 :    58.638279573048270
 Root    457 :    58.744132352611470
 Root    458 :    58.747618392623170
 Root    459 :    58.808314631619570
 Root    460 :    58.952493804194710
 Root    461 :    59.665168426360030
 Root    462 :    59.772696532153550
 Root    463 :    59.940927173828940
 Root    464 :    60.082847909624670
 Root    465 :    60.205833199538720
 Root    466 :    60.289806707671990
 Root    467 :    60.314760289420110
 Root    468 :    60.428767659733420
 Root    469 :    60.541256097132070
 Root    470 :    60.743076277332040
 Root    471 :    61.026519482581620
 Root    472 :    61.513126417031780
 Root    473 :    61.762665752150300
 Root    474 :    61.781141489746720
 Root    475 :    61.920549013325920
 Root    476 :    62.000367512915180
 Root    477 :    62.136524409763050
 Root    478 :    62.334393630540010
 Root    479 :    62.340002848994730
 Root    480 :    62.486629247281300
 Root    481 :    62.583299132600520
 Root    482 :    62.806913428822640
 Root    483 :    62.999947802983590
 Root    484 :    63.016755252145770
 Root    485 :    63.830350162290070
 Root    486 :    63.867315498609080
 Root    487 :    63.868811808473150
 Root    488 :    64.051806994214360
 Root    489 :    64.141820715822600
 Root    490 :    64.145687574997950
 Root    491 :    64.375491799539530
 Root    492 :    64.579805659723750
 Root    493 :    64.639153535267010
 Root    494 :    64.771098402286070
 Root    495 :    64.840769792940480
 Root    496 :    65.068016900066990
 Root    497 :    65.105535839101240
 Root    498 :    65.391948623690350
 Root    499 :    65.503750417583180
 Root    500 :    65.634548803002740
 Root    501 :    65.751224221895780
 Root    502 :    65.777541062473380
 Root    503 :    65.969942614526990
 Root    504 :    66.114718522756950
 Root    505 :    66.296584645085970
 Root    506 :    66.956249986863340
 Root    507 :    67.105591514224070
 Root    508 :    67.255859513514860
 Root    509 :    67.509741381732060
 Root    510 :    67.529428843032260
 Root    511 :    67.650582796914550
 Root    512 :    67.657881391818260
 Root    513 :    67.910877275923310
 Root    514 :    68.035435589669320
 Root    515 :    68.322851441878830
 Root    516 :    68.334115075487860
 Root    517 :    68.629629380309200
 Root    518 :    68.749859332627120
 Root    519 :    69.017566786440100
 Root    520 :    69.032373805467740
 Root    521 :    69.174850237241130
 Root    522 :    69.455162940667780
 Root    523 :    69.754470698207160
 Root    524 :    69.761042140985960
 Root    525 :    70.416310690712820
 Root    526 :    70.538040392379730
 Root    527 :    70.860617955243500
 Root    528 :    70.988829180386720
 Root    529 :    71.195649184966380
 Root    530 :    71.547723897614920
 Root    531 :    71.696906425241050
 Root    532 :    72.096313088639750
 Root    533 :    72.330240250540060
 Root    534 :    72.410221603002970
 Root    535 :    72.459637078532910
 Root    536 :    72.794876204762050
 Root    537 :    72.818509541867430
 Root    538 :    72.986049798434890
 Root    539 :    73.109019897033530
 Root    540 :    73.341669985818850
 Root    541 :    74.116072906582960
 Root    542 :    74.681595120908360
 Root    543 :    75.244705610869290
 Root    544 :    75.321270998593550
 Root    545 :    75.568594521758000
 Root    546 :    75.865173358934630
 Root    547 :    75.995634164491350
 Root    548 :    76.116990008607200
 Root    549 :    76.461226127293100
 Root    550 :    77.141147067108040
 Root    551 :    77.171299193991910
 Root    552 :    77.259610800935220
 Root    553 :    77.673925095768350
 Root    554 :    78.162746552857500
 Root    555 :    78.213215652658860
 Root    556 :    78.337616486361030
 Root    557 :    78.499557008642090
 Root    558 :    78.827570985758430
 Root    559 :    78.921007085485070
 Root    560 :    78.968654687790180
 Root    561 :    79.189552422375440
 Root    562 :    79.853074844013180
 Root    563 :    80.634199420251330
 Root    564 :    80.831422222574390
 Root    565 :    81.302544432064650
 Root    566 :    81.373413946350200
 Root    567 :    81.519801658225820
 Root    568 :    81.921085951583580
 Root    569 :    81.981496065984470
 Root    570 :    82.064477785943230
 Root    571 :    82.133111299895280
 Root    572 :    82.315738490945780
 Root    573 :    82.364000808181190
 Root    574 :    82.660824548706540
 Root    575 :    83.079417683865290
 Root    576 :    83.090806944026100
 Root    577 :    83.672736252685840
 Root    578 :    84.054488068149940
 Root    579 :    84.079081345574150
 Root    580 :    84.234495910979390
 Root    581 :    84.703760221917320
 Root    582 :    84.835260586653920
 Root    583 :    85.053446253106830
 Root    584 :    85.345232149418220
 Root    585 :    85.742373639804950
 Root    586 :    85.834121361656840
 Root    587 :    86.170921265753920
 Root    588 :    86.479723892382610
 Root    589 :    86.920928631168070
 Root    590 :    87.305724094366750
 Root    591 :    87.390793556876830
 Root    592 :    87.852991161157520
 Root    593 :    87.979916612386210
 Root    594 :    88.009598219098890
 Root    595 :    88.160350197081370
 Root    596 :    88.602470862819810
 Root    597 :    89.067657232128340
 Root    598 :    89.200947367248890
 Root    599 :    89.580274422844850
 Root    600 :    89.952809273539880
 Root    601 :    90.328176248298940
 Root    602 :    90.594097563636400
 Root    603 :    90.767532818857660
 Root    604 :    91.326190336747970
 Root    605 :    91.977232457473630
 Root    606 :    92.148785993512530
 Root    607 :    92.481907724756180
 Root    608 :    92.859874939038490
 Root    609 :    93.352892650450980
 Root    610 :    93.719788884476260
 Root    611 :    93.764614381826530
 Root    612 :    94.042583143802180
 Root    613 :    94.120329695289500
 Root    614 :    94.443697795603100
 Root    615 :    95.112770610631060
 Root    616 :    95.260076442009650
 Root    617 :    95.451764476888600
 Root    618 :    95.608565864175230
 Root    619 :    95.837359365650840
 Root    620 :    95.963639713500980
 Root    621 :    95.977115112909130
 Root    622 :    97.411485512294040
 Root    623 :    97.558270864766770
 Root    624 :    98.038500411718300
 Root    625 :    98.276807833471450
 Root    626 :    98.853946521179760
 Root    627 :    99.214084908709250
 Root    628 :    99.408026183493490
 Root    629 :    99.600400079483760
 Root    630 :    99.609529298467440
 Root    631 :    99.778726755772920
 Root    632 :    99.853855866254160
 Root    633 :   100.796769051665700
 Root    634 :   100.953855670810100
 Root    635 :   101.375356145167700
 Root    636 :   101.562134231798600
 Root    637 :   102.707029924121900
 Root    638 :   102.983210695106400
 Root    639 :   103.160345935091900
 Root    640 :   103.234096197866700
 Root    641 :   103.235862573730500
 Root    642 :   104.596129631002800
 Root    643 :   104.773371102259800
 Root    644 :   105.011913263380700
 Root    645 :   105.778896759240100
 Root    646 :   105.791609207902800
 Root    647 :   106.177841209307100
 Root    648 :   106.405503200055700
 Root    649 :   106.600638634037300
 Root    650 :   107.040627432004700
 Root    651 :   108.364770275072100
 Root    652 :   108.528688361263500
 Root    653 :   109.331025230539600
 Root    654 :   109.634547168286100
 Root    655 :   110.104572312733300
 Root    656 :   110.499427452082900
 Root    657 :   110.598597726056700
 Root    658 :   110.839367692151300
 Root    659 :   111.656580036676000
 Root    660 :   112.637385741315600
 Root    661 :   112.756445153941500
 Root    662 :   113.674353236971900
 Root    663 :   113.937071370326100
 Root    664 :   113.953957885645500
 Root    665 :   115.112594410064500
 Root    666 :   115.428897672628900
 Root    667 :   116.347092570975800
 Root    668 :   117.144423225495700
 Root    669 :   117.637702129420400
 Root    670 :   118.801299176203800
 Root    671 :   121.463453537312600
 Root    672 :   123.003074376965100
 Root    673 :   126.232277819728900
 Root    674 :   126.426058119835700
 Root    675 :   129.538158981775200
 Convergence achieved for final wavefunctions.
 ***********************************************************************
 Excited states from <AA,BB:AA,BB> singles matrix:
 ***********************************************************************
 
 1PDM for each excited state written to RWF  633
 Ground to excited state transition densities written to RWF  633
 Ground to excited state transition electric dipole moments (Au):
       state          X           Y           Z        Dip. S.      Osc.
         1        -0.0000      0.0000      0.0658      0.0043      0.0006
         2         0.2196      0.0951     -0.0000      0.0573      0.0094
         3         0.0000      0.0000      0.2519      0.0634      0.0112
         4        -0.2150     -0.6174     -0.0000      0.4274      0.0780
         5        -1.2723      0.2422     -0.0000      1.6773      0.3267
         6        -0.0001      0.0000      0.1337      0.0179      0.0035
         7        -0.2433     -0.4216      0.0000      0.2369      0.0491
         8        -0.0000     -0.0000     -0.1600      0.0256      0.0056
         9         0.0000      0.0000      0.1935      0.0375      0.0085
        10        -0.0361     -0.3345      0.0000      0.1132      0.0257
        11         0.0088      0.1265     -0.0000      0.0161      0.0038
        12        -0.0000     -0.0000     -0.1016      0.0103      0.0025
        13         0.1214      0.1010     -0.0000      0.0249      0.0061
        14         0.0000     -0.0000     -0.1017      0.0103      0.0026
        15        -0.2742     -0.0372     -0.0000      0.0765      0.0190
        16        -0.0000     -0.0000      0.0735      0.0054      0.0014
        17        -0.0000      0.0000     -0.3934      0.1548      0.0406
        18        -0.0000      0.0000      0.2746      0.0754      0.0199
        19        -0.2265      0.0348      0.0000      0.0525      0.0139
        20        -0.0000     -0.0000      0.1529      0.0234      0.0062
        21        -0.0208     -0.0437     -0.0000      0.0023      0.0006
        22        -0.1032     -0.5156     -0.0000      0.2765      0.0756
        23         0.4120     -0.1543     -0.0000      0.1935      0.0538
        24         0.0000     -0.0000      0.0492      0.0024      0.0007
        25         0.1871     -0.3281     -0.0000      0.1427      0.0407
        26         0.0001      0.0002     -0.2250      0.0506      0.0146
        27         0.0003      0.0006     -0.0092      0.0001      0.0000
        28         0.2485      0.5201      0.0001      0.3322      0.0957
        29         0.0000      0.0000     -0.0905      0.0082      0.0024
        30         0.0000     -0.0000     -0.1164      0.0136      0.0040
        31        -0.1546     -0.1091      0.0000      0.0358      0.0110
        32        -0.0000     -0.0000     -0.3894      0.1516      0.0465
        33        -0.0798      0.0941      0.0000      0.0152      0.0047
        34         0.0897      0.3153     -0.0000      0.1074      0.0337
        35        -0.0155      0.0650     -0.0000      0.0045      0.0014
        36        -0.0001     -0.0000     -0.0834      0.0070      0.0023
        37        -0.5691     -0.2907     -0.0000      0.4083      0.1334
        38        -0.0000     -0.0000      0.3467      0.1202      0.0395
        39        -0.0000     -0.0000      0.1461      0.0214      0.0070
        40        -0.1622      0.3870     -0.0000      0.1761      0.0583
        41        -0.4625      0.4543      0.0000      0.4203      0.1395
        42         0.0000      0.0000      0.0472      0.0022      0.0008
        43         0.0688      0.3694     -0.0000      0.1412      0.0478
        44        -0.0000     -0.0000      0.5405      0.2922      0.0990
        45        -0.5204     -0.4845     -0.0000      0.5055      0.1732
        46         0.0000      0.0000      0.0335      0.0011      0.0004
        47         0.4334     -0.0074     -0.0000      0.1879      0.0651
        48         0.0000     -0.0000     -0.3741      0.1400      0.0489
        49         0.0000     -0.0000      0.4185      0.1751      0.0616
        50         0.1934     -0.0641      0.0000      0.0415      0.0146
        51         0.1919      0.1232     -0.0000      0.0520      0.0185
        52        -0.2962     -0.3510      0.0000      0.2109      0.0766
        53        -0.2928     -0.3870     -0.0000      0.2355      0.0865
        54         0.0000      0.0000     -0.1350      0.0182      0.0067
        55         0.1142      0.0836      0.0000      0.0200      0.0074
        56        -0.0000      0.0000     -0.1103      0.0122      0.0045
        57         0.1396     -0.0047     -0.0000      0.0195      0.0073
        58         0.0000      0.0000     -0.1613      0.0260      0.0098
        59        -0.0172      0.1543     -0.0000      0.0241      0.0091
        60        -0.0003     -0.0002     -0.0621      0.0039      0.0015
        61        -0.1916     -0.1553      0.0001      0.0608      0.0230
        62         0.2265      0.0255     -0.0000      0.0520      0.0198
        63        -0.1128      0.1671     -0.0000      0.0407      0.0156
        64         0.0000     -0.0000     -0.3090      0.0955      0.0365
        65         0.1880     -0.0572      0.0000      0.0386      0.0149
        66        -0.0000      0.0000     -0.2334      0.0545      0.0211
        67        -0.0595     -0.0827     -0.0000      0.0104      0.0040
        68        -0.0000      0.0000     -0.0323      0.0010      0.0004
        69        -0.0725      0.2465      0.0000      0.0660      0.0258
        70        -0.0000      0.0000     -0.0363      0.0013      0.0005
        71        -0.3825     -0.0768      0.0000      0.1522      0.0598
        72        -0.0000      0.0000      0.0968      0.0094      0.0037
        73        -0.1415      0.0458     -0.0000      0.0221      0.0088
        74         0.3423     -0.2990      0.0001      0.2066      0.0830
        75         0.0000     -0.0000     -0.6758      0.4567      0.1841
        76         0.0001      0.0001      0.0213      0.0005      0.0002
        77        -0.1697     -0.1339     -0.0000      0.0467      0.0190
        78         0.1096      0.2867     -0.0000      0.0942      0.0385
        79         0.0000     -0.0000     -0.0473      0.0022      0.0009
        80         0.3909     -0.1617      0.0000      0.1790      0.0741
        81         0.0000      0.0000     -0.1083      0.0117      0.0049
        82         0.3687      0.0750      0.0000      0.1416      0.0598
        83         0.0000      0.0000     -0.0354      0.0013      0.0005
        84         0.0692      0.0309      0.0000      0.0057      0.0024
        85        -0.1519      0.0838      0.0000      0.0301      0.0128
        86         0.0000     -0.0000     -0.1455      0.0212      0.0090
        87        -0.0305      0.4460     -0.0000      0.1998      0.0856
        88         0.4276     -0.4126      0.0000      0.3530      0.1518
        89        -0.0001      0.0001      0.1262      0.0159      0.0069
        90        -0.4712      0.1493     -0.0000      0.2444      0.1055
        91         0.0000     -0.0000     -0.1739      0.0302      0.0131
        92         0.0496     -0.1639      0.0000      0.0293      0.0128
        93        -0.0000     -0.0000      0.4448      0.1979      0.0866
        94         0.1174      0.2383      0.0000      0.0706      0.0310
        95         0.3884     -0.3602     -0.0000      0.2806      0.1247
        96        -0.0000      0.0000     -0.1488      0.0222      0.0099
        97        -0.0000     -0.0000      0.1480      0.0219      0.0098
        98        -0.1566     -0.1290     -0.0000      0.0412      0.0185
        99        -0.0091      0.2453      0.0000      0.0602      0.0272
       100         0.2145     -0.2193      0.0000      0.0941      0.0425
       101        -0.0386     -0.0190     -0.0004      0.0018      0.0009
       102         0.0000      0.0000     -0.4192      0.1757      0.0817
       103        -0.0000     -0.0000     -0.1529      0.0234      0.0109
       104         0.0000      0.0001      0.0374      0.0014      0.0007
       105         0.1152      0.2491     -0.0000      0.0753      0.0353
       106         0.0000     -0.0000     -0.0514      0.0026      0.0012
       107         0.0158     -0.0469      0.0000      0.0025      0.0012
       108         0.3857     -0.2365     -0.0000      0.2047      0.0970
       109        -0.0000      0.0000     -0.3590      0.1289      0.0613
       110        -0.1709     -0.1302      0.0000      0.0462      0.0220
       111         0.0000      0.0000      0.1726      0.0298      0.0142
       112        -0.0401      0.0045     -0.0000      0.0016      0.0008
       113         0.0941      0.3058      0.0000      0.1024      0.0491
       114         0.1291     -0.2723     -0.0000      0.0908      0.0436
       115         0.3946     -0.1499      0.0000      0.1782      0.0858
       116        -0.0000      0.0000      0.1039      0.0108      0.0052
       117         0.0430     -0.3671      0.0000      0.1366      0.0664
       118        -0.0000     -0.0000      0.0588      0.0035      0.0017
       119         0.0000      0.0000      0.0233      0.0005      0.0003
       120        -0.0000     -0.0000     -0.2261      0.0511      0.0250
       121        -0.2970     -0.0787      0.0000      0.0944      0.0464
       122         0.0000     -0.0000     -0.3076      0.0946      0.0466
[...]
     13  -0.147465D-01  0.457701D-05  0.205040D-01 -0.401936D-05  0.167594D+00
     14  -0.184028D+00  0.134164D-04  0.777545D+00 -0.286472D-04  0.554668D+00
     15  -0.400281D-05 -0.192265D+01 -0.142121D-04 -0.929946D+00 -0.372577D-05
     16   0.163273D-05 -0.477808D-01  0.568423D-05  0.228621D+00  0.293754D-05
               606           607           608           609           610 
      1  -0.166400D+03 -0.166388D+03 -0.166374D+03 -0.166356D+03 -0.166343D+03
      2   0.166545D+00  0.400777D-05 -0.756211D-01  0.482898D-05  0.913203D-01
      3   0.221108D+00  0.495968D-05 -0.121347D+00  0.409592D-05  0.354101D-01
      4  -0.374539D-05 -0.169634D-02  0.248233D-05  0.417545D-01  0.131611D-04
      5  -0.478433D+00 -0.115603D-04  0.209845D+00 -0.144476D-04 -0.274972D+00
      6  -0.613264D+00 -0.142808D-04  0.341316D+00 -0.114295D-04 -0.907255D-01
      7   0.108311D-04 -0.313966D-02 -0.700116D-05 -0.124478D+00 -0.359054D-04
      8  -0.479363D-05  0.158205D-01  0.000000D+00  0.681186D-02  0.357895D-04
      9  -0.126928D-04  0.174019D+00  0.784940D-05  0.240630D+00 -0.327721D-04
     10  -0.138116D+01 -0.304216D-04  0.491868D+00 -0.239664D-04 -0.289327D+00
     11  -0.179057D+01 -0.297525D-04  0.258014D+00 -0.284612D-04 -0.467364D+00
     12   0.537778D+00  0.134455D-04  0.238873D-01  0.102960D-04  0.166350D+00
     13  -0.174658D-01  0.000000D+00  0.119720D-01  0.435166D-05  0.154087D+00
     14  -0.107698D+01 -0.273779D-04  0.425855D+00 -0.125073D-04  0.167437D-01
     15   0.163840D-04 -0.329333D+00 -0.862497D-05 -0.327493D+00  0.573630D-04
     16  -0.409579D-05 -0.101962D+00 -0.151139D-05 -0.213665D-01  0.354946D-04
               611           612           613           614           615 
      1  -0.166341D+03 -0.166331D+03 -0.166328D+03 -0.166316D+03 -0.166292D+03
      2  -0.168542D-04 -0.129133D+00 -0.410258D-02  0.000000D+00  0.000000D+00
      3  -0.869578D-05 -0.558368D-01 -0.175518D+00 -0.485519D-05  0.000000D+00
      4   0.101789D+00 -0.257523D-05 -0.269490D-05 -0.579940D-02 -0.142664D-01
      5   0.503089D-04  0.379480D+00 -0.294660D-02  0.310954D-05  0.312411D-05
      6   0.231392D-04  0.136757D+00  0.536290D+00  0.135624D-04  0.218988D-05
      7  -0.280798D+00  0.707480D-05  0.758035D-05  0.247071D-01  0.415643D-01
      8   0.252167D+00 -0.741807D-05 -0.368525D-05  0.232433D-01 -0.331571D-01
      9  -0.145280D+00 -0.828014D-05  0.000000D+00 -0.165467D+00  0.138823D+00
     10   0.615921D-04  0.520989D+00  0.802085D+00 -0.118954D-04 -0.996959D-05
     11   0.119334D-03  0.201126D+01 -0.352211D+00  0.700668D-04 -0.168409D-04
     12  -0.372171D-04 -0.831870D-01 -0.696911D+00  0.884867D-05  0.101648D-04
     13  -0.214204D-04 -0.127640D+00  0.558071D-01 -0.133916D-04 -0.104740D-04
     14   0.139886D-04  0.329286D+00  0.899374D+00 -0.173275D-04 -0.185421D-04
     15   0.289748D+00  0.441086D-05 -0.213998D-05  0.121431D+00 -0.834006D-01
     16   0.239711D+00 -0.775470D-05 -0.565182D-05 -0.117658D+00  0.159812D-01
               616           617           618           619           620 
      1  -0.166286D+03 -0.166279D+03 -0.166273D+03 -0.166265D+03 -0.166260D+03
      2   0.000000D+00 -0.382923D-01 -0.590350D-01 -0.562821D-01 -0.848702D-03
      3  -0.771360D-05  0.247678D-01  0.218981D-02 -0.838286D-01 -0.937244D-01
      4   0.266332D-01  0.000000D+00  0.246620D-05 -0.316522D-05 -0.757335D-04
      5  -0.242338D-05  0.138257D+00  0.189726D+00  0.175243D+00 -0.222400D-01
      6   0.210809D-04 -0.580281D-01 -0.763465D-02  0.241175D+00  0.303285D+00
      7  -0.811579D-01  0.000000D+00 -0.726849D-05  0.936353D-05  0.233009D-03
      8   0.227181D-01  0.173635D-05  0.199401D-05 -0.336316D-05 -0.666548D-04
      9  -0.854306D-01 -0.321294D-05 -0.191441D-04  0.189077D-04  0.487414D-03
     10  -0.288791D-05 -0.290815D+00 -0.213849D+00 -0.253132D+00  0.515406D+00
     11   0.119190D-03 -0.129885D+01 -0.222922D+00  0.194728D+00 -0.199497D+01
     12   0.000000D+00  0.211620D+00  0.625368D-01  0.133942D+00 -0.213094D+00
     13  -0.127681D-04 -0.985262D-01  0.236624D-01 -0.208038D+00 -0.586919D-01
     14  -0.149414D-04 -0.388834D+00 -0.117822D+00 -0.245097D+00  0.868066D+00
     15   0.186465D+00  0.895739D-05  0.240510D-04 -0.232288D-04 -0.435271D-03
     16  -0.212347D+00 -0.149342D-04 -0.150816D-04  0.229055D-04 -0.910120D-04
               621           622           623           624           625 
      1  -0.166260D+03 -0.166207D+03 -0.166202D+03 -0.166184D+03 -0.166175D+03
      2  -0.188823D-05  0.147744D+00  0.300569D-01  0.583922D-05  0.310366D-05
      3  -0.409775D-04 -0.862537D-01 -0.569165D-01  0.000000D+00  0.144718D-05
      4   0.171708D+00  0.000000D+00  0.137210D-05  0.361977D-02  0.258740D+00
      5  -0.473629D-05 -0.500548D+00 -0.945779D-01 -0.195478D-04 -0.965137D-05
      6   0.132784D-03  0.275045D+00  0.193547D+00  0.000000D+00 -0.400982D-05
      7  -0.528429D+00  0.000000D+00 -0.408521D-05  0.167976D-02 -0.786148D+00
      8   0.149422D+00  0.315433D-05  0.000000D+00 -0.105339D+00  0.391512D+00
      9  -0.114052D+01  0.280563D-05 -0.152793D-05 -0.397081D+00  0.200718D+01
     10   0.220928D-03  0.676493D+00 -0.367132D+00 -0.247406D-05 -0.101074D-04
     11  -0.884503D-03 -0.170996D+01 -0.687837D+00 -0.723279D-04 -0.486095D-04
     12  -0.918337D-04 -0.150272D+00 -0.569005D-01 -0.774990D-05  0.210731D-05
     13  -0.309307D-04 -0.126277D+00  0.916491D-01 -0.652476D-05  0.514552D-05
     14   0.367226D-03  0.865055D+00 -0.442769D+00  0.267848D-04  0.368156D-05
     15   0.102640D+01 -0.439116D-05 -0.171958D-05  0.525919D+00 -0.252380D+01
     16   0.186115D+00  0.461189D-05  0.235425D-05 -0.470696D+00  0.622095D+00
               626           627           628           629           630 
      1  -0.166154D+03 -0.166141D+03 -0.166134D+03 -0.166127D+03 -0.166126D+03
      2   0.100996D-04  0.148222D-05  0.809897D-01  0.641032D-01  0.172747D-04
      3   0.134706D-05  0.000000D+00  0.120772D-01  0.669142D-01  0.161949D-04
      4  -0.176474D-01  0.807391D-01 -0.713201D-05  0.510149D-04 -0.176349D+00
      5  -0.343004D-04 -0.500526D-05 -0.274542D+00 -0.230981D+00 -0.629171D-04
      6  -0.162429D-05  0.000000D+00 -0.167955D-01 -0.209719D+00 -0.509899D-04
      7   0.525011D-01 -0.246070D+00  0.216204D-04 -0.161102D-03  0.556074D+00
      8   0.855964D-02  0.128729D+00 -0.626623D-05  0.728790D-04 -0.244920D+00
      9   0.126803D+00  0.930411D+00 -0.405231D-04  0.764564D-05 -0.444681D-01
     10  -0.195300D-04 -0.186755D-05 -0.250152D+00  0.198716D+00  0.865417D-04
     11  -0.139342D-03 -0.193440D-04 -0.108419D+01  0.759633D+00  0.296638D-03
     12  -0.786505D-05  0.000000D+00 -0.558478D-01  0.141037D+00  0.179210D-04
     13  -0.653042D-05  0.230804D-05 -0.127717D+00 -0.223288D+00 -0.590542D-04
     14   0.377049D-04  0.799206D-05  0.195260D+00  0.723709D+00  0.233254D-03
     15   0.455685D-01 -0.102583D+01  0.214714D-04 -0.451241D-04  0.170110D+00
     16   0.206936D+00  0.325895D+00 -0.194381D-04  0.126669D-03 -0.440890D+00
               631           632           633           634           635 
      1  -0.166120D+03 -0.166117D+03 -0.166083D+03 -0.166077D+03 -0.166061D+03
      2  -0.134933D-01 -0.395124D-01  0.533691D-01  0.257502D-05 -0.265938D-01
      3  -0.451265D-01 -0.102629D+00  0.544128D-01  0.266129D-05 -0.492392D-01
      4   0.358935D-05  0.500019D-05  0.478440D-05 -0.134279D+00  0.000000D+00
      5   0.408509D-01  0.124662D+00 -0.165166D+00 -0.821155D-05  0.849811D-01
      6   0.156100D+00  0.309646D+00 -0.144728D+00 -0.705225D-05  0.166293D+00
      7  -0.115897D-04 -0.157045D-04 -0.150081D-04  0.426086D+00  0.000000D+00
      8   0.674710D-05  0.714948D-05  0.753716D-05 -0.199082D+00  0.128168D-05
      9  -0.533325D-05  0.956451D-05  0.159343D-04 -0.498304D+00  0.322736D-05
     10   0.523215D+00  0.497322D+00  0.152040D+00  0.149868D-04  0.687850D+00
     11   0.153028D+00  0.168018D+01 -0.207419D+01 -0.736644D-04 -0.239908D+00
     12  -0.581164D+00 -0.415154D+00  0.405315D-01 -0.325832D-05 -0.473329D+00
     13   0.174250D+00 -0.834423D-01  0.346833D-01  0.117777D-05  0.686146D-01
     14   0.521755D+00  0.515712D+00  0.321045D+00  0.226305D-04  0.635112D+00
     15   0.140855D-05 -0.154461D-04 -0.176403D-04  0.627432D+00 -0.152461D-05
     16   0.955257D-05  0.107620D-04  0.265467D-05 -0.133773D+00  0.200092D-05
               636           637           638           639           640 
      1  -0.166055D+03 -0.166012D+03 -0.166002D+03 -0.165996D+03 -0.165993D+03
      2   0.000000D+00  0.000000D+00  0.369952D-01 -0.141135D-01  0.422741D-05
      3   0.000000D+00  0.000000D+00 -0.344766D-01  0.121544D+00 -0.230590D-05
      4  -0.501709D-01 -0.187840D-02  0.000000D+00  0.000000D+00  0.338417D-01
      5   0.221750D-05  0.000000D+00 -0.120093D+00  0.610749D-01 -0.145498D-04
      6  -0.126288D-05  0.353225D-05  0.127353D+00 -0.393150D+00  0.740436D-05
      7   0.164653D+00  0.104823D-01  0.000000D+00  0.160885D-05 -0.966682D-01
      8  -0.663346D-01 -0.285159D-01  0.141771D-05  0.000000D+00 -0.530845D-01
      9  -0.277294D+00 -0.801054D-01  0.155688D-05  0.103949D-05  0.340651D+00
     10  -0.573959D-05  0.311907D-05 -0.247663D+00 -0.255373D+00 -0.292661D-04
     11  -0.166840D-05 -0.402412D-05  0.865210D-01  0.208758D+00  0.263223D-04
     12   0.187440D-05  0.846490D-05  0.749273D-01  0.213774D+00 -0.871471D-05
     13   0.000000D+00 -0.203611D-04 -0.298361D+00 -0.496726D+00  0.742103D-05
     14  -0.812335D-05  0.629205D-05 -0.139802D+00 -0.260020D+00 -0.168762D-04
     15   0.431847D+00  0.279820D+00 -0.121353D-04 -0.548379D-05 -0.407981D+00
     16  -0.189585D-01  0.190017D+00 -0.934466D-05 -0.777963D-05 -0.925390D-01
               641           642           643           644           645 
      1  -0.165993D+03 -0.165943D+03 -0.165937D+03 -0.165928D+03 -0.165900D+03
      2  -0.731581D-01  0.000000D+00  0.614183D-02  0.219945D-01  0.544455D-01
      3   0.520676D-01  0.000000D+00  0.247048D-01 -0.144303D-01 -0.775821D-01
      4   0.103240D-05 -0.450747D-01  0.244912D-05  0.000000D+00 -0.164656D-05
      5   0.245869D+00  0.000000D+00 -0.271980D-01 -0.755565D-01 -0.195300D+00
      6  -0.163041D+00 -0.197185D-05 -0.984048D-01  0.374855D-01  0.249818D+00
      7  -0.289556D-05  0.148681D+00 -0.845300D-05  0.000000D+00  0.560395D-05
      8  -0.200538D-05 -0.732121D-01  0.509604D-05  0.000000D+00 -0.118078D-05
      9   0.252504D-04 -0.565462D+00  0.245008D-04  0.460702D-05 -0.790015D-05
     10   0.556838D+00  0.203690D-04  0.423777D+00 -0.149700D+00  0.901618D+00
     11  -0.390837D+00  0.523201D-05  0.136838D+00  0.642852D+00 -0.400996D+00
     12   0.176012D+00 -0.125128D-04 -0.309081D+00  0.940140D-01 -0.580923D+00
     13  -0.200718D+00  0.165544D-05  0.852316D-01  0.811010D-01  0.137211D+00
     14   0.413470D+00  0.253762D-04  0.528610D+00 -0.183494D+00  0.129104D+01
     15  -0.332138D-04  0.666130D+00 -0.294888D-04 -0.866224D-05 -0.357277D-04
     16  -0.129749D-04 -0.275552D+00  0.114387D-04  0.000000D+00 -0.762016D-04
               646           647           648           649           650 
      1  -0.165899D+03 -0.165885D+03 -0.165877D+03 -0.165869D+03 -0.165853D+03
      2  -0.954399D-05  0.000000D+00 -0.116909D-01  0.697625D-01 -0.376645D-01
      3   0.154840D-04  0.000000D+00  0.133009D+00 -0.112824D+00  0.617662D-01
      4  -0.100019D-01  0.576565D-01  0.000000D+00  0.000000D+00  0.000000D+00
      5   0.345161D-04 -0.270523D-05  0.664203D-01 -0.258434D+00  0.107320D+00
      6  -0.500839D-04  0.000000D+00 -0.443974D+00  0.414290D+00 -0.216957D+00
      7   0.323373D-01 -0.196608D+00  0.000000D+00  0.000000D+00 -0.113148D-05
      8  -0.116352D-01  0.106056D+00  0.000000D+00  0.000000D+00  0.138548D-05
      9  -0.130862D-01  0.711332D+00  0.000000D+00  0.547709D-05 -0.107646D-05
     10  -0.162136D-03  0.842018D-05 -0.362039D+00 -0.231647D+00  0.153449D+00
     11   0.610020D-04 -0.321173D-05 -0.465877D-01 -0.365240D+00 -0.258591D+00
     12   0.862610D-04 -0.229714D-05 -0.126049D+00 -0.668510D+00 -0.196571D-01
     13  -0.569389D-05  0.396517D-05  0.219636D+00  0.544094D-01  0.144709D+00
     14  -0.245160D-03  0.135670D-04 -0.814399D+00 -0.930450D-01  0.152128D+00
     15  -0.243254D+00 -0.775328D+00  0.924690D-05 -0.469783D-05  0.247395D-05
     16  -0.436558D+00  0.123902D+00  0.135723D-04  0.476714D-05 -0.113773D-05
               651           652           653           654           655 
      1  -0.165805D+03 -0.165799D+03 -0.165769D+03 -0.165758D+03 -0.165741D+03
      2   0.939678D-01  0.518975D-01  0.000000D+00 -0.154331D-05 -0.454005D-02
      3   0.114608D+00  0.774996D-02  0.000000D+00  0.000000D+00  0.475067D-01
      4   0.000000D+00  0.000000D+00 -0.102331D+00 -0.795887D-02  0.000000D+00
      5  -0.346021D+00 -0.204105D+00 -0.145497D-05  0.560391D-05  0.255538D-01
      6  -0.420912D+00 -0.165850D-01  0.000000D+00  0.000000D+00 -0.156731D+00
      7  -0.163865D-05 -0.151169D-05  0.349645D+00  0.471526D-01 -0.128125D-05
      8   0.128581D-05  0.000000D+00 -0.192472D+00  0.240000D-01  0.000000D+00
      9  -0.233889D-05 -0.712341D-05 -0.865582D+00 -0.266667D+00  0.000000D+00
     10  -0.523036D+00  0.546084D+00 -0.142052D-05  0.504116D-05  0.211528D+00
     11   0.115892D+00  0.984184D+00  0.240250D-05  0.164635D-04 -0.122542D+01
     12   0.323945D+00  0.889071D-01  0.174649D-05 -0.406897D-05  0.719449D-01
     13   0.174035D-01  0.908382D-01 -0.352747D-05  0.000000D+00  0.102721D+00
     14  -0.450587D+00  0.687353D+00 -0.128621D-05  0.127525D-05  0.252142D+00
     15  -0.194291D-05  0.514033D-05  0.112709D+01  0.262344D+00  0.103494D-05
     16   0.000000D+00 -0.229581D-05 -0.338309D+00 -0.265756D-01 -0.131946D-05
               656           657           658           659           660 
      1  -0.165726D+03 -0.165722D+03 -0.165714D+03 -0.165684D+03 -0.165648D+03
      2  -0.876283D-01 -0.171049D+00  0.000000D+00 -0.232062D-01 -0.280142D-01
      3  -0.922781D-02 -0.275353D-01  0.000000D+00 -0.386970D-01  0.126166D-01
      4   0.000000D+00  0.000000D+00 -0.508957D-02  0.000000D+00  0.000000D+00
      5   0.285228D+00  0.641686D+00 -0.267605D-05  0.541795D-01  0.926050D-01
      6   0.297647D-01  0.700579D-01  0.100027D-05  0.130396D+00 -0.430541D-01
      7   0.206222D-05 -0.278992D-05  0.324749D-01 -0.270024D-05  0.249864D-05
      8   0.000000D+00  0.211789D-05 -0.849478D-01  0.148711D-05 -0.114999D-05
      9  -0.430297D-05  0.810931D-05 -0.221109D+00  0.133825D-05  0.350707D-05
     10   0.522508D+00  0.103889D+01 -0.744280D-05  0.892655D+00 -0.253407D-01
     11   0.682340D+00  0.248246D+01 -0.780466D-05  0.198568D+01 -0.402342D+00
     12  -0.310297D+00 -0.595545D+00  0.221186D-05 -0.181851D+00  0.825654D-01
     13   0.373624D-01 -0.693307D-01  0.000000D+00 -0.573407D-01 -0.273166D+00
     14   0.461164D+00  0.498170D+00 -0.638842D-05  0.526447D+00 -0.313729D-01
     15   0.461382D-05 -0.114203D-04  0.207777D+00 -0.778077D-05  0.000000D+00
     16   0.000000D+00 -0.105235D-05 -0.808561D-01  0.000000D+00  0.000000D+00
               661           662           663           664           665 
      1  -0.165643D+03 -0.165609D+03 -0.165600D+03 -0.165599D+03 -0.165557D+03
      2   0.000000D+00 -0.848661D-01  0.107455D+00  0.647655D-05  0.123832D+00
      3  -0.109164D-05  0.761782D-01 -0.120259D+00 -0.669004D-05 -0.215123D-01
      4  -0.458841D-01  0.000000D+00 -0.518743D-05  0.897393D-01  0.000000D+00
      5   0.000000D+00  0.324480D+00 -0.417517D+00 -0.254357D-04 -0.493009D+00
      6   0.418623D-05 -0.284352D+00  0.451448D+00  0.251941D-04  0.893964D-01
      7   0.164666D+00  0.000000D+00  0.183877D-04 -0.311365D+00  0.139648D-05
      8  -0.145486D+00  0.000000D+00 -0.576570D-05  0.124496D+00  0.000000D+00
      9  -0.374924D+00  0.419127D-05 -0.352786D-04  0.660957D+00 -0.438997D-05
     10   0.100651D-04  0.141979D-01  0.988621D+00  0.506893D-04  0.566994D+00
     11  -0.256739D-05 -0.213287D+00 -0.290995D+01 -0.169664D-03 -0.246369D+01
     12  -0.776825D-05  0.543372D+00 -0.596099D+00 -0.341171D-04  0.693854D-02
     13  -0.202841D-05 -0.853146D-01  0.787358D-01  0.434055D-05  0.114113D+00
     14   0.974952D-05 -0.359902D+00  0.165509D+01  0.927239D-04  0.130575D+01
     15   0.492184D+00 -0.213588D-05  0.319645D-04 -0.556220D+00  0.807499D-05
     16  -0.235790D+00  0.000000D+00 -0.503835D-05  0.702595D-01 -0.294855D-05
               666           667           668           669           670 
      1  -0.165545D+03 -0.165511D+03 -0.165482D+03 -0.165464D+03 -0.165421D+03
      2  -0.154978D-01 -0.357373D-01 -0.402321D-01 -0.584942D-02 -0.210450D-01
      3  -0.583005D-01 -0.179804D-01  0.199308D-01  0.812797D-01 -0.277727D-01
      4   0.000000D+00  0.000000D+00  0.000000D+00  0.000000D+00  0.000000D+00
      5   0.745383D-01  0.130032D+00  0.175669D+00  0.368396D-01  0.659105D-01
      6   0.239516D+00  0.670099D-01 -0.712785D-01 -0.277526D+00  0.126870D+00
      7   0.000000D+00  0.000000D+00  0.000000D+00 -0.127954D-05  0.000000D+00
      8   0.000000D+00  0.000000D+00  0.000000D+00  0.000000D+00  0.000000D+00
      9   0.170598D-05  0.497638D-05  0.249255D-05 -0.216900D-05  0.000000D+00
     10   0.815956D-02  0.331226D+00 -0.177278D+00  0.439607D+00 -0.295703D+00
     11  -0.485553D+00  0.178049D+00 -0.573414D+00  0.189970D+00 -0.674503D+00
     12  -0.153273D+00 -0.471527D-01  0.326182D+00  0.133484D+00 -0.289231D+00
     13  -0.315624D-01 -0.125259D+00 -0.767881D-01  0.598618D-01  0.135506D+00
     14  -0.532017D-01  0.181668D+00 -0.380671D+00  0.460851D+00  0.144771D+00
     15   0.000000D+00 -0.402421D-05  0.000000D+00  0.224013D-05  0.248818D-05
     16   0.000000D+00  0.000000D+00  0.000000D+00 -0.244539D-05  0.000000D+00
               671           672           673           674           675 
      1  -0.165323D+03 -0.165267D+03 -0.165148D+03 -0.165141D+03 -0.165026D+03
      2   0.160668D-01  0.368086D-01  0.793027D-02 -0.624417D-02 -0.146751D-01
      3   0.153517D-01 -0.103865D-01 -0.855692D-02 -0.373334D-02  0.732357D-02
      4   0.000000D+00  0.000000D+00  0.000000D+00  0.000000D+00  0.000000D+00
      5  -0.622978D-01 -0.127209D+00  0.114997D-01  0.201272D-01  0.166224D-01
      6  -0.361433D-01  0.409616D-01  0.269676D-01  0.787624D-02  0.222307D-02
      7   0.000000D+00  0.000000D+00  0.000000D+00  0.000000D+00  0.000000D+00
      8   0.000000D+00  0.000000D+00  0.000000D+00  0.000000D+00  0.000000D+00
      9   0.000000D+00 -0.139117D-05  0.000000D+00  0.000000D+00  0.000000D+00
     10   0.306999D+00 -0.211506D+00  0.406837D-02 -0.213520D+00 -0.480800D-01
     11  -0.506639D+00  0.447097D+00  0.681586D+00 -0.162238D+00 -0.305724D-01
     12  -0.181670D+00 -0.149740D-01 -0.122959D+00 -0.239204D-01 -0.229003D+00
     13   0.311259D-01 -0.137809D-01  0.453228D-01  0.293719D-01 -0.498759D-01
     14   0.378668D+00 -0.193829D-01 -0.947764D-01  0.343508D-01  0.477200D-01
     15   0.000000D+00  0.000000D+00 -0.177139D-05  0.000000D+00  0.000000D+00
     16  -0.148944D-05  0.000000D+00  0.000000D+00  0.000000D+00  0.000000D+00
 Unable to Open any file for archive entry.
 1\1\GINC-HEL10\SP\RTPSSh TD-FC\Gen\C1H3N1O1\SABYASACHI\21-Mar-2022\0\\
 #P TD(Nstates=10000) tpssh/Gen SCF(maxcycles=100) Int(Grid=ultrafine)\
 \xGDB7_00001_tier4.com\\0,1\N,0,-1.078471,-0.1569,0.000001\C,0,0.16196
 3,0.384944,0.000002\O,0,1.18917,-0.245458,-0.000001\H,0,-1.898427,0.41
 9427,-0.000004\H,0,-1.178124,-1.157073,-0.000005\H,0,0.140706,1.489948
 ,-0.000007\\Version=EM64L-G16RevC.01\State=1-A\HF=-169.7868687\RMSD=5.
 716e-09\PG=C01 [X(C1H3N1O1)]\\@
 The archive entry for this job was punched.


 E PUR SI MUOVE    -- GALILEO GALILEI
 Job cpu time:       0 days  0 hours 17 minutes 14.2 seconds.
 Elapsed time:       0 days  0 hours  2 minutes  9.6 seconds.
 File lengths (MBytes):  RWF=    584 Int=      0 D2E=      0 Chk=    127 Scr=      1
 Normal termination of Gaussian 16 at Mon Mar 21 20:14:25 2022.
