 Entering Gaussian System, Link 0=g16
 Input=000014.com
 Output=000014.log
 Initial command:
 /home/sabyasachi/g16/l1.exe "/scratch/sabyasachi/PBS_7976082.helios/Gau-155140.inp" -scrdir="/scratch/sabyasachi/PBS_7976082.helios/"
 Entering Link 1 = /home/sabyasachi/g16/l1.exe PID=    155141.
  
 Copyright (c) 1988-2019, Gaussian, Inc.  All Rights Reserved.
  
 This is part of the Gaussian(R) 16 program.  It is based on
 the Gaussian(R) 09 system (copyright 2009, Gaussian, Inc.),
 the Gaussian(R) 03 system (copyright 2003, Gaussian, Inc.),
 the Gaussian(R) 98 system (copyright 1998, Gaussian, Inc.),
 the Gaussian(R) 94 system (copyright 1995, Gaussian, Inc.),
 the Gaussian 92(TM) system (copyright 1992, Gaussian, Inc.),
 the Gaussian 90(TM) system (copyright 1990, Gaussian, Inc.),
 the Gaussian 88(TM) system (copyright 1988, Gaussian, Inc.),
 the Gaussian 86(TM) system (copyright 1986, Carnegie Mellon
 University), and the Gaussian 82(TM) system (copyright 1983,
 Carnegie Mellon University). Gaussian is a federally registered
 trademark of Gaussian, Inc.
  
 This software contains proprietary and confidential information,
 including trade secrets, belonging to Gaussian, Inc.
  
 This software is provided under written license and may be
 used, copied, transmitted, or stored only in accord with that
 written license.
  
 The following legend is applicable only to US Government
 contracts under FAR:
  
                    RESTRICTED RIGHTS LEGEND
  
 Use, reproduction and disclosure by the US Government is
 subject to restrictions as set forth in subparagraphs (a)
 and (c) of the Commercial Computer Software - Restricted
 Rights clause in FAR 52.227-19.
  
 Gaussian, Inc.
 340 Quinnipiac St., Bldg. 40, Wallingford CT 06492
  
  
 ---------------------------------------------------------------
 Warning -- This program may not be used in any manner that
 competes with the business of Gaussian, Inc. or will provide
 assistance to any competitor of Gaussian, Inc.  The licensee
 of this program is prohibited from giving any competitor of
 Gaussian, Inc. access to this program.  By using this program,
 the user acknowledges that Gaussian, Inc. is engaged in the
 business of creating and licensing software in the field of
 computational chemistry and represents and warrants to the
 licensee that it is not a competitor of Gaussian, Inc. and that
 it will not use this program in any manner prohibited above.
 ---------------------------------------------------------------
  

 Cite this work as:
 Gaussian 16, Revision C.01,
 M. J. Frisch, G. W. Trucks, H. B. Schlegel, G. E. Scuseria, 
 M. A. Robb, J. R. Cheeseman, G. Scalmani, V. Barone, 
 G. A. Petersson, H. Nakatsuji, X. Li, M. Caricato, A. V. Marenich, 
 J. Bloino, B. G. Janesko, R. Gomperts, B. Mennucci, H. P. Hratchian, 
 J. V. Ortiz, A. F. Izmaylov, J. L. Sonnenberg, D. Williams-Young, 
 F. Ding, F. Lipparini, F. Egidi, J. Goings, B. Peng, A. Petrone, 
 T. Henderson, D. Ranasinghe, V. G. Zakrzewski, J. Gao, N. Rega, 
 G. Zheng, W. Liang, M. Hada, M. Ehara, K. Toyota, R. Fukuda, 
 J. Hasegawa, M. Ishida, T. Nakajima, Y. Honda, O. Kitao, H. Nakai, 
 T. Vreven, K. Throssell, J. A. Montgomery, Jr., J. E. Peralta, 
 F. Ogliaro, M. J. Bearpark, J. J. Heyd, E. N. Brothers, K. N. Kudin, 
 V. N. Staroverov, T. A. Keith, R. Kobayashi, J. Normand, 
 K. Raghavachari, A. P. Rendell, J. C. Burant, S. S. Iyengar, 
 J. Tomasi, M. Cossi, J. M. Millam, M. Klene, C. Adamo, R. Cammi, 
 J. W. Ochterski, R. L. Martin, K. Morokuma, O. Farkas, 
 J. B. Foresman, and D. J. Fox, Gaussian, Inc., Wallingford CT, 2019.
 
 ******************************************
 Gaussian 16:  EM64L-G16RevC.01  3-Jul-2019
                21-Mar-2022 
 ******************************************
 %mem=64gb
 %nproc=8
 Will use up to    8 processors via shared memory.
 ---------------------------------------------------------------------
 #P TD(Nstates=10000) tpssh/Gen SCF(maxcycles=100) Int(Grid=ultrafine)
 ---------------------------------------------------------------------
 1/38=1,172=1/1;
 2/12=2,17=6,18=5,40=1/2;
 3/5=7,11=9,25=1,30=1,74=-35,75=-5/1,2,3,8;
 4//1;
 5/5=2,7=100,38=5/2;
 8/6=1,10=1,108=10000/1;
 9/41=10000,42=1,70=2/14;
 6/7=2,8=2,9=2,10=2/1;
 99/5=1,9=1/99;
 Leave Link    1 at Mon Mar 21 20:08:49 2022, MaxMem=  8589934592 cpu:               0.4 elap:               0.1
 (Enter /home/sabyasachi/g16/l101.exe)
 ---------------------
 xGDB7_00001_tier4.com
 ---------------------
 Symbolic Z-matrix:
 Charge =  0 Multiplicity = 1
 6                     0.        1.26773  -0.25908 
 6                     0.        0.        0.58555 
 6                     0.       -1.26773  -0.25908 
 1                     0.        2.16431   0.36309 
 1                    -0.88145   1.30768  -0.90365 
 1                     0.88145   1.30768  -0.90365 
 1                    -0.87453   0.        1.24206 
 1                     0.87453   0.        1.24206 
 1                    -0.88145  -1.30768  -0.90365 
 1                     0.       -2.16431   0.36309 
 1                     0.88145  -1.30768  -0.90365 
 
 ITRead=  0  0  0  0  0  0  0  0  0  0  0
 MicOpt= -1 -1 -1 -1 -1 -1 -1 -1 -1 -1 -1
 NAtoms=     11 NQM=       11 NQMF=       0 NMMI=      0 NMMIF=      0
                NMic=       0 NMicF=      0.
                    Isotopes and Nuclear Properties:
 (Nuclear quadrupole moments (NQMom) in fm**2, nuclear magnetic moments (NMagM)
  in nuclear magnetons)

  Atom         1           2           3           4           5           6           7           8           9          10
 IAtWgt=          12          12          12           1           1           1           1           1           1           1
 AtmWgt=  12.0000000  12.0000000  12.0000000   1.0078250   1.0078250   1.0078250   1.0078250   1.0078250   1.0078250   1.0078250
 NucSpn=           0           0           0           1           1           1           1           1           1           1
 AtZEff=  -0.0000000  -0.0000000  -0.0000000  -0.0000000  -0.0000000  -0.0000000  -0.0000000  -0.0000000  -0.0000000  -0.0000000
 NQMom=    0.0000000   0.0000000   0.0000000   0.0000000   0.0000000   0.0000000   0.0000000   0.0000000   0.0000000   0.0000000
 NMagM=    0.0000000   0.0000000   0.0000000   2.7928460   2.7928460   2.7928460   2.7928460   2.7928460   2.7928460   2.7928460
 AtZNuc=   6.0000000   6.0000000   6.0000000   1.0000000   1.0000000   1.0000000   1.0000000   1.0000000   1.0000000   1.0000000

  Atom        11
 IAtWgt=           1
 AtmWgt=   1.0078250
 NucSpn=           1
 AtZEff=  -0.0000000
 NQMom=    0.0000000
 NMagM=    2.7928460
 AtZNuc=   1.0000000
 Leave Link  101 at Mon Mar 21 20:08:50 2022, MaxMem=  8589934592 cpu:               0.7 elap:               0.1
 (Enter /home/sabyasachi/g16/l202.exe)
                          Input orientation:                          
 ---------------------------------------------------------------------
 Center     Atomic      Atomic             Coordinates (Angstroms)
 Number     Number       Type             X           Y           Z
 ---------------------------------------------------------------------
      1          6           0        0.000000    1.267731   -0.259082
      2          6           0        0.000000    0.000000    0.585552
      3          6           0        0.000000   -1.267731   -0.259082
      4          1           0        0.000000    2.164308    0.363087
      5          1           0       -0.881453    1.307675   -0.903652
      6          1           0        0.881453    1.307675   -0.903652
      7          1           0       -0.874532    0.000000    1.242055
      8          1           0        0.874532    0.000000    1.242055
      9          1           0       -0.881453   -1.307675   -0.903652
     10          1           0        0.000000   -2.164308    0.363087
     11          1           0        0.881453   -1.307675   -0.903652
 ---------------------------------------------------------------------
                    Distance matrix (angstroms):
                    1          2          3          4          5
     1  C    0.000000
     2  C    1.523335   0.000000
     3  C    2.535462   1.523335   0.000000
     4  H    1.091304   2.175711   3.487977   0.000000
     5  H    1.092715   2.169032   2.797346   1.765052   0.000000
     6  H    1.092715   2.169032   2.797346   1.765052   1.762906
     7  H    2.150665   1.093528   2.150665   2.494318   2.512791
     8  H    2.150665   1.093528   2.150665   2.494318   3.065543
     9  H    2.797346   2.169032   1.092715   3.799507   2.615350
    10  H    3.487977   2.175711   1.091304   4.328616   3.799507
    11  H    2.797346   2.169032   1.092715   3.799507   3.154028
                    6          7          8          9         10
     6  H    0.000000
     7  H    3.065543   0.000000
     8  H    2.512791   1.749064   0.000000
     9  H    3.154028   2.512791   3.065543   0.000000
    10  H    3.799507   2.494318   2.494318   1.765052   0.000000
    11  H    2.615350   3.065543   2.512791   1.762906   1.765052
                   11
    11  H    0.000000
 Stoichiometry    C3H8
 Framework group  C2V[C2(C),SGV(C2H2),SGV'(H2),X(H4)]
 Deg. of freedom     9
 Full point group                 C2V     NOp   4
 Largest Abelian subgroup         C2V     NOp   4
 Largest concise Abelian subgroup C2V     NOp   4
                         Standard orientation:                         
 ---------------------------------------------------------------------
 Center     Atomic      Atomic             Coordinates (Angstroms)
 Number     Number       Type             X           Y           Z
 ---------------------------------------------------------------------
      1          6           0        0.000000    1.267731   -0.259082
      2          6           0       -0.000000   -0.000000    0.585552
      3          6           0       -0.000000   -1.267731   -0.259082
      4          1           0        0.000000    2.164308    0.363087
      5          1           0       -0.881453    1.307675   -0.903652
      6          1           0        0.881453    1.307675   -0.903652
      7          1           0       -0.874532    0.000000    1.242055
      8          1           0        0.874532   -0.000000    1.242055
      9          1           0       -0.881453   -1.307675   -0.903652
     10          1           0       -0.000000   -2.164308    0.363087
     11          1           0        0.881453   -1.307675   -0.903652
 ---------------------------------------------------------------------
 Rotational constants (GHZ):          29.6189661           8.4822903           7.5098267
 Leave Link  202 at Mon Mar 21 20:08:50 2022, MaxMem=  8589934592 cpu:               0.1 elap:               0.0
 (Enter /home/sabyasachi/g16/l301.exe)
 General basis read from cards:  (5D, 7F)
 Centers:       4      5      6      7      8      9     10     11
 S 3 1.00
     Exponent=  1.3010701000D+01 Coefficients=  1.9682158000D-02
     Exponent=  1.9622572000D+00 Coefficients=  1.3796524000D-01
     Exponent=  4.4453796000D-01 Coefficients=  4.7831935000D-01
 S 1 1.00
     Exponent=  1.2194962000D-01 Coefficients=  1.0000000000D+00
 P 1 1.00
     Exponent=  8.0000000000D-01 Coefficients=  1.0000000000D+00
 P 1 1.00
     Exponent=  1.1704099050D-01 Coefficients=  1.0000000000D+00
 ****
 Centers:       1      2      3
 S 5 1.00
     Exponent=  1.2384016938D+03 Coefficients=  5.4568832082D-03
     Exponent=  1.8629004992D+02 Coefficients=  4.0638409211D-02
     Exponent=  4.2251176346D+01 Coefficients=  1.8025593888D-01
     Exponent=  1.1676557932D+01 Coefficients=  4.6315121755D-01
     Exponent=  3.5930506482D+00 Coefficients=  4.4087173314D-01
 S 1 1.00
     Exponent=  4.0245147363D-01 Coefficients=  1.0000000000D+00
 S 1 1.00
     Exponent=  1.3090182668D-01 Coefficients=  1.0000000000D+00
 S 1 1.00
     Exponent=  6.7053540256D-02 Coefficients=  1.0000000000D+00
 P 3 1.00
     Exponent=  9.4680970621D+00 Coefficients=  3.8387871728D-02
     Exponent=  2.0103545142D+00 Coefficients=  2.1117025112D-01
     Exponent=  5.4771004707D-01 Coefficients=  5.1328172114D-01
 P 1 1.00
     Exponent=  1.5268613795D-01 Coefficients=  1.0000000000D+00
 D 1 1.00
     Exponent=  8.0000000000D-01 Coefficients=  1.0000000000D+00
 D 1 1.00
     Exponent=  1.1713185140D-01 Coefficients=  1.0000000000D+00
 ****
 Ernie: Thresh=  0.10000D-02 Tol=  0.10000D-05 Strict=F.
 There are    48 symmetry adapted cartesian basis functions of A1  symmetry.
 There are    20 symmetry adapted cartesian basis functions of A2  symmetry.
 There are    26 symmetry adapted cartesian basis functions of B1  symmetry.
 There are    36 symmetry adapted cartesian basis functions of B2  symmetry.
 There are    44 symmetry adapted basis functions of A1  symmetry.
 There are    20 symmetry adapted basis functions of A2  symmetry.
 There are    26 symmetry adapted basis functions of B1  symmetry.
 There are    34 symmetry adapted basis functions of B2  symmetry.
   124 basis functions,   176 primitive gaussians,   130 cartesian basis functions
    13 alpha electrons       13 beta electrons
       nuclear repulsion energy        82.7165400226 Hartrees.
 IExCor= 2523 DFT=T Ex+Corr=TPSSh ExCW=0 ScaHFX=  0.100000
 ScaDFX=  0.900000  0.900000  1.000000  1.000000 ScalE2=  1.000000  1.000000
 IRadAn=      5 IRanWt=     -1 IRanGd=            0 ICorTp=0 IEmpDi=  4
 NAtoms=   11 NActive=   11 NUniq=    5 SFac= 4.00D+00 NAtFMM=   60 NAOKFM=F Big=F
 Integral buffers will be    131072 words long.
 Regular integral format.
 Two-electron integral symmetry is turned on.
 Leave Link  301 at Mon Mar 21 20:08:50 2022, MaxMem=  8589934592 cpu:               0.5 elap:               0.1
 (Enter /home/sabyasachi/g16/l302.exe)
 NPDir=0 NMtPBC=     1 NCelOv=     1 NCel=       1 NClECP=     1 NCelD=      1
         NCelK=      1 NCelE2=     1 NClLst=     1 CellRange=     0.0.
 One-electron integrals computed using PRISM.
 One-electron integral symmetry used in STVInt
 NBasis=   124 RedAO= T EigKep=  2.54D-04  NBF=    44    20    26    34
 NBsUse=   124 1.00D-06 EigRej= -1.00D+00 NBFU=    44    20    26    34
 Precomputing XC quadrature grid using
 IXCGrd= 4 IRadAn=           5 IRanWt=          -1 IRanGd=           0 AccXCQ= 0.00D+00.
 Generated NRdTot=       0 NPtTot=           0 NUsed=           0 NTot=          32
 NSgBfM=   130   130   130   130   130 MxSgAt=    11 MxSgA2=    11.
 Leave Link  302 at Mon Mar 21 20:08:50 2022, MaxMem=  8589934592 cpu:               1.1 elap:               0.2
 (Enter /home/sabyasachi/g16/l303.exe)
 DipDrv:  MaxL=1.
 Leave Link  303 at Mon Mar 21 20:08:50 2022, MaxMem=  8589934592 cpu:               0.2 elap:               0.0
 (Enter /home/sabyasachi/g16/l308.exe)
 Leave Link  308 at Mon Mar 21 20:08:50 2022, MaxMem=  8589934592 cpu:               0.2 elap:               0.0
 (Enter /home/sabyasachi/g16/l401.exe)
 ExpMin= 6.71D-02 ExpMax= 1.24D+03 ExpMxC= 1.86D+02 IAcc=3 IRadAn=         5 AccDes= 0.00D+00
 Harris functional with IExCor= 1009 and IRadAn=       5 diagonalized for initial guess.
 HarFok:  IExCor= 1009 AccDes= 0.00D+00 IRadAn=         5 IDoV= 1 UseB2=F ITyADJ=14
 ICtDFT=  3500011 ScaDFX=  1.000000  1.000000  1.000000  1.000000
 FoFCou: FMM=F IPFlag=           0 FMFlag=      100000 FMFlg1=           0
         NFxFlg=           0 DoJE=T BraDBF=F KetDBF=T FulRan=T
         wScrn=  0.000000 ICntrl=       500 IOpCl=  0 I1Cent=   200000004 NGrid=           0
         NMat0=    1 NMatS0=      1 NMatT0=    0 NMatD0=    1 NMtDS0=    0 NMtDT0=    0
 Petite list used in FoFCou.
 Harris En= -119.006582342474    
 JPrj=0 DoOrth=F DoCkMO=F.
 Initial guess orbital symmetries:
       Occupied  (B2) (A1) (A1) (A1) (B2) (A1) (B1) (A1) (B2) (A2)
                 (B2) (A1) (B1)
       Virtual   (A1) (B2) (A1) (B1) (A1) (A1) (B1) (B2) (A2) (B2)
                 (A1) (A2) (B2) (A1) (B1) (B1) (B2) (A1) (A1) (B2)
                 (A1) (A2) (B1) (B1) (A1) (A1) (A2) (B2) (B1) (B2)
                 (A2) (A1) (A1) (B2) (B1) (A1) (B2) (A2) (A1) (B1)
                 (B1) (A2) (B2) (A1) (A1) (B2) (B1) (A2) (B2) (A1)
                 (B2) (A2) (A1) (B2) (A1) (B1) (B2) (A1) (A1) (B2)
                 (B1) (A2) (A1) (B2) (A1) (B1) (A2) (B2) (B1) (B2)
                 (A1) (A1) (A2) (A1) (B1) (B2) (A2) (B1) (A1) (A2)
                 (B2) (B1) (A1) (A2) (B2) (B1) (A1) (B1) (B2) (A2)
                 (A1) (B1) (B2) (A1) (B2) (A1) (A2) (A1) (B2) (B1)
                 (A1) (B2) (A2) (A1) (B2) (B1) (A1) (B2) (A2) (A1)
                 (B1)
 The electronic state of the initial guess is 1-A1.
 Leave Link  401 at Mon Mar 21 20:08:50 2022, MaxMem=  8589934592 cpu:               2.0 elap:               0.3
 (Enter /home/sabyasachi/g16/l502.exe)
 Keep R1 ints in memory in symmetry-blocked form, NReq=37708079.
 FoFCou: FMM=F IPFlag=           0 FMFlag=           0 FMFlg1=           0
         NFxFlg=           0 DoJE=F BraDBF=F KetDBF=F FulRan=T
         wScrn=  0.000000 ICntrl=       600 IOpCl=  0 I1Cent=           0 NGrid=           0
         NMat0=    1 NMatS0=   7750 NMatT0=    0 NMatD0=    1 NMtDS0=    0 NMtDT0=    0
 Petite list used in FoFCou.
 Closed shell SCF:
 Using DIIS extrapolation, IDIIS=  1040.
 NGot=  8589934592 LenX=  8582321173 LenY=  8582303832
 Requested convergence on RMS density matrix=1.00D-08 within 100 cycles.
 Requested convergence on MAX density matrix=1.00D-06.
 Requested convergence on             energy=1.00D-06.
 No special actions if energy rises.
 Integral accuracy reduced to 1.0D-05 until final iterations.

 Cycle   1  Pass 0  IDiag  1:
 E= -118.925376490318    
 DIIS: error= 3.97D-02 at cycle   1 NSaved=   1.
 NSaved= 1 IEnMin= 1 EnMin= -118.925376490318     IErMin= 1 ErrMin= 3.97D-02
 ErrMax= 3.97D-02  0.00D+00 EMaxC= 1.00D-01 BMatC= 1.31D-01 BMatP= 1.31D-01
 IDIUse=3 WtCom= 6.03D-01 WtEn= 3.97D-01
 Coeff-Com:  0.100D+01
 Coeff-En:   0.100D+01
 Coeff:      0.100D+01
 Gap=     0.256 Goal=   None    Shift=    0.000
 GapD=    0.256 DampG=1.000 DampE=0.500 DampFc=0.5000 IDamp=-1.
 Damping current iteration by 5.00D-01
 RMSDP=7.18D-03 MaxDP=1.55D-01              OVMax= 1.96D-01

 Cycle   2  Pass 0  IDiag  1:
 E= -118.984422494821     Delta-E=       -0.059046004503 Rises=F Damp=T
 DIIS: error= 9.28D-03 at cycle   2 NSaved=   2.
 NSaved= 2 IEnMin= 2 EnMin= -118.984422494821     IErMin= 2 ErrMin= 9.28D-03
 ErrMax= 9.28D-03  0.00D+00 EMaxC= 1.00D-01 BMatC= 7.16D-03 BMatP= 1.31D-01
 IDIUse=3 WtCom= 9.07D-01 WtEn= 9.28D-02
 Coeff-Com:  0.121D+00 0.879D+00
 Coeff-En:   0.219D+00 0.781D+00
 Coeff:      0.130D+00 0.870D+00
 Gap=     0.334 Goal=   None    Shift=    0.000
 RMSDP=2.17D-03 MaxDP=4.15D-02 DE=-5.90D-02 OVMax= 1.21D-01

 Cycle   3  Pass 0  IDiag  1:
 E= -119.074261443999     Delta-E=       -0.089838949179 Rises=F Damp=F
 DIIS: error= 3.20D-03 at cycle   3 NSaved=   3.
 NSaved= 3 IEnMin= 3 EnMin= -119.074261443999     IErMin= 3 ErrMin= 3.20D-03
 ErrMax= 3.20D-03  0.00D+00 EMaxC= 1.00D-01 BMatC= 8.06D-04 BMatP= 7.16D-03
 IDIUse=3 WtCom= 9.68D-01 WtEn= 3.20D-02
 Coeff-Com:  0.123D-01 0.213D+00 0.774D+00
 Coeff-En:   0.000D+00 0.000D+00 0.100D+01
 Coeff:      0.119D-01 0.207D+00 0.781D+00
 Gap=     0.336 Goal=   None    Shift=    0.000
 RMSDP=5.67D-04 MaxDP=8.32D-03 DE=-8.98D-02 OVMax= 9.99D-03

 Cycle   4  Pass 0  IDiag  1:
 E= -119.074873920140     Delta-E=       -0.000612476140 Rises=F Damp=F
 DIIS: error= 1.14D-03 at cycle   4 NSaved=   4.
 NSaved= 4 IEnMin= 4 EnMin= -119.074873920140     IErMin= 4 ErrMin= 1.14D-03
 ErrMax= 1.14D-03  0.00D+00 EMaxC= 1.00D-01 BMatC= 2.00D-04 BMatP= 8.06D-04
 IDIUse=3 WtCom= 9.89D-01 WtEn= 1.14D-02
 Coeff-Com: -0.233D-02 0.287D-01 0.341D+00 0.632D+00
 Coeff-En:   0.000D+00 0.000D+00 0.131D+00 0.869D+00
 Coeff:     -0.231D-02 0.284D-01 0.339D+00 0.635D+00
 Gap=     0.337 Goal=   None    Shift=    0.000
 RMSDP=1.67D-04 MaxDP=4.72D-03 DE=-6.12D-04 OVMax= 4.09D-03

 Cycle   5  Pass 0  IDiag  1:
 E= -119.075058757346     Delta-E=       -0.000184837206 Rises=F Damp=F
 DIIS: error= 3.87D-04 at cycle   5 NSaved=   5.
 NSaved= 5 IEnMin= 5 EnMin= -119.075058757346     IErMin= 5 ErrMin= 3.87D-04
 ErrMax= 3.87D-04  0.00D+00 EMaxC= 1.00D-01 BMatC= 1.48D-05 BMatP= 2.00D-04
 IDIUse=3 WtCom= 9.96D-01 WtEn= 3.87D-03
 Coeff-Com: -0.133D-02-0.103D-02 0.104D+00 0.294D+00 0.605D+00
 Coeff-En:   0.000D+00 0.000D+00 0.000D+00 0.000D+00 0.100D+01
 Coeff:     -0.132D-02-0.103D-02 0.104D+00 0.293D+00 0.606D+00
 Gap=     0.337 Goal=   None    Shift=    0.000
 RMSDP=5.01D-05 MaxDP=1.32D-03 DE=-1.85D-04 OVMax= 1.15D-03

 Cycle   6  Pass 0  IDiag  1:
 E= -119.075073165339     Delta-E=       -0.000014407993 Rises=F Damp=F
 DIIS: error= 3.89D-05 at cycle   6 NSaved=   6.
 NSaved= 6 IEnMin= 6 EnMin= -119.075073165339     IErMin= 6 ErrMin= 3.89D-05
 ErrMax= 3.89D-05  0.00D+00 EMaxC= 1.00D-01 BMatC= 1.58D-07 BMatP= 1.48D-05
 IDIUse=1 WtCom= 1.00D+00 WtEn= 0.00D+00
 Coeff-Com: -0.121D-03-0.109D-02 0.231D-01 0.740D-01 0.189D+00 0.715D+00
 Coeff:     -0.121D-03-0.109D-02 0.231D-01 0.740D-01 0.189D+00 0.715D+00
 Gap=     0.337 Goal=   None    Shift=    0.000
 RMSDP=7.72D-06 MaxDP=9.75D-05 DE=-1.44D-05 OVMax= 1.43D-04

 Initial convergence to 1.0D-05 achieved.  Increase integral accuracy.
 Cycle   7  Pass 1  IDiag  1:
 E= -119.075069641011     Delta-E=        0.000003524328 Rises=F Damp=F
 DIIS: error= 7.25D-06 at cycle   1 NSaved=   1.
 NSaved= 1 IEnMin= 1 EnMin= -119.075069641011     IErMin= 1 ErrMin= 7.25D-06
 ErrMax= 7.25D-06  0.00D+00 EMaxC= 1.00D-01 BMatC= 5.08D-09 BMatP= 5.08D-09
 IDIUse=1 WtCom= 1.00D+00 WtEn= 0.00D+00
 Coeff-Com:  0.100D+01
 Coeff:      0.100D+01
 Gap=     0.337 Goal=   None    Shift=    0.000
 RMSDP=7.72D-06 MaxDP=9.75D-05 DE= 3.52D-06 OVMax= 4.04D-05

 Cycle   8  Pass 1  IDiag  1:
 E= -119.075069643375     Delta-E=       -0.000000002364 Rises=F Damp=F
 DIIS: error= 4.99D-06 at cycle   2 NSaved=   2.
 NSaved= 2 IEnMin= 2 EnMin= -119.075069643375     IErMin= 2 ErrMin= 4.99D-06
 ErrMax= 4.99D-06  0.00D+00 EMaxC= 1.00D-01 BMatC= 3.33D-09 BMatP= 5.08D-09
 IDIUse=1 WtCom= 1.00D+00 WtEn= 0.00D+00
 Coeff-Com:  0.444D+00 0.556D+00
 Coeff:      0.444D+00 0.556D+00
 Gap=     0.337 Goal=   None    Shift=    0.000
 RMSDP=7.97D-07 MaxDP=1.16D-05 DE=-2.36D-09 OVMax= 2.11D-05

 Cycle   9  Pass 1  IDiag  1:
 E= -119.075069647101     Delta-E=       -0.000000003726 Rises=F Damp=F
 DIIS: error= 1.60D-06 at cycle   3 NSaved=   3.
 NSaved= 3 IEnMin= 3 EnMin= -119.075069647101     IErMin= 3 ErrMin= 1.60D-06
 ErrMax= 1.60D-06  0.00D+00 EMaxC= 1.00D-01 BMatC= 1.67D-10 BMatP= 3.33D-09
 IDIUse=1 WtCom= 1.00D+00 WtEn= 0.00D+00
 Coeff-Com:  0.144D+00 0.247D+00 0.609D+00
 Coeff:      0.144D+00 0.247D+00 0.609D+00
 Gap=     0.337 Goal=   None    Shift=    0.000
 RMSDP=1.48D-07 MaxDP=3.07D-06 DE=-3.73D-09 OVMax= 3.68D-06

 Cycle  10  Pass 1  IDiag  1:
 E= -119.075069647270     Delta-E=       -0.000000000169 Rises=F Damp=F
 DIIS: error= 2.11D-07 at cycle   4 NSaved=   4.
 NSaved= 4 IEnMin= 4 EnMin= -119.075069647270     IErMin= 4 ErrMin= 2.11D-07
 ErrMax= 2.11D-07  0.00D+00 EMaxC= 1.00D-01 BMatC= 4.91D-12 BMatP= 1.67D-10
 IDIUse=1 WtCom= 1.00D+00 WtEn= 0.00D+00
 Coeff-Com:  0.577D-02 0.275D-01 0.169D+00 0.797D+00
 Coeff:      0.577D-02 0.275D-01 0.169D+00 0.797D+00
 Gap=     0.337 Goal=   None    Shift=    0.000
 RMSDP=4.00D-08 MaxDP=5.08D-07 DE=-1.69D-10 OVMax= 8.20D-07

 Cycle  11  Pass 1  IDiag  1:
 E= -119.075069647272     Delta-E=       -0.000000000002 Rises=F Damp=F
 DIIS: error= 9.36D-08 at cycle   5 NSaved=   5.
 NSaved= 5 IEnMin= 5 EnMin= -119.075069647272     IErMin= 5 ErrMin= 9.36D-08
 ErrMax= 9.36D-08  0.00D+00 EMaxC= 1.00D-01 BMatC= 5.79D-13 BMatP= 4.91D-12
 IDIUse=1 WtCom= 1.00D+00 WtEn= 0.00D+00
 Coeff-Com: -0.520D-02-0.627D-03 0.392D-01 0.339D+00 0.628D+00
 Coeff:     -0.520D-02-0.627D-03 0.392D-01 0.339D+00 0.628D+00
 Gap=     0.337 Goal=   None    Shift=    0.000
 RMSDP=1.08D-08 MaxDP=3.30D-07 DE=-2.02D-12 OVMax= 2.18D-07

 Cycle  12  Pass 1  IDiag  1:
 E= -119.075069647272     Delta-E=       -0.000000000000 Rises=F Damp=F
 DIIS: error= 1.76D-08 at cycle   6 NSaved=   6.
 NSaved= 6 IEnMin= 6 EnMin= -119.075069647272     IErMin= 6 ErrMin= 1.76D-08
 ErrMax= 1.76D-08  0.00D+00 EMaxC= 1.00D-01 BMatC= 4.57D-14 BMatP= 5.79D-13
 IDIUse=1 WtCom= 1.00D+00 WtEn= 0.00D+00
 Coeff-Com: -0.286D-02-0.121D-02 0.139D-01 0.148D+00 0.326D+00 0.516D+00
 Coeff:     -0.286D-02-0.121D-02 0.139D-01 0.148D+00 0.326D+00 0.516D+00
 Gap=     0.337 Goal=   None    Shift=    0.000
 RMSDP=2.23D-09 MaxDP=5.78D-08 DE=-1.71D-13 OVMax= 5.33D-08

 SCF Done:  E(RTPSSh) =  -119.075069647     A.U. after   12 cycles
            NFock= 12  Conv=0.22D-08     -V/T= 2.0128
 KE= 1.175705093921D+02 PE=-4.394140428237D+02 EE= 1.200519237618D+02
 Leave Link  502 at Mon Mar 21 20:08:53 2022, MaxMem=  8589934592 cpu:              19.2 elap:               2.4
 (Enter /home/sabyasachi/g16/l801.exe)
 DoSCS=F DFT=T ScalE2(SS,OS)=  1.000000  1.000000
 ExpMin= 6.71D-02 ExpMax= 1.24D+03 ExpMxC= 1.86D+02 IAcc=3 IRadAn=         5 AccDes= 0.00D+00
 HarFok:  IExCor=  205 AccDes= 0.00D+00 IRadAn=         5 IDoV=-2 UseB2=F ITyADJ=14
 ICtDFT= 12500011 ScaDFX=  1.000000  1.000000  1.000000  1.000000
 Largest valence mixing into a core orbital is  8.47D-05
 Largest core mixing into a valence orbital is  2.94D-05
 Range of M.O.s used for correlation:     4   124
 NBasis=   124 NAE=    13 NBE=    13 NFC=     3 NFV=     0
 NROrb=    121 NOA=    10 NOB=    10 NVA=   111 NVB=   111

 **** Warning!!: The largest alpha MO coefficient is  0.26377195D+02

 Leave Link  801 at Mon Mar 21 20:08:53 2022, MaxMem=  8589934592 cpu:               0.6 elap:               0.1
 (Enter /home/sabyasachi/g16/l914.exe)
 RHF ground state
 Keep R1, R2, and R3 ints in memory in symmetry-blocked form, NReq=1499370331.
 FoFCou: FMM=F IPFlag=           0 FMFlag=           0 FMFlg1=           0
         NFxFlg=           0 DoJE=F BraDBF=F KetDBF=F FulRan=T
         wScrn=  0.000000 ICntrl=       600 IOpCl=  0 I1Cent=           0 NGrid=           0
         NMat0=    1 NMatS0=   7750 NMatT0=    0 NMatD0=    1 NMtDS0=    0 NMtDT0=    0
 Petite list used in FoFCou.
 MDV=  8589934592 DFT=T DoStab=F Mixed=T DoRPA=T DoScal=F NonHer=T
 Making orbital integer symmetry assigments:
 Orbital symmetries:
       Occupied  (A1) (B2) (A1) (A1) (B2) (A1) (B1) (A1) (B2) (A2)
                 (B2) (A1) (B1)
       Virtual   (A1) (B2) (A1) (B1) (A1) (B1) (A1) (B2) (A2) (A2)
                 (A1) (B2) (B1) (B2) (A1) (B1) (B2) (A1) (B2) (A1)
                 (A2) (A1) (B1) (A1) (A1) (A2) (B1) (B1) (B2) (A2)
                 (B2) (A1) (A1) (B1) (B2) (B2) (A2) (A1) (B1) (A1)
                 (A2) (B1) (A1) (B2) (B2) (A1) (B1) (B2) (A1) (A2)
                 (B2) (A2) (A1) (B2) (A1) (B1) (B2) (A1) (A1) (B2)
                 (B1) (A2) (A1) (B2) (A1) (B1) (A2) (B2) (B1) (A1)
                 (B2) (A1) (A2) (A1) (B1) (B2) (A2) (B1) (A1) (A2)
                 (B1) (B2) (A1) (A2) (B2) (B1) (A1) (B2) (B1) (A2)
                 (A1) (B1) (B2) (A1) (B2) (A2) (A1) (A1) (B2) (B1)
                 (A1) (B2) (A2) (A1) (B2) (B1) (A1) (B2) (A2) (A1)
                 (B1)
  1110 initial guesses have been made.
 Convergence on wavefunction:    0.001000000000000
 Davidson Disk Diagonalization:  ConvIn= 1.00D-03 SkipCon=T Conv= 1.00D-03.
 Max sub-space:  6660 roots to seek:  2220 dimension of matrix:         2220
 *** WARNING: Number of orthogonal guesses is         1110
 Iteration     1 Dimension  1110 NMult     0 NNew   1110
 CISAX will form  1110 AO SS matrices at one time.
 NMat=  1110 NSing=  1110 JSym2X=-1.
 New state      2 was old state      3
 New state      3 was old state      2
 New state     12 was old state     13
 New state     13 was old state     12
 New state     17 was old state     18
 New state     18 was old state     17
 New state     21 was old state     22
 New state     22 was old state     24
 New state     23 was old state     21
 New state     24 was old state     23
 New state     27 was old state     30
 New state     28 was old state     27
 New state     29 was old state     28
 New state     30 was old state     29
 New state     34 was old state     35
 New state     35 was old state     34
 New state     36 was old state     38
 New state     37 was old state     36
 New state     38 was old state     37
 New state     40 was old state     43
 New state     41 was old state     42
 New state     42 was old state     41
 New state     43 was old state     40
 New state     44 was old state     45
 New state     45 was old state     44
 New state     46 was old state     48
 New state     47 was old state     46
 New state     48 was old state     47
 New state     49 was old state     50
 New state     50 was old state     49
 New state     52 was old state     53
 New state     53 was old state     52
 New state     56 was old state     57
 New state     57 was old state     56
 New state     58 was old state     61
 New state     59 was old state     62
 New state     60 was old state     59
 New state     61 was old state     63
 New state     62 was old state     58
 New state     63 was old state     64
 New state     64 was old state     66
 New state     65 was old state     69
 New state     66 was old state     65
 New state     68 was old state     70
 New state     69 was old state     68
 New state     70 was old state     72
 New state     71 was old state     73
 New state     72 was old state     75
 New state     73 was old state     71
 New state     74 was old state     77
 New state     75 was old state     74
 New state     76 was old state     78
 New state     77 was old state     76
 New state     78 was old state     80
 New state     80 was old state     83
 New state     81 was old state     82
 New state     82 was old state     89
 New state     83 was old state     84
 New state     84 was old state     85
 New state     85 was old state     88
 New state     86 was old state     87
 New state     87 was old state     86
 New state     88 was old state    101
 New state     89 was old state     90
 New state     90 was old state     91
 New state     91 was old state     92
 New state     92 was old state     95
 New state     93 was old state     94
 New state     94 was old state     96
 New state     95 was old state     93
 New state     96 was old state     81
 New state     97 was old state     98
 New state     98 was old state     99
 New state     99 was old state     97
 New state    101 was old state    103
 New state    102 was old state    106
 New state    103 was old state    104
 New state    104 was old state    105
 New state    105 was old state    108
 New state    106 was old state    107
 New state    107 was old state    109
 New state    108 was old state    124
 New state    109 was old state    102
 New state    112 was old state    113
 New state    113 was old state    112
 New state    114 was old state    115
 New state    115 was old state    114
 New state    119 was old state    122
 New state    120 was old state    121
 New state    121 was old state    120
 New state    122 was old state    119
 New state    123 was old state    127
 New state    124 was old state    125
 New state    125 was old state    126
 New state    126 was old state    129
 New state    127 was old state    128
 New state    128 was old state    133
 New state    129 was old state    130
 New state    130 was old state    131
 New state    131 was old state    132
 New state    132 was old state    134
 New state    133 was old state    136
 New state    134 was old state    135
 New state    135 was old state    137
 No map to state    136
 New state    137 was old state    138
 New state    138 was old state    141
 New state    139 was old state    140
 New state    140 was old state    139
 New state    141 was old state    143
 New state    143 was old state    152
 New state    144 was old state    145
 New state    145 was old state    144
 New state    147 was old state    148
 New state    148 was old state    149
 New state    149 was old state    150
 New state    150 was old state    147
 New state    152 was old state    154
 New state    153 was old state    165
 New state    154 was old state    157
 New state    155 was old state    153
 New state    156 was old state    162
 New state    157 was old state    163
 New state    158 was old state    155
 New state    159 was old state    164
 New state    160 was old state    161
 New state    161 was old state    158
 New state    162 was old state    159
 New state    163 was old state    156
 New state    164 was old state    167
 New state    165 was old state    160
 New state    166 was old state    168
 New state    167 was old state    166
 New state    168 was old state    170
 New state    169 was old state    171
 New state    170 was old state    174
 New state    171 was old state    169
 New state    173 was old state    190
 New state    174 was old state    176
 New state    175 was old state    173
 New state    176 was old state    178
 New state    177 was old state    175
 New state    178 was old state    177
 New state    179 was old state    182
 New state    180 was old state    179
 New state    182 was old state    184
 New state    184 was old state    187
 New state    186 was old state    180
 New state    187 was old state    186
 New state    189 was old state    193
 New state    190 was old state    189
 New state    191 was old state    194
 New state    192 was old state    200
 New state    193 was old state    191
 New state    194 was old state    198
 New state    195 was old state    197
 New state    196 was old state    201
 New state    197 was old state    203
 New state    198 was old state    202
 New state    199 was old state    196
 New state    200 was old state    199
 New state    201 was old state    206
 New state    202 was old state    208
 New state    203 was old state    204
 New state    204 was old state    192
 New state    206 was old state    207
 New state    207 was old state    211
 New state    208 was old state    213
 New state    210 was old state    223
 New state    211 was old state    210
 New state    213 was old state    217
 New state    214 was old state    215
 New state    215 was old state    214
 New state    217 was old state    218
 New state    218 was old state    222
 New state    219 was old state    221
 New state    220 was old state    219
 New state    221 was old state    225
 New state    222 was old state    220
 New state    223 was old state    226
 New state    225 was old state    227
 New state    226 was old state    230
 New state    227 was old state    236
 New state    228 was old state    229
 New state    229 was old state    228
 New state    230 was old state    231
 New state    231 was old state    234
 New state    232 was old state    233
 New state    233 was old state    232
 New state    234 was old state    239
 New state    236 was old state    255
 New state    237 was old state    244
 New state    238 was old state    242
 New state    239 was old state    240
 New state    240 was old state    237
 New state    241 was old state    248
 New state    242 was old state    243
 New state    243 was old state    245
 New state    244 was old state    241
 New state    245 was old state    252
 New state    246 was old state    247
 New state    247 was old state    250
 New state    248 was old state    246
 New state    249 was old state    251
 New state    250 was old state    254
 New state    251 was old state    253
 New state    252 was old state    249
 New state    253 was old state    258
 New state    254 was old state    264
 New state    255 was old state    257
 New state    257 was old state    261
 New state    258 was old state    263
 New state    259 was old state    274
 New state    260 was old state    259
 New state    261 was old state    268
 New state    262 was old state    266
 New state    263 was old state    260
 New state    264 was old state    262
 New state    265 was old state    267
 New state    266 was old state    269
 New state    267 was old state    276
 New state    268 was old state    271
 New state    269 was old state    265
 New state    271 was old state    278
 New state    272 was old state    275
 New state    273 was old state    279
 New state    274 was old state    280
 New state    275 was old state    277
 New state    276 was old state    273
 New state    277 was old state    272
 New state    278 was old state    282
 New state    279 was old state    283
 New state    280 was old state    284
 New state    281 was old state    288
 New state    282 was old state    287
 New state    283 was old state    289
 New state    284 was old state    285
 New state    285 was old state    286
 New state    286 was old state    291
 New state    287 was old state    292
 New state    288 was old state    290
 New state    289 was old state    293
 New state    290 was old state    298
 New state    291 was old state    294
 New state    292 was old state    281
 New state    293 was old state    295
 New state    294 was old state    300
 New state    295 was old state    297
 New state    297 was old state    303
 New state    298 was old state    302
 New state    299 was old state    301
 New state    300 was old state    299
 New state    301 was old state    307
 New state    302 was old state    322
 New state    303 was old state    305
 New state    304 was old state    310
 New state    305 was old state    314
 New state    307 was old state    308
 New state    308 was old state    309
 New state    309 was old state    312
 New state    310 was old state    324
 New state    311 was old state    315
 New state    312 was old state    316
 New state    314 was old state    311
 New state    315 was old state    317
 New state    316 was old state    321
 New state    317 was old state    319
 New state    318 was old state    326
 New state    319 was old state    318
 New state    321 was old state    331
 New state    322 was old state    330
 New state    323 was old state    327
 New state    324 was old state    325
 New state    325 was old state    329
 New state    326 was old state    323
 New state    327 was old state    328
 New state    328 was old state    334
 New state    329 was old state    335
 New state    330 was old state    332
 New state    331 was old state    333
 New state    332 was old state    340
 New state    333 was old state    337
 New state    334 was old state    336
 New state    335 was old state    339
 New state    336 was old state    343
 New state    337 was old state    342
 New state    339 was old state    349
 New state    340 was old state    345
 New state    341 was old state    346
 New state    342 was old state    341
 New state    343 was old state    355
 New state    344 was old state    351
 New state    345 was old state    344
 New state    346 was old state    347
 New state    347 was old state    353
 New state    349 was old state    379
 New state    351 was old state    354
 New state    352 was old state    366
 New state    353 was old state    357
 New state    354 was old state    352
 New state    355 was old state    356
 New state    356 was old state    358
 New state    357 was old state    360
 New state    358 was old state    359
 New state    359 was old state    381
 New state    360 was old state    362
 New state    362 was old state    363
 New state    363 was old state    367
 New state    365 was old state    370
 New state    366 was old state    369
 New state    367 was old state    365
 New state    369 was old state    378
 New state    370 was old state    372
 New state    371 was old state    376
 New state    372 was old state    371
 New state    373 was old state    374
 New state    374 was old state    375
 New state    375 was old state    380
 New state    376 was old state    377
 New state    377 was old state    373
 New state    378 was old state    382
 New state    379 was old state    383
 New state    380 was old state    384
 New state    381 was old state    386
 New state    382 was old state    389
 New state    383 was old state    411
 New state    384 was old state    388
 New state    385 was old state    387
 New state    386 was old state    385
 New state    387 was old state    391
 New state    388 was old state    404
 New state    389 was old state    390
 New state    390 was old state    392
 New state    391 was old state    394
 New state    392 was old state    396
 New state    394 was old state    395
 New state    395 was old state    398
 New state    396 was old state    399
 New state    397 was old state    400
 New state    398 was old state    397
 New state    399 was old state    409
 New state    400 was old state    401
 New state    401 was old state    402
 New state    402 was old state    407
 New state    403 was old state    405
 New state    404 was old state    406
 New state    405 was old state    408
 New state    406 was old state    414
 New state    407 was old state    412
 New state    408 was old state    416
 New state    409 was old state    413
 New state    411 was old state    417
 New state    412 was old state    423
 New state    413 was old state    422
 New state    414 was old state    421
 New state    415 was old state    420
 New state    416 was old state    424
 New state    417 was old state    418
 New state    418 was old state    403
 New state    419 was old state    427
 New state    420 was old state    419
 New state    421 was old state    415
 No map to state    422
 New state    423 was old state    429
 New state    424 was old state    425
 New state    425 was old state    426
 New state    426 was old state    430
 New state    427 was old state    441
 New state    429 was old state    431
 New state    430 was old state    434
 New state    431 was old state    435
 New state    432 was old state    446
 New state    433 was old state    436
 New state    434 was old state    437
 New state    435 was old state    433
 New state    436 was old state    458
 New state    437 was old state    432
 New state    438 was old state    439
 New state    439 was old state    440
 New state    440 was old state    442
 New state    441 was old state    438
 New state    442 was old state    443
 New state    443 was old state    444
 No map to state    444
 New state    445 was old state    447
 New state    446 was old state    448
 New state    447 was old state    452
 New state    448 was old state    445
 New state    449 was old state    450
 New state    450 was old state    449
 New state    451 was old state    459
 New state    452 was old state    451
 New state    453 was old state    455
 New state    454 was old state    456
 New state    455 was old state    457
 New state    456 was old state    453
 New state    457 was old state    454
 New state    458 was old state    486
 New state    459 was old state    461
 New state    461 was old state    462
 New state    462 was old state    463
 New state    463 was old state    465
 New state    464 was old state    469
 New state    465 was old state    464
 New state    466 was old state    467
 New state    467 was old state    466
 New state    469 was old state    474
 New state    471 was old state    472
 New state    472 was old state    471
 New state    474 was old state    485
 New state    475 was old state    476
 New state    476 was old state    475
 New state    480 was old state    482
 New state    481 was old state    480
 New state    482 was old state    481
 New state    483 was old state    484
 New state    484 was old state    483
 New state    485 was old state    489
 New state    486 was old state    487
 New state    487 was old state    488
 New state    488 was old state    493
 New state    489 was old state    490
 New state    490 was old state    499
 New state    491 was old state    492
 New state    492 was old state    491
 New state    493 was old state    494
 New state    494 was old state    496
 New state    496 was old state    498
 New state    497 was old state    500
 New state    498 was old state    497
 New state    499 was old state    502
 New state    500 was old state    501
 New state    501 was old state    503
 No map to state    502
 New state    503 was old state    506
 New state    504 was old state    509
 New state    505 was old state    504
 New state    506 was old state    505
 New state    507 was old state    508
 New state    508 was old state    513
 No map to state    509
 New state    511 was old state    515
 New state    513 was old state    514
 New state    514 was old state    517
 New state    515 was old state    516
 New state    516 was old state    511
 New state    517 was old state    520
 New state    520 was old state    522
 New state    522 was old state    523
 New state    523 was old state    525
 New state    524 was old state    529
 New state    525 was old state    526
 New state    526 was old state    524
 New state    529 was old state    532
 New state    531 was old state    534
 No map to state    532
 New state    533 was old state    531
 New state    534 was old state    533
 New state    537 was old state    538
 New state    538 was old state    539
 New state    539 was old state    537
 New state    540 was old state    541
 New state    541 was old state    542
 New state    542 was old state    540
 New state    546 was old state    549
 New state    548 was old state    546
 New state    549 was old state    548
 New state    551 was old state    552
 New state    552 was old state    554
 New state    553 was old state    559
 New state    554 was old state    553
 New state    555 was old state    551
 New state    556 was old state    558
 New state    557 was old state    562
 New state    558 was old state    564
 New state    559 was old state    561
 New state    560 was old state    555
 New state    561 was old state    556
 New state    562 was old state    557
 New state    563 was old state    560
 New state    564 was old state    566
 New state    565 was old state    567
 New state    566 was old state    565
 New state    567 was old state    570
 New state    568 was old state    569
 New state    569 was old state    568
 New state    570 was old state    572
 New state    571 was old state    563
 New state    572 was old state    571
 New state    575 was old state    577
 New state    576 was old state    575
 New state    577 was old state    578
 New state    578 was old state    576
 New state    580 was old state    581
 New state    581 was old state    582
 New state    582 was old state    585
 New state    583 was old state    586
 New state    584 was old state    587
 New state    585 was old state    583
 New state    586 was old state    588
 New state    587 was old state    589
 New state    588 was old state    584
 New state    589 was old state    593
 New state    592 was old state    594
 New state    593 was old state    592
 New state    594 was old state    601
 New state    595 was old state    597
 New state    596 was old state    599
 New state    597 was old state    595
 New state    598 was old state    596
 New state    599 was old state    600
 New state    600 was old state    598
 New state    601 was old state    602
 New state    602 was old state    604
 New state    603 was old state    606
 New state    604 was old state    605
 New state    605 was old state    607
 New state    606 was old state    603
 New state    607 was old state    610
 New state    609 was old state    612
 New state    610 was old state    611
 New state    611 was old state    614
 New state    612 was old state    624
 New state    614 was old state    618
 New state    615 was old state    619
 New state    616 was old state    617
 New state    617 was old state    616
 New state    618 was old state    609
 New state    619 was old state    620
 New state    620 was old state    621
 New state    621 was old state    622
 New state    622 was old state    615
 New state    624 was old state    625
 New state    625 was old state    627
 New state    626 was old state    628
 New state    627 was old state    626
 New state    628 was old state    641
 New state    630 was old state    631
 New state    631 was old state    632
 New state    632 was old state    630
 New state    634 was old state    636
 New state    636 was old state    634
 New state    637 was old state    640
 New state    638 was old state    643
 New state    639 was old state    642
 New state    640 was old state    637
 New state    641 was old state    639
 New state    642 was old state    638
 New state    643 was old state    654
 New state    644 was old state    645
 New state    645 was old state    646
 New state    646 was old state    644
 New state    648 was old state    649
 New state    649 was old state    648
 New state    650 was old state    652
 New state    651 was old state    657
 New state    652 was old state    655
 New state    653 was old state    656
 New state    654 was old state    653
 New state    655 was old state    651
 New state    656 was old state    658
 New state    657 was old state    659
 New state    658 was old state    660
 New state    659 was old state    650
 New state    660 was old state    662
 New state    661 was old state    664
 New state    662 was old state    661
 New state    663 was old state    665
 New state    664 was old state    663
 New state    665 was old state    666
 New state    666 was old state    668
 New state    668 was old state    669
 New state    669 was old state    672
 New state    671 was old state    673
 New state    672 was old state    676
 New state    673 was old state    674
 New state    674 was old state    675
 New state    675 was old state    677
 New state    676 was old state    671
 New state    677 was old state    679
 New state    678 was old state    683
 New state    679 was old state    678
 New state    681 was old state    685
 New state    682 was old state    684
 New state    683 was old state    682
 New state    684 was old state    687
 New state    685 was old state    689
 New state    687 was old state    688
 New state    688 was old state    690
 New state    689 was old state    691
 New state    690 was old state    681
 New state    691 was old state    694
 New state    694 was old state    696
 No map to state    695
 New state    696 was old state    695
 New state    698 was old state    699
 New state    699 was old state    698
 New state    700 was old state    701
 New state    701 was old state    703
 New state    702 was old state    700
 New state    703 was old state    702
 New state    710 was old state    712
 New state    711 was old state    710
 New state    712 was old state    711
 New state    714 was old state    716
 New state    715 was old state    717
 New state    716 was old state    715
 New state    717 was old state    714
 New state    719 was old state    720
 New state    720 was old state    719
 New state    724 was old state    725
 New state    725 was old state    724
 New state    726 was old state    727
 New state    727 was old state    726
 New state    729 was old state    730
 New state    730 was old state    729
 New state    733 was old state    734
 New state    734 was old state    733
 New state    735 was old state    736
 New state    736 was old state    735
 New state    738 was old state    739
 New state    739 was old state    738
 New state    741 was old state    742
 New state    742 was old state    741
 New state    743 was old state    744
 New state    744 was old state    743
 New state    745 was old state    747
 New state    747 was old state    745
 New state    748 was old state    749
 New state    749 was old state    753
 New state    750 was old state    748
 New state    753 was old state    754
 New state    754 was old state    755
 New state    755 was old state    750
 New state    756 was old state    757
 New state    757 was old state    758
 New state    758 was old state    756
 New state    767 was old state    768
 New state    768 was old state    767
 New state    772 was old state    773
 New state    773 was old state    772
 New state    775 was old state    777
 New state    776 was old state    775
 New state    777 was old state    779
 New state    779 was old state    776
 New state    791 was old state    794
 New state    793 was old state    791
 New state    794 was old state    793
 New state    798 was old state    799
 New state    799 was old state    798
 New state    801 was old state    803
 New state    802 was old state    801
 New state    803 was old state    802
 New state    806 was old state    807
 New state    807 was old state    808
 New state    808 was old state    806
 New state    809 was old state    810
 New state    810 was old state    809
 New state    813 was old state    815
 New state    814 was old state    813
 New state    815 was old state    816
 New state    816 was old state    814
 New state    818 was old state    819
 New state    819 was old state    822
 New state    820 was old state    818
 New state    821 was old state    824
 New state    822 was old state    820
 New state    823 was old state    821
 New state    824 was old state    823
 New state    826 was old state    828
 New state    828 was old state    826
 New state    832 was old state    833
 New state    833 was old state    832
 New state    834 was old state    839
 New state    835 was old state    834
 New state    837 was old state    838
 New state    838 was old state    837
 New state    839 was old state    835
 New state    840 was old state    841
 New state    841 was old state    843
 New state    842 was old state    844
 New state    843 was old state    840
 New state    844 was old state    842
 New state    846 was old state    849
 New state    847 was old state    846
 New state    848 was old state    847
 New state    849 was old state    848
 New state    850 was old state    851
 New state    851 was old state    850
 New state    852 was old state    853
 New state    853 was old state    852
 New state    855 was old state    857
 New state    856 was old state    855
 New state    857 was old state    858
 New state    858 was old state    856
 New state    861 was old state    863
 New state    862 was old state    861
 New state    863 was old state    862
 New state    865 was old state    866
 New state    866 was old state    865
 New state    868 was old state    869
 New state    869 was old state    870
 New state    870 was old state    868
 New state    885 was old state    886
 New state    886 was old state    885
 New state    887 was old state    888
 New state    888 was old state    887
 New state    890 was old state    891
 New state    891 was old state    890
 New state    892 was old state    893
 New state    893 was old state    892
 New state    895 was old state    896
 New state    896 was old state    897
 New state    897 was old state    895
 New state    913 was old state    914
 New state    914 was old state    913
 New state    915 was old state    921
 New state    916 was old state    918
 New state    917 was old state    915
 New state    918 was old state    916
 New state    919 was old state    920
 New state    920 was old state    917
 New state    921 was old state    919
 New state    927 was old state    928
 New state    928 was old state    927
 New state    930 was old state    931
 New state    931 was old state    930
 New state    932 was old state    934
 New state    934 was old state    937
 New state    935 was old state    932
 New state    937 was old state    935
 New state    942 was old state    945
 New state    943 was old state    942
 New state    945 was old state    943
 New state    947 was old state    948
 New state    948 was old state    947
 New state    953 was old state    954
 New state    954 was old state    953
 New state    955 was old state    956
 New state    956 was old state    957
 New state    957 was old state    955
 New state    964 was old state    966
 New state    965 was old state    964
 New state    966 was old state    965
 New state    967 was old state    968
 New state    968 was old state    967
 New state    973 was old state    976
 New state    974 was old state    973
 New state    975 was old state    974
 New state    976 was old state    975
 New state    978 was old state    979
 New state    979 was old state    978
 New state    982 was old state    983
 New state    983 was old state    982
 New state    984 was old state    985
 New state    985 was old state    984
 New state    989 was old state    990
 New state    990 was old state    989
 New state    991 was old state    992
 New state    992 was old state    993
 New state    993 was old state    991
 New state    996 was old state    997
 New state    997 was old state    996
 New state   1006 was old state   1008
 New state   1008 was old state   1006
 New state   1020 was old state   1022
 New state   1021 was old state   1020
 New state   1022 was old state   1021
 New state   1023 was old state   1024
 New state   1024 was old state   1023
 New state   1035 was old state   1036
 New state   1036 was old state   1037
 New state   1037 was old state   1035
 New state   1040 was old state   1041
 New state   1041 was old state   1042
 New state   1042 was old state   1040
 New state   1043 was old state   1044
 New state   1044 was old state   1043
 New state   1049 was old state   1050
 New state   1050 was old state   1049
 New state   1054 was old state   1057
 New state   1055 was old state   1056
 New state   1056 was old state   1055
 New state   1057 was old state   1054
 New state   1059 was old state   1061
 New state   1060 was old state   1059
 New state   1061 was old state   1060
 New state   1062 was old state   1063
 New state   1063 was old state   1062
 New state   1065 was old state   1068
 New state   1066 was old state   1071
 New state   1067 was old state   1066
 New state   1068 was old state   1065
 New state   1070 was old state   1067
 New state   1071 was old state   1070
 New state   1072 was old state   1073
 New state   1073 was old state   1076
 New state   1074 was old state   1072
 New state   1076 was old state   1074
 New state   1077 was old state   1078
 New state   1078 was old state   1079
 New state   1079 was old state   1077
 New state   1081 was old state   1082
 New state   1082 was old state   1081
 New state   1086 was old state   1087
 New state   1087 was old state   1086
 New state   1096 was old state   1097
 New state   1097 was old state   1096
 Excitation Energies [eV] at current iteration:
 Root      1 :     8.655624035191410
 Root      2 :     8.941266412606863
 Root      3 :     8.966918137396576
 Root      4 :     9.470250445951518
 Root      5 :     9.663041688492982
 Root      6 :     9.706115829373019
 Root      7 :     9.777399906380715
 Root      8 :     9.893695651785963
 Root      9 :     9.938708161421490
 Root     10 :    10.084256945019340
 Root     11 :    10.296274643741030
 Root     12 :    10.443967804458100
 Root     13 :    10.450062968621510
 Root     14 :    10.613577249115510
 Root     15 :    10.631255769437270
 Root     16 :    10.914430834881460
 Root     17 :    10.933042267982670
 Root     18 :    10.936759561213480
 Root     19 :    11.072716243568050
 Root     20 :    11.287617261833260
 Root     21 :    11.353256909113770
 Root     22 :    11.387035576666640
 Root     23 :    11.398710641166150
 Root     24 :    11.431088538002880
 Root     25 :    11.491255973494260
 Root     26 :    11.536898262806900
 Root     27 :    11.635774144568090
 Root     28 :    11.647506835752290
 Root     29 :    11.680803798448200
 Root     30 :    11.736316881416810
 Root     31 :    11.780671018166760
 Root     32 :    11.810000421494210
 Root     33 :    11.982842941732400
 Root     34 :    11.985256112803890
 Root     35 :    12.076781508307210
 Root     36 :    12.134615794879070
 Root     37 :    12.198378365629220
 Root     38 :    12.205621889742800
 Root     39 :    12.246216089544800
 Root     40 :    12.379238700281560
 Root     41 :    12.413127140171670
 Root     42 :    12.437545233670350
 Root     43 :    12.462323090598510
 Root     44 :    12.571368056018430
 Root     45 :    12.591834692175460
 Root     46 :    12.628620324704990
 Root     47 :    12.661908552630420
 Root     48 :    12.677833061513160
 Root     49 :    12.758237909142040
 Root     50 :    12.768964485524330
 Root     51 :    12.891730894832000
 Root     52 :    12.920749192420140
 Root     53 :    12.975249603862920
 Root     54 :    12.986727505237330
 Root     55 :    13.041705556529100
 Root     56 :    13.116823082775060
 Root     57 :    13.152057183219580
 Root     58 :    13.265826586789880
 Root     59 :    13.322714941361560
 Root     60 :    13.345923149917610
 Root     61 :    13.404263747503880
 Root     62 :    13.411505863123140
 Root     63 :    13.480663884387120
 Root     64 :    13.516300067900090
 Root     65 :    13.556008266567220
 Root     66 :    13.595718795209630
 Root     67 :    13.612511643301940
 Root     68 :    13.681556463555500
 Root     69 :    13.786485195104680
 Root     70 :    13.800405189287830
 Root     71 :    13.810486589857110
 Root     72 :    13.820806396526620
 Root     73 :    13.913259937884670
 Root     74 :    13.953407929194800
 Root     75 :    13.998686005518100
 Root     76 :    14.004004921333420
 Root     77 :    14.020912779989440
 Root     78 :    14.119571817684640
 Root     79 :    14.168169321117960
 Root     80 :    14.309890844682290
 Root     81 :    14.372694253323330
 Root     82 :    14.449330571883630
 Root     83 :    14.479896183432620
 Root     84 :    14.578425586986830
 Root     85 :    14.633568637198310
 Root     86 :    14.667560103214690
 Root     87 :    14.772771563153010
 Root     88 :    14.788870437429850
 Root     89 :    14.819143780314130
 Root     90 :    14.883909787067400
 Root     91 :    14.912159043135170
 Root     92 :    14.927108173168660
 Root     93 :    14.976152689328870
 Root     94 :    14.977234409022910
 Root     95 :    15.059121898044070
 Root     96 :    15.109046301012200
 Root     97 :    15.158207025671630
 Root     98 :    15.171914878160330
 Root     99 :    15.240332265398250
 Root    100 :    15.263934608867070
 Root    101 :    15.348522748652330
 Root    102 :    15.399208216667700
 Root    103 :    15.449043215240210
 Root    104 :    15.476212352608670
 Root    105 :    15.630293053663000
 Root    106 :    15.650910488894370
 Root    107 :    15.705534939106640
 Root    108 :    15.828443057544040
 Root    109 :    15.893233507582910
 Root    110 :    15.931794798664430
 Root    111 :    16.035406598173270
 Root    112 :    16.154618247220550
 Root    113 :    16.158045602542860
 Root    114 :    16.228068391119510
 Root    115 :    16.289765398416240
 Root    116 :    16.314916022573790
 Root    117 :    16.324584568820660
 Root    118 :    16.401393669548550
 Root    119 :    16.435505423017020
 Root    120 :    16.449714559211860
 Root    121 :    16.456991284496970
 Root    122 :    16.492415896468900
 Root    123 :    16.516900537290610
 Root    124 :    16.538835619727170
 Root    125 :    16.542380649262060
 Root    126 :    16.591747561099400
 Root    127 :    16.600709429523600
 Root    128 :    16.653376658753340
 Root    129 :    16.670441644622870
 Root    130 :    16.720836505887120
 Root    131 :    16.826982698999740
 Root    132 :    16.837929415817160
 Root    133 :    16.886030919556920
 Root    134 :    16.932770179469130
 Root    135 :    16.979083604434310
 Root    136 :    17.010009901580620
 Root    137 :    17.058885874154220
 Root    138 :    17.079247060419680
 Root    139 :    17.097564407673830
 Root    140 :    17.164393282228620
 Root    141 :    17.307827573207080
 Root    142 :    17.474269691757420
 Root    143 :    17.477158608394810
 Root    144 :    17.567891186100350
 Root    145 :    17.619492555870740
 Root    146 :    17.658360785373370
 Root    147 :    17.699444205929460
 Root    148 :    17.700136376774480
 Root    149 :    17.737543984094470
 Root    150 :    17.793417815625650
 Root    151 :    17.796757787241020
 Root    152 :    17.841670680196780
 Root    153 :    17.871276273740840
 Root    154 :    17.908722985416250
 Root    155 :    17.920314838465800
 Root    156 :    17.936333192265500
 Root    157 :    17.961802102875260
 Root    158 :    17.963385683778220
 Root    159 :    17.970005068126820
 Root    160 :    17.973480815265150
 Root    161 :    17.999878200098790
 Root    162 :    18.019608739561700
 Root    163 :    18.089992906150610
 Root    164 :    18.113301140395590
 Root    165 :    18.124039294118630
 Root    166 :    18.129672833714370
 Root    167 :    18.138868443031030
 Root    168 :    18.195280538770760
 Root    169 :    18.225591632162530
 Root    170 :    18.276771390006430
 Root    171 :    18.287488955252770
 Root    172 :    18.334387007422070
 Root    173 :    18.374743514424490
 Root    174 :    18.401962807253560
 Root    175 :    18.486261822105070
 Root    176 :    18.488281439903350
 Root    177 :    18.558679934920650
 Root    178 :    18.565818407898870
 Root    179 :    18.606394069742240
 Root    180 :    18.691815207297310
 Root    181 :    18.724703974770900
 Root    182 :    18.752399705077670
 Root    183 :    18.810205700522150
 Root    184 :    18.836097779582360
 Root    185 :    18.865927943126590
 Root    186 :    18.960649703324030
 Root    187 :    19.003329207605810
 Root    188 :    19.004954731016030
 Root    189 :    19.059662983850410
 Root    190 :    19.072808107558370
 Root    191 :    19.118801429487840
 Root    192 :    19.127023633482750
 Root    193 :    19.153694471444020
 Root    194 :    19.164124994358570
 Root    195 :    19.188531711937590
 Root    196 :    19.193460515660860
 Root    197 :    19.213096125917560
 Root    198 :    19.237088738589440
 Root    199 :    19.245638106944610
 Root    200 :    19.269963967554990
 Root    201 :    19.290401784881120
 Root    202 :    19.317281235154220
 Root    203 :    19.345195789163470
 Root    204 :    19.363098502960670
 Root    205 :    19.422364348061170
 Root    206 :    19.422890470222120
 Root    207 :    19.428344512973060
 Root    208 :    19.450592878408100
 Root    209 :    19.468092158739210
 Root    210 :    19.504554676024390
 Root    211 :    19.536935257258910
 Root    212 :    19.565028154345580
 Root    213 :    19.599992161124410
 Root    214 :    19.652834949047330
 Root    215 :    19.685719159598990
 Root    216 :    19.685807634868450
 Root    217 :    19.699673404095350
 Root    218 :    19.767336661382060
 Root    219 :    19.796411112829780
 Root    220 :    19.802366818448230
 Root    221 :    19.900424768597730
 Root    222 :    19.908298917780250
 Root    223 :    19.952731131045900
 Root    224 :    19.985752768932770
 Root    225 :    20.081182610824080
 Root    226 :    20.091178225130920
 Root    227 :    20.102190697146270
 Root    228 :    20.196462409180140
 Root    229 :    20.227484942702740
 Root    230 :    20.233142684039710
 Root    231 :    20.244968862881230
 Root    232 :    20.344016022826580
 Root    233 :    20.385689325322250
 Root    234 :    20.421877807172310
 Root    235 :    20.431345856972120
 Root    236 :    20.491284336740080
 Root    237 :    20.519342916116240
 Root    238 :    20.532866805009260
 Root    239 :    20.538861418927530
 Root    240 :    20.578568243901300
 Root    241 :    20.632876469155400
 Root    242 :    20.672790947935860
 Root    243 :    20.674452825358500
 Root    244 :    20.696973383959120
 Root    245 :    20.697633278220970
 Root    246 :    20.773775767204630
 Root    247 :    20.774932737319230
 Root    248 :    20.778128117401800
 Root    249 :    20.810153396598520
 Root    250 :    20.813453576767470
 Root    251 :    20.835713449408290
 Root    252 :    20.868047783358700
 Root    253 :    20.967983666028740
 Root    254 :    20.977236565381950
 Root    255 :    21.044702249217230
 Root    256 :    21.052332353456010
 Root    257 :    21.087032903487100
 Root    258 :    21.099247909947100
 Root    259 :    21.126050198683040
 Root    260 :    21.170384252228970
 Root    261 :    21.188449756686960
 Root    262 :    21.206231704978830
 Root    263 :    21.213465289050510
 Root    264 :    21.319867235776310
 Root    265 :    21.322000467571510
 Root    266 :    21.357001391481830
 Root    267 :    21.391991955443410
 Root    268 :    21.419496414414220
 Root    269 :    21.448467461976610
 Root    270 :    21.484997708962520
 Root    271 :    21.524605126340370
 Root    272 :    21.528718795556460
 Root    273 :    21.560626190495590
 Root    274 :    21.562720280157020
 Root    275 :    21.609068493367030
 Root    276 :    21.615065416161530
 Root    277 :    21.664689151118420
 Root    278 :    21.674402897038090
 Root    279 :    21.679417219723160
 Root    280 :    21.698625557740500
 Root    281 :    21.723241862055150
 Root    282 :    21.733064745341850
 Root    283 :    21.795498296752240
 Root    284 :    21.815055154309370
 Root    285 :    21.831703340418500
 Root    286 :    21.833494064632970
 Root    287 :    21.847981868794530
 Root    288 :    21.851167596437150
 Root    289 :    21.858115864946140
 Root    290 :    21.884213397688240
 Root    291 :    21.900545854365940
 Root    292 :    21.910666111642920
 Root    293 :    22.025215546721080
 Root    294 :    22.080209637360800
 Root    295 :    22.089678059562560
 Root    296 :    22.136348139377840
 Root    297 :    22.178827296718960
 Root    298 :    22.195640518094880
 Root    299 :    22.201043378446940
 Root    300 :    22.226231119910680
 Root    301 :    22.298270734714310
 Root    302 :    22.308388243456240
 Root    303 :    22.309471958846480
 Root    304 :    22.377153274543120
 Root    305 :    22.408866251667620
 Root    306 :    22.429586723973580
 Root    307 :    22.606889179408920
 Root    308 :    22.640370820270850
 Root    309 :    22.663420672377430
 Root    310 :    22.671894530307490
 Root    311 :    22.697404428465560
 Root    312 :    22.699235908181790
 Root    313 :    22.714479352268100
 Root    314 :    22.760964710592410
 Root    315 :    22.798837813112090
 Root    316 :    22.837760597078600
 Root    317 :    22.838584395392420
 Root    318 :    22.870395974605840
 Root    319 :    22.921687527128880
 Root    320 :    22.941833594630090
 Root    321 :    22.952227730223930
 Root    322 :    23.033301355173680
 Root    323 :    23.045180506020030
 Root    324 :    23.058118125646900
 Root    325 :    23.079735150671310
 Root    326 :    23.096236130890520
 Root    327 :    23.118926782526970
 Root    328 :    23.187412199470160
 Root    329 :    23.205162137921890
 Root    330 :    23.239487391064890
 Root    331 :    23.273912848263060
 Root    332 :    23.277368048373090
 Root    333 :    23.298921499118130
 Root    334 :    23.326550365645240
 Root    335 :    23.398005812350220
 Root    336 :    23.441490934279780
 Root    337 :    23.464416931523730
 Root    338 :    23.467082577779410
 Root    339 :    23.546338549580640
 Root    340 :    23.550588378518260
 Root    341 :    23.593277842731780
 Root    342 :    23.600517517025040
 Root    343 :    23.611883191496690
 Root    344 :    23.629453759644500
 Root    345 :    23.687392304403620
 Root    346 :    23.732515753460750
 Root    347 :    23.751027461496810
 Root    348 :    23.758490087567680
 Root    349 :    23.772442812851910
 Root    350 :    23.791782955543270
 Root    351 :    23.875228155638950
 Root    352 :    23.917407423106690
 Root    353 :    23.926308431618370
 Root    354 :    24.052226823122400
 Root    355 :    24.067923945396780
 Root    356 :    24.083267538321660
 Root    357 :    24.097072649726360
 Root    358 :    24.122210974012680
 Root    359 :    24.157184773950540
 Root    360 :    24.220476687837230
 Root    361 :    24.241411725120610
 Root    362 :    24.276007973599770
 Root    363 :    24.319755819760540
 Root    364 :    24.320353899224540
 Root    365 :    24.401419309372310
 Root    366 :    24.411069051215800
 Root    367 :    24.445195257376970
 Root    368 :    24.455153597752830
 Root    369 :    24.475332854929640
 Root    370 :    24.488851715864380
 Root    371 :    24.527482728977030
 Root    372 :    24.528463810784740
 Root    373 :    24.536185640844490
 Root    374 :    24.552076242215830
 Root    375 :    24.557868882594650
 Root    376 :    24.566812291124880
 Root    377 :    24.577799587505410
 Root    378 :    24.670380994841550
 Root    379 :    24.747354770971010
 Root    380 :    24.771400078163270
 Root    381 :    24.786214816987200
 Root    382 :    24.802232791840740
 Root    383 :    24.838122830298970
 Root    384 :    24.890497678626010
 Root    385 :    24.917711111126090
 Root    386 :    24.926505403769650
 Root    387 :    24.992309177598420
 Root    388 :    25.113356072863830
 Root    389 :    25.131948213522370
 Root    390 :    25.171728378877930
 Root    391 :    25.204353717982830
 Root    392 :    25.208890037079450
 Root    393 :    25.215363494725820
 Root    394 :    25.286585956625770
 Root    395 :    25.334210966971830
 Root    396 :    25.428048391939970
 Root    397 :    25.436043469737290
 Root    398 :    25.448188924626170
 Root    399 :    25.480197290560730
 Root    400 :    25.579452325919720
 Root    401 :    25.607966713615590
 Root    402 :    25.639410887962090
 Root    403 :    25.657692028068770
 Root    404 :    25.680344681461430
 Root    405 :    25.762175173546050
 Root    406 :    25.765182312790460
 Root    407 :    25.770907754635080
 Root    408 :    25.824261972342940
 Root    409 :    25.834362731238310
 Root    410 :    25.866402278539090
 Root    411 :    25.996049066404830
 Root    412 :    26.002646023255560
 Root    413 :    26.016958054942730
 Root    414 :    26.119685971941320
 Root    415 :    26.144826584604690
 Root    416 :    26.176387926181830
 Root    417 :    26.194605344189590
 Root    418 :    26.216360161288200
 Root    419 :    26.242145141469290
 Root    420 :    26.244050347375370
 Root    421 :    26.273616239021700
 Root    422 :    26.300685325977550
 Root    423 :    26.385875714940320
 Root    424 :    26.421781355372660
 Root    425 :    26.572325032425600
 Root    426 :    26.609104084005110
 Root    427 :    26.757267273841600
 Root    428 :    26.761397149166230
 Root    429 :    26.794313254076860
 Root    430 :    26.798856050879760
 Root    431 :    27.053957798826720
 Root    432 :    27.076559205990650
 Root    433 :    27.085820248438080
 Root    434 :    27.098189189858120
 Root    435 :    27.179911656508840
 Root    436 :    27.210953295950490
 Root    437 :    27.276861383038990
 Root    438 :    27.277756629499050
 Root    439 :    27.324682324821960
 Root    440 :    27.419604228991310
 Root    441 :    27.421303252671040
 Root    442 :    27.620149783205870
 Root    443 :    27.646876562573090
 Root    444 :    27.782138094432160
 Root    445 :    27.802965297005040
 Root    446 :    27.861584175580380
 Root    447 :    27.874862088402570
 Root    448 :    27.923976008769760
 Root    449 :    28.151806361073180
 Root    450 :    28.204887867040990
 Root    451 :    28.298674599201410
 Root    452 :    28.308743099840780
 Root    453 :    28.319610907355430
 Root    454 :    28.363716591640260
 Root    455 :    28.432183388848120
 Root    456 :    28.488643472041650
 Root    457 :    28.539890358893400
 Root    458 :    28.598516507437050
 Root    459 :    28.611018609072800
 Root    460 :    28.636894618281260
 Root    461 :    28.749257779083410
 Root    462 :    28.771529289954450
 Root    463 :    28.859107372503460
 Root    464 :    28.905702779681380
 Root    465 :    28.973252651748350
 Root    466 :    29.435619462854490
 Root    467 :    29.455646356239030
 Root    468 :    29.483821234682940
 Root    469 :    29.642982735764870
 Root    470 :    29.761918341763440
 Root    471 :    29.774790535534580
 Root    472 :    29.822910162407510
 Root    473 :    29.888333080558000
 Root    474 :    29.999072438719000
 Root    475 :    30.081660852121620
 Root    476 :    30.180673334789670
 Root    477 :    30.192937579432170
 Root    478 :    30.288666048579200
 Root    479 :    30.425165201594390
 Root    480 :    30.575988043550550
 Root    481 :    30.576299504708190
 Root    482 :    30.590457894918710
 Root    483 :    30.659339616087870
 Root    484 :    30.669238276467870
 Root    485 :    30.832523169311100
 Root    486 :    30.897696248781480
 Root    487 :    30.908418838040520
 Root    488 :    30.944464637376790
 Root    489 :    30.951059074593020
 Root    490 :    31.008646851173750
 Root    491 :    31.133016869475050
 Root    492 :    31.181375484488610
 Root    493 :    31.250930416630770
 Root    494 :    31.275541981244370
 Root    495 :    31.295932187085060
 Root    496 :    31.368699582439100
 Root    497 :    31.425657776097710
 Root    498 :    31.444115910749010
 Root    499 :    31.835738232525490
 Root    500 :    31.861092524979340
 Root    501 :    31.897573850530260
 Root    502 :    32.069148307179870
 Root    503 :    32.251887285376100
 Root    504 :    32.370059527119570
 Root    505 :    32.400321090681810
 Root    506 :    32.412030096359830
 Root    507 :    32.440676355677470
 Root    508 :    32.527783662133820
 Root    509 :    32.530395290089860
 Root    510 :    32.615321655726290
 Root    511 :    32.641544026440930
 Root    512 :    32.759862420957020
 Root    513 :    32.897574132279350
 Root    514 :    32.917506247091200
 Root    515 :    32.966024026707660
 Root    516 :    33.013776436432220
 Root    517 :    33.059645021824540
 Root    518 :    33.154759127117560
 Root    519 :    33.186037481429110
 Root    520 :    33.241574859699310
 Root    521 :    33.322137151661570
 Root    522 :    33.385504106638070
 Root    523 :    33.432942873977480
 Root    524 :    33.556632500554770
 Root    525 :    33.574946137092880
 Root    526 :    33.641470292897880
 Root    527 :    33.642567216294710
 Root    528 :    33.760330939211580
 Root    529 :    33.785879597885670
 Root    530 :    33.825294898692670
 Root    531 :    33.951756082231300
 Root    532 :    33.975231408681460
 Root    533 :    33.990844490435800
 Root    534 :    34.045668790451870
 Root    535 :    34.071337612935210
 Root    536 :    34.239420322818420
 Root    537 :    34.299728284106020
 Root    538 :    34.394387991651020
 Root    539 :    34.455680838857750
 Root    540 :    34.645247809363300
 Root    541 :    34.717583507868970
 Root    542 :    34.782062180852660
 Root    543 :    34.887993481042980
 Root    544 :    34.992333680530870
 Root    545 :    35.120349295185310
 Root    546 :    35.167128658082430
 Root    547 :    35.257607620533850
 Root    548 :    35.289808454405450
 Root    549 :    35.377218456331500
 Root    550 :    35.414537984975610
 Root    551 :    35.508782027386620
 Root    552 :    35.560048789850410
 Root    553 :    35.611952160698170
 Root    554 :    35.645643960773520
 Root    555 :    35.676567443006940
 Root    556 :    35.694036163364860
 Root    557 :    35.711673583466680
 Root    558 :    35.719324187062230
 Root    559 :    35.769266321664530
 Root    560 :    35.835109787958780
 Root    561 :    35.842126586405150
 Root    562 :    35.867882025626930
 Root    563 :    35.891850517365330
 Root    564 :    35.938602139565060
 Root    565 :    35.948140468067560
 Root    566 :    36.086304848272060
 Root    567 :    36.330502218307320
[...]
     16   0.000000D+00  0.000000D+00  0.000000D+00  0.000000D+00  0.000000D+00
              1041          1042          1043          1044          1045 
      1  -0.115743D+03 -0.115735D+03 -0.115729D+03 -0.115723D+03 -0.115719D+03
      2  -0.474131D-02  0.000000D+00 -0.162976D-01 -0.984314D-01  0.000000D+00
      3   0.000000D+00  0.000000D+00  0.000000D+00  0.000000D+00 -0.167586D-01
      4   0.000000D+00  0.220254D-01  0.000000D+00  0.000000D+00  0.000000D+00
      5   0.137443D-01  0.000000D+00  0.580064D-01  0.262652D+00  0.000000D+00
      6   0.000000D+00  0.000000D+00  0.000000D+00  0.000000D+00  0.600950D-01
      7   0.000000D+00 -0.673857D-01  0.000000D+00  0.000000D+00  0.000000D+00
      8   0.000000D+00  0.000000D+00  0.000000D+00  0.000000D+00 -0.844889D+00
      9  -0.909927D-01  0.000000D+00  0.166052D+00  0.180784D+00  0.000000D+00
     10   0.000000D+00  0.000000D+00  0.000000D+00  0.000000D+00  0.000000D+00
     11   0.000000D+00 -0.378848D-01  0.000000D+00  0.000000D+00  0.000000D+00
     12   0.000000D+00  0.271294D+00  0.000000D+00  0.000000D+00  0.000000D+00
     13   0.000000D+00  0.194584D+00  0.000000D+00  0.000000D+00  0.000000D+00
     14   0.000000D+00  0.000000D+00  0.000000D+00  0.000000D+00  0.000000D+00
     15   0.271446D-01  0.000000D+00  0.504386D-01  0.100233D+00  0.000000D+00
     16   0.000000D+00  0.000000D+00  0.000000D+00  0.000000D+00 -0.746912D+00
              1046          1047          1048          1049          1050 
      1  -0.115714D+03 -0.115710D+03 -0.115704D+03 -0.115699D+03 -0.115693D+03
      2   0.000000D+00  0.000000D+00  0.000000D+00  0.000000D+00  0.000000D+00
      3   0.000000D+00  0.368862D-01  0.470172D-01  0.000000D+00  0.000000D+00
      4  -0.177890D-01  0.000000D+00  0.000000D+00  0.000000D+00  0.794355D-02
      5   0.000000D+00  0.000000D+00  0.000000D+00  0.000000D+00  0.000000D+00
      6   0.000000D+00 -0.121172D+00 -0.148157D+00  0.000000D+00  0.000000D+00
      7   0.393487D-01  0.000000D+00  0.000000D+00  0.000000D+00 -0.214800D-01
      8   0.000000D+00  0.782887D+00  0.373981D+00  0.000000D+00  0.000000D+00
      9   0.000000D+00  0.000000D+00  0.000000D+00  0.000000D+00  0.000000D+00
     10   0.000000D+00  0.000000D+00  0.000000D+00  0.875707D+00  0.000000D+00
     11   0.112637D-01  0.000000D+00  0.000000D+00  0.000000D+00  0.243248D-01
     12   0.356494D+00  0.000000D+00  0.000000D+00  0.000000D+00 -0.672451D-01
     13   0.637179D+00  0.000000D+00  0.000000D+00  0.000000D+00 -0.276377D-01
     14   0.000000D+00  0.000000D+00  0.000000D+00 -0.898806D+00  0.000000D+00
     15   0.000000D+00  0.000000D+00  0.000000D+00  0.000000D+00  0.000000D+00
     16   0.000000D+00  0.147746D+00  0.353946D+00  0.000000D+00  0.000000D+00
              1051          1052          1053          1054          1055 
      1  -0.115684D+03 -0.115665D+03 -0.115664D+03 -0.115664D+03 -0.115660D+03
      2   0.000000D+00  0.000000D+00  0.000000D+00  0.000000D+00  0.000000D+00
      3   0.000000D+00 -0.705180D-02  0.000000D+00  0.000000D+00 -0.118673D+00
      4   0.000000D+00  0.000000D+00  0.000000D+00 -0.801537D-01  0.000000D+00
      5   0.000000D+00  0.000000D+00  0.000000D+00  0.000000D+00  0.000000D+00
      6   0.000000D+00  0.105506D-01  0.000000D+00  0.000000D+00  0.372735D+00
      7   0.000000D+00  0.000000D+00  0.000000D+00  0.237144D+00  0.000000D+00
      8   0.000000D+00 -0.329217D-01  0.000000D+00  0.000000D+00 -0.167428D+00
      9   0.000000D+00  0.000000D+00  0.000000D+00  0.000000D+00  0.000000D+00
     10  -0.273704D+00  0.000000D+00 -0.184436D+00  0.000000D+00  0.000000D+00
     11   0.000000D+00  0.000000D+00  0.000000D+00  0.203312D+00  0.000000D+00
     12   0.000000D+00  0.000000D+00  0.000000D+00  0.170734D+01  0.000000D+00
     13   0.000000D+00  0.000000D+00  0.000000D+00 -0.303854D+00  0.000000D+00
     14   0.499342D+00  0.000000D+00 -0.641798D-01  0.000000D+00  0.000000D+00
     15   0.000000D+00  0.000000D+00  0.000000D+00  0.000000D+00  0.000000D+00
     16   0.000000D+00  0.851110D-01  0.000000D+00  0.000000D+00 -0.192127D+00
              1056          1057          1058          1059          1060 
      1  -0.115657D+03 -0.115651D+03 -0.115643D+03 -0.115641D+03 -0.115640D+03
      2   0.899992D-01  0.000000D+00  0.000000D+00  0.000000D+00  0.000000D+00
      3   0.000000D+00  0.000000D+00  0.101308D+00  0.000000D+00  0.567535D-01
      4   0.000000D+00  0.000000D+00  0.000000D+00  0.167165D+00  0.000000D+00
      5  -0.250505D+00  0.000000D+00  0.000000D+00  0.000000D+00  0.000000D+00
      6   0.000000D+00  0.000000D+00 -0.297458D+00  0.000000D+00 -0.182004D+00
      7   0.000000D+00  0.000000D+00  0.000000D+00 -0.487523D+00  0.000000D+00
      8   0.000000D+00  0.000000D+00  0.270456D+00  0.000000D+00 -0.343039D-01
      9  -0.109438D+00  0.000000D+00  0.000000D+00  0.000000D+00  0.000000D+00
     10   0.000000D+00  0.223259D+00  0.000000D+00  0.000000D+00  0.000000D+00
     11   0.000000D+00  0.000000D+00  0.000000D+00  0.205794D-01  0.000000D+00
     12   0.000000D+00  0.000000D+00  0.000000D+00  0.263186D+00  0.000000D+00
     13   0.000000D+00  0.000000D+00  0.000000D+00 -0.379947D-01  0.000000D+00
     14   0.000000D+00 -0.249195D+00  0.000000D+00  0.000000D+00  0.000000D+00
     15  -0.878591D-01  0.000000D+00  0.000000D+00  0.000000D+00  0.000000D+00
     16   0.000000D+00  0.000000D+00  0.398171D+00  0.000000D+00 -0.228660D+00
              1061          1062          1063          1064          1065 
      1  -0.115639D+03 -0.115622D+03 -0.115615D+03 -0.115604D+03 -0.115602D+03
      2   0.000000D+00 -0.122862D+00  0.000000D+00  0.000000D+00  0.000000D+00
      3   0.000000D+00  0.000000D+00  0.000000D+00  0.263537D-01  0.000000D+00
      4   0.000000D+00  0.000000D+00 -0.108818D-01  0.000000D+00  0.225776D-01
      5   0.000000D+00  0.371395D+00  0.000000D+00  0.000000D+00  0.000000D+00
      6   0.000000D+00  0.000000D+00  0.000000D+00 -0.650629D-01  0.000000D+00
      7   0.000000D+00  0.000000D+00  0.247347D-01  0.000000D+00 -0.662838D-01
      8   0.000000D+00  0.000000D+00  0.000000D+00  0.321976D+00  0.000000D+00
      9   0.000000D+00 -0.819795D-01  0.000000D+00  0.000000D+00  0.000000D+00
     10  -0.116427D+00  0.000000D+00  0.000000D+00  0.000000D+00  0.000000D+00
     11   0.000000D+00  0.000000D+00  0.192260D-01  0.000000D+00 -0.141687D+00
     12   0.000000D+00  0.000000D+00 -0.700947D+00  0.000000D+00  0.396538D+00
     13   0.000000D+00  0.000000D+00 -0.102056D-01  0.000000D+00  0.539973D+00
     14  -0.349806D-01  0.000000D+00  0.000000D+00  0.000000D+00  0.000000D+00
     15   0.000000D+00  0.154006D-01  0.000000D+00  0.000000D+00  0.000000D+00
     16   0.000000D+00  0.000000D+00  0.000000D+00  0.312461D+00  0.000000D+00
              1066          1067          1068          1069          1070 
      1  -0.115599D+03 -0.115598D+03 -0.115596D+03 -0.115591D+03 -0.115585D+03
      2   0.000000D+00  0.567193D-01  0.000000D+00 -0.140985D-01  0.229998D-01
      3  -0.122819D+00  0.000000D+00  0.000000D+00  0.000000D+00  0.000000D+00
      4   0.000000D+00  0.000000D+00  0.000000D+00  0.000000D+00  0.000000D+00
      5   0.000000D+00 -0.150143D+00  0.000000D+00  0.479686D-01 -0.929261D-01
      6   0.377596D+00  0.000000D+00  0.000000D+00  0.000000D+00  0.000000D+00
      7   0.000000D+00  0.000000D+00  0.000000D+00  0.000000D+00  0.000000D+00
      8   0.644394D+00  0.000000D+00  0.000000D+00  0.000000D+00  0.000000D+00
      9   0.000000D+00 -0.351880D-01  0.000000D+00  0.176507D+00  0.619680D-01
     10   0.000000D+00  0.000000D+00 -0.674386D+00  0.000000D+00  0.000000D+00
     11   0.000000D+00  0.000000D+00  0.000000D+00  0.000000D+00  0.000000D+00
     12   0.000000D+00  0.000000D+00  0.000000D+00  0.000000D+00  0.000000D+00
     13   0.000000D+00  0.000000D+00  0.000000D+00  0.000000D+00  0.000000D+00
     14   0.000000D+00  0.000000D+00  0.623312D+00  0.000000D+00  0.000000D+00
     15   0.000000D+00 -0.652919D-01  0.000000D+00  0.209220D+00  0.265719D-01
     16   0.413628D+00  0.000000D+00  0.000000D+00  0.000000D+00  0.000000D+00
              1071          1072          1073          1074          1075 
      1  -0.115577D+03 -0.115569D+03 -0.115563D+03 -0.115559D+03 -0.115556D+03
      2   0.000000D+00  0.000000D+00 -0.948538D-01  0.000000D+00  0.000000D+00
      3   0.000000D+00  0.000000D+00  0.000000D+00 -0.673490D-02  0.000000D+00
      4   0.448860D-01 -0.854608D-01  0.000000D+00  0.000000D+00  0.358100D-01
      5   0.000000D+00  0.000000D+00  0.310666D+00  0.000000D+00  0.000000D+00
      6   0.000000D+00  0.000000D+00  0.000000D+00  0.328869D-01  0.000000D+00
      7  -0.124448D+00  0.288344D+00  0.000000D+00  0.000000D+00 -0.113669D+00
      8   0.000000D+00  0.000000D+00  0.000000D+00 -0.124327D+00  0.000000D+00
      9   0.000000D+00  0.000000D+00  0.533410D-01  0.000000D+00  0.000000D+00
     10   0.000000D+00  0.000000D+00  0.000000D+00  0.000000D+00  0.000000D+00
     11  -0.451210D-01 -0.262718D-01  0.000000D+00  0.000000D+00  0.112153D+00
     12  -0.578922D+00 -0.176536D+00  0.000000D+00  0.000000D+00  0.285640D+00
     13   0.260457D-01  0.265409D+00  0.000000D+00  0.000000D+00  0.324989D+00
     14   0.000000D+00  0.000000D+00  0.000000D+00  0.000000D+00  0.000000D+00
     15   0.000000D+00  0.000000D+00  0.117022D-01  0.000000D+00  0.000000D+00
     16   0.000000D+00  0.000000D+00  0.000000D+00 -0.632446D+00  0.000000D+00
              1076          1077          1078          1079          1080 
      1  -0.115555D+03 -0.115553D+03 -0.115551D+03 -0.115544D+03 -0.115537D+03
      2   0.000000D+00  0.000000D+00  0.000000D+00  0.000000D+00 -0.181988D-02
      3   0.230281D-01  0.000000D+00  0.000000D+00  0.000000D+00  0.000000D+00
      4   0.000000D+00  0.000000D+00  0.000000D+00 -0.101319D-01  0.000000D+00
      5   0.000000D+00  0.000000D+00  0.000000D+00  0.000000D+00 -0.550976D-03
      6  -0.537533D-01  0.000000D+00  0.000000D+00  0.000000D+00  0.000000D+00
      7   0.000000D+00  0.000000D+00  0.000000D+00  0.200623D-01  0.000000D+00
      8  -0.164807D+00  0.000000D+00  0.000000D+00  0.000000D+00  0.000000D+00
      9   0.000000D+00  0.000000D+00  0.000000D+00  0.000000D+00  0.193219D+00
     10   0.000000D+00  0.100483D+00 -0.565455D+00  0.000000D+00  0.000000D+00
     11   0.000000D+00  0.000000D+00  0.000000D+00  0.164689D+00  0.000000D+00
     12   0.000000D+00  0.000000D+00  0.000000D+00 -0.448605D+00  0.000000D+00
     13   0.000000D+00  0.000000D+00  0.000000D+00 -0.148479D+00  0.000000D+00
     14   0.000000D+00 -0.687648D-01  0.504090D+00  0.000000D+00  0.000000D+00
     15   0.000000D+00  0.000000D+00  0.000000D+00  0.000000D+00  0.232142D+00
     16   0.247884D+00  0.000000D+00  0.000000D+00  0.000000D+00  0.000000D+00
              1081          1082          1083          1084          1085 
      1  -0.115523D+03 -0.115521D+03 -0.115512D+03 -0.115502D+03 -0.115498D+03
      2   0.000000D+00  0.000000D+00 -0.868344D-01  0.000000D+00  0.000000D+00
      3   0.980714D-02  0.000000D+00  0.000000D+00 -0.546010D-02  0.000000D+00
      4   0.000000D+00  0.000000D+00  0.000000D+00  0.000000D+00  0.000000D+00
      5   0.000000D+00  0.000000D+00  0.244599D+00  0.000000D+00  0.000000D+00
      6  -0.372311D-01  0.000000D+00  0.000000D+00  0.117228D-01  0.000000D+00
      7   0.000000D+00  0.000000D+00  0.000000D+00  0.000000D+00  0.000000D+00
      8   0.864048D-01  0.000000D+00  0.000000D+00 -0.446021D+00  0.000000D+00
      9   0.000000D+00  0.000000D+00 -0.238240D-01  0.000000D+00  0.000000D+00
     10   0.000000D+00  0.600077D-03  0.000000D+00  0.000000D+00  0.288780D+00
     11   0.000000D+00  0.000000D+00  0.000000D+00  0.000000D+00  0.000000D+00
     12   0.000000D+00  0.000000D+00  0.000000D+00  0.000000D+00  0.000000D+00
     13   0.000000D+00  0.000000D+00  0.000000D+00  0.000000D+00  0.000000D+00
     14   0.000000D+00 -0.236002D-01  0.000000D+00  0.000000D+00 -0.159654D+00
     15   0.000000D+00  0.000000D+00  0.360944D-01  0.000000D+00  0.000000D+00
     16   0.329366D+00  0.000000D+00  0.000000D+00 -0.542642D+00  0.000000D+00
              1086          1087          1088          1089          1090 
      1  -0.115493D+03 -0.115484D+03 -0.115473D+03 -0.115472D+03 -0.115467D+03
      2   0.000000D+00  0.000000D+00  0.000000D+00  0.000000D+00  0.000000D+00
      3   0.000000D+00  0.000000D+00 -0.191896D-01  0.000000D+00  0.000000D+00
      4   0.124643D-02  0.000000D+00  0.000000D+00  0.118521D-01 -0.608609D-01
      5   0.000000D+00  0.000000D+00  0.000000D+00  0.000000D+00  0.000000D+00
      6   0.000000D+00  0.000000D+00  0.693800D-01  0.000000D+00  0.000000D+00
      7   0.405132D-02  0.000000D+00  0.000000D+00 -0.232198D-01  0.147258D+00
      8   0.000000D+00  0.000000D+00 -0.322522D+00  0.000000D+00  0.000000D+00
      9   0.000000D+00  0.000000D+00  0.000000D+00  0.000000D+00  0.000000D+00
     10   0.000000D+00  0.416945D-01  0.000000D+00  0.000000D+00  0.000000D+00
     11   0.576815D-01  0.000000D+00  0.000000D+00  0.145188D+00  0.146816D+00
     12  -0.862466D+00  0.000000D+00  0.000000D+00 -0.125785D+01 -0.534600D+00
     13   0.439525D-02  0.000000D+00  0.000000D+00 -0.320911D+00 -0.264312D+00
     14   0.000000D+00 -0.928524D-01  0.000000D+00  0.000000D+00  0.000000D+00
     15   0.000000D+00  0.000000D+00  0.000000D+00  0.000000D+00  0.000000D+00
     16   0.000000D+00  0.000000D+00 -0.355092D+00  0.000000D+00  0.000000D+00
              1091          1092          1093          1094          1095 
      1  -0.115465D+03 -0.115448D+03 -0.115436D+03 -0.115424D+03 -0.115412D+03
      2  -0.244582D-01 -0.249512D-01  0.000000D+00  0.000000D+00  0.000000D+00
      3   0.000000D+00  0.000000D+00  0.000000D+00  0.000000D+00  0.450928D-01
      4   0.000000D+00  0.000000D+00 -0.231806D-01  0.000000D+00  0.000000D+00
      5   0.722916D-01  0.640018D-01  0.000000D+00  0.000000D+00  0.000000D+00
      6   0.000000D+00  0.000000D+00  0.000000D+00  0.000000D+00 -0.112966D+00
      7   0.000000D+00  0.000000D+00  0.674849D-01  0.000000D+00  0.000000D+00
      8   0.000000D+00  0.000000D+00  0.000000D+00  0.000000D+00 -0.445587D+00
      9  -0.116287D+00  0.202976D+00  0.000000D+00  0.000000D+00  0.000000D+00
     10   0.000000D+00  0.000000D+00  0.000000D+00  0.739994D+00  0.000000D+00
     11   0.000000D+00  0.000000D+00  0.724605D-01  0.000000D+00  0.000000D+00
     12   0.000000D+00  0.000000D+00  0.700747D-01  0.000000D+00  0.000000D+00
     13   0.000000D+00  0.000000D+00  0.440609D+00  0.000000D+00  0.000000D+00
     14   0.000000D+00  0.000000D+00  0.000000D+00 -0.774817D+00  0.000000D+00
     15  -0.198669D+00  0.237096D+00  0.000000D+00  0.000000D+00  0.000000D+00
     16   0.000000D+00  0.000000D+00  0.000000D+00  0.000000D+00 -0.441461D-01
              1096          1097          1098          1099          1100 
      1  -0.115376D+03 -0.115367D+03 -0.115354D+03 -0.115353D+03 -0.115335D+03
      2   0.000000D+00  0.000000D+00  0.000000D+00  0.000000D+00  0.415591D-01
      3   0.659899D-01  0.125456D-01  0.000000D+00  0.000000D+00  0.000000D+00
      4   0.000000D+00  0.000000D+00  0.000000D+00  0.492370D-01  0.000000D+00
      5   0.000000D+00  0.000000D+00  0.000000D+00  0.000000D+00 -0.121715D+00
      6  -0.140056D+00 -0.258494D-01  0.000000D+00  0.000000D+00  0.000000D+00
      7   0.000000D+00  0.000000D+00  0.000000D+00 -0.134333D+00  0.000000D+00
      8   0.127074D+00  0.265319D+00  0.000000D+00  0.000000D+00  0.000000D+00
      9   0.000000D+00  0.000000D+00  0.000000D+00  0.000000D+00  0.299435D+00
     10   0.000000D+00  0.000000D+00 -0.799862D-01  0.000000D+00  0.000000D+00
     11   0.000000D+00  0.000000D+00  0.000000D+00 -0.137006D+00  0.000000D+00
     12   0.000000D+00  0.000000D+00  0.000000D+00 -0.389837D+00  0.000000D+00
     13   0.000000D+00  0.000000D+00  0.000000D+00  0.236830D+00  0.000000D+00
     14   0.000000D+00  0.000000D+00 -0.336369D-01  0.000000D+00  0.000000D+00
     15   0.000000D+00  0.000000D+00  0.000000D+00  0.000000D+00 -0.392163D-01
     16   0.335222D+00 -0.859110D-01  0.000000D+00  0.000000D+00  0.000000D+00
              1101          1102          1103          1104          1105 
      1  -0.115318D+03 -0.115309D+03 -0.115280D+03 -0.115264D+03 -0.115260D+03
      2   0.000000D+00  0.500533D-01  0.000000D+00  0.823427D-01  0.000000D+00
      3   0.000000D+00  0.000000D+00  0.000000D+00  0.000000D+00 -0.466078D-01
      4  -0.601087D-01  0.000000D+00  0.526348D-01  0.000000D+00  0.000000D+00
      5   0.000000D+00 -0.137193D+00  0.000000D+00 -0.235619D+00  0.000000D+00
      6   0.000000D+00  0.000000D+00  0.000000D+00  0.000000D+00  0.146611D+00
      7   0.182887D+00  0.000000D+00 -0.132504D+00  0.000000D+00  0.000000D+00
      8   0.000000D+00  0.000000D+00  0.000000D+00  0.000000D+00  0.655836D+00
      9   0.000000D+00  0.181104D-01  0.000000D+00  0.818008D-01  0.000000D+00
     10   0.000000D+00  0.000000D+00  0.000000D+00  0.000000D+00  0.000000D+00
     11   0.165080D+00  0.000000D+00  0.134596D+00  0.000000D+00  0.000000D+00
     12   0.663547D+00  0.000000D+00  0.332355D+00  0.000000D+00  0.000000D+00
     13  -0.124454D+00  0.000000D+00 -0.361663D+00  0.000000D+00  0.000000D+00
     14   0.000000D+00  0.000000D+00  0.000000D+00  0.000000D+00  0.000000D+00
     15   0.000000D+00 -0.592519D-02  0.000000D+00 -0.365735D-01  0.000000D+00
     16   0.000000D+00  0.000000D+00  0.000000D+00  0.000000D+00  0.544072D+00
              1106          1107          1108          1109          1110 
      1  -0.115213D+03 -0.115213D+03 -0.115162D+03 -0.115155D+03 -0.115123D+03
      2   0.000000D+00  0.000000D+00  0.000000D+00  0.000000D+00  0.959728D-01
      3  -0.456267D-01  0.000000D+00  0.000000D+00  0.000000D+00  0.000000D+00
      4   0.000000D+00  0.000000D+00  0.000000D+00 -0.781675D-01  0.000000D+00
      5   0.000000D+00  0.000000D+00  0.000000D+00  0.000000D+00 -0.283562D+00
      6   0.119448D+00  0.000000D+00  0.000000D+00  0.000000D+00  0.000000D+00
      7   0.000000D+00  0.000000D+00  0.000000D+00  0.222433D+00  0.000000D+00
      8   0.290435D+00  0.000000D+00  0.000000D+00  0.000000D+00  0.000000D+00
      9   0.000000D+00  0.000000D+00  0.000000D+00  0.000000D+00 -0.134684D+00
     10   0.000000D+00  0.433288D+00  0.423481D+00  0.000000D+00  0.000000D+00
     11   0.000000D+00  0.000000D+00  0.000000D+00  0.962622D-01  0.000000D+00
     12   0.000000D+00  0.000000D+00  0.000000D+00  0.382681D+00  0.000000D+00
     13   0.000000D+00  0.000000D+00  0.000000D+00 -0.118593D+00  0.000000D+00
     14   0.000000D+00 -0.365958D+00 -0.484146D+00  0.000000D+00  0.000000D+00
     15   0.000000D+00  0.000000D+00  0.000000D+00  0.000000D+00 -0.877340D-01
     16   0.138706D+00  0.000000D+00  0.000000D+00  0.000000D+00  0.000000D+00
 Unable to Open any file for archive entry.
 1\1\GINC-HEL24\SP\RTPSSh TD-FC\Gen\C3H8\SABYASACHI\21-Mar-2022\0\\#P T
 D(Nstates=10000) tpssh/Gen SCF(maxcycles=100) Int(Grid=ultrafine)\\xGD
 B7_00001_tier4.com\\0,1\C,0,0.,1.267731,-0.259082\C,0,0.,0.,0.585552\C
 ,0,0.,-1.267731,-0.259082\H,0,0.,2.164308,0.363087\H,0,-0.881453,1.307
 675,-0.903652\H,0,0.881453,1.307675,-0.903652\H,0,-0.874532,0.,1.24205
 5\H,0,0.874532,0.,1.242055\H,0,-0.881453,-1.307675,-0.903652\H,0,0.,-2
 .164308,0.363087\H,0,0.881453,-1.307675,-0.903652\\Version=EM64L-G16Re
 vC.01\State=1-A1\HF=-119.0750696\RMSD=2.232e-09\PG=C02V [C2(C1),SGV(C2
 H2),SGV'(H2),X(H4)]\\@
 The archive entry for this job was punched.


 TERRY FORSTER, PORTLY ATLANTA BRAVES RELIEVER,
 ANNOUNCING THAT HE WAS GOING TO A FAT FARM:
 "A WAIST IS A TERRIBLE THING TO MIND."
 Job cpu time:       0 days  0 hours 20 minutes 36.3 seconds.
 Elapsed time:       0 days  0 hours  2 minutes 34.7 seconds.
 File lengths (MBytes):  RWF=   1598 Int=      0 D2E=      0 Chk=    404 Scr=      1
 Normal termination of Gaussian 16 at Mon Mar 21 20:11:24 2022.
