 Entering Gaussian System, Link 0=g16
 Input=000029.com
 Output=000029.log
 Initial command:
 /home/sabyasachi/g16/l1.exe "/scratch/sabyasachi/PBS_7976097.helios/Gau-142502.inp" -scrdir="/scratch/sabyasachi/PBS_7976097.helios/"
 Entering Link 1 = /home/sabyasachi/g16/l1.exe PID=    142503.
  
 Copyright (c) 1988-2019, Gaussian, Inc.  All Rights Reserved.
  
 This is part of the Gaussian(R) 16 program.  It is based on
 the Gaussian(R) 09 system (copyright 2009, Gaussian, Inc.),
 the Gaussian(R) 03 system (copyright 2003, Gaussian, Inc.),
 the Gaussian(R) 98 system (copyright 1998, Gaussian, Inc.),
 the Gaussian(R) 94 system (copyright 1995, Gaussian, Inc.),
 the Gaussian 92(TM) system (copyright 1992, Gaussian, Inc.),
 the Gaussian 90(TM) system (copyright 1990, Gaussian, Inc.),
 the Gaussian 88(TM) system (copyright 1988, Gaussian, Inc.),
 the Gaussian 86(TM) system (copyright 1986, Carnegie Mellon
 University), and the Gaussian 82(TM) system (copyright 1983,
 Carnegie Mellon University). Gaussian is a federally registered
 trademark of Gaussian, Inc.
  
 This software contains proprietary and confidential information,
 including trade secrets, belonging to Gaussian, Inc.
  
 This software is provided under written license and may be
 used, copied, transmitted, or stored only in accord with that
 written license.
  
 The following legend is applicable only to US Government
 contracts under FAR:
  
                    RESTRICTED RIGHTS LEGEND
  
 Use, reproduction and disclosure by the US Government is
 subject to restrictions as set forth in subparagraphs (a)
 and (c) of the Commercial Computer Software - Restricted
 Rights clause in FAR 52.227-19.
  
 Gaussian, Inc.
 340 Quinnipiac St., Bldg. 40, Wallingford CT 06492
  
  
 ---------------------------------------------------------------
 Warning -- This program may not be used in any manner that
 competes with the business of Gaussian, Inc. or will provide
 assistance to any competitor of Gaussian, Inc.  The licensee
 of this program is prohibited from giving any competitor of
 Gaussian, Inc. access to this program.  By using this program,
 the user acknowledges that Gaussian, Inc. is engaged in the
 business of creating and licensing software in the field of
 computational chemistry and represents and warrants to the
 licensee that it is not a competitor of Gaussian, Inc. and that
 it will not use this program in any manner prohibited above.
 ---------------------------------------------------------------
  

 Cite this work as:
 Gaussian 16, Revision C.01,
 M. J. Frisch, G. W. Trucks, H. B. Schlegel, G. E. Scuseria, 
 M. A. Robb, J. R. Cheeseman, G. Scalmani, V. Barone, 
 G. A. Petersson, H. Nakatsuji, X. Li, M. Caricato, A. V. Marenich, 
 J. Bloino, B. G. Janesko, R. Gomperts, B. Mennucci, H. P. Hratchian, 
 J. V. Ortiz, A. F. Izmaylov, J. L. Sonnenberg, D. Williams-Young, 
 F. Ding, F. Lipparini, F. Egidi, J. Goings, B. Peng, A. Petrone, 
 T. Henderson, D. Ranasinghe, V. G. Zakrzewski, J. Gao, N. Rega, 
 G. Zheng, W. Liang, M. Hada, M. Ehara, K. Toyota, R. Fukuda, 
 J. Hasegawa, M. Ishida, T. Nakajima, Y. Honda, O. Kitao, H. Nakai, 
 T. Vreven, K. Throssell, J. A. Montgomery, Jr., J. E. Peralta, 
 F. Ogliaro, M. J. Bearpark, J. J. Heyd, E. N. Brothers, K. N. Kudin, 
 V. N. Staroverov, T. A. Keith, R. Kobayashi, J. Normand, 
 K. Raghavachari, A. P. Rendell, J. C. Burant, S. S. Iyengar, 
 J. Tomasi, M. Cossi, J. M. Millam, M. Klene, C. Adamo, R. Cammi, 
 J. W. Ochterski, R. L. Martin, K. Morokuma, O. Farkas, 
 J. B. Foresman, and D. J. Fox, Gaussian, Inc., Wallingford CT, 2019.
 
 ******************************************
 Gaussian 16:  EM64L-G16RevC.01  3-Jul-2019
                21-Mar-2022 
 ******************************************
 %mem=64gb
 %nproc=8
 Will use up to    8 processors via shared memory.
 ---------------------------------------------------------------------
 #P TD(Nstates=10000) tpssh/Gen SCF(maxcycles=100) Int(Grid=ultrafine)
 ---------------------------------------------------------------------
 1/38=1,172=1/1;
 2/12=2,17=6,18=5,40=1/2;
 3/5=7,11=9,25=1,30=1,74=-35,75=-5/1,2,3,8;
 4//1;
 5/5=2,7=100,38=5/2;
 8/6=1,10=1,108=10000/1;
 9/41=10000,42=1,70=2/14;
 6/7=2,8=2,9=2,10=2/1;
 99/5=1,9=1/99;
 Leave Link    1 at Mon Mar 21 19:58:30 2022, MaxMem=  8589934592 cpu:               0.4 elap:               0.1
 (Enter /home/sabyasachi/g16/l101.exe)
 ---------------------
 xGDB7_00001_tier4.com
 ---------------------
 Symbolic Z-matrix:
 Charge =  0 Multiplicity = 1
 8                    -1.02862  -0.39518   0. 
 7                     0.        0.52623   0. 
 6                     1.13275  -0.03091   0. 
 1                    -1.81657   0.15179   0. 
 1                     1.99426   0.62344   0. 
 1                     1.2548   -1.11197   0. 
 
 ITRead=  0  0  0  0  0  0
 MicOpt= -1 -1 -1 -1 -1 -1
 NAtoms=      6 NQM=        6 NQMF=       0 NMMI=      0 NMMIF=      0
                NMic=       0 NMicF=      0.
                    Isotopes and Nuclear Properties:
 (Nuclear quadrupole moments (NQMom) in fm**2, nuclear magnetic moments (NMagM)
  in nuclear magnetons)

  Atom         1           2           3           4           5           6
 IAtWgt=          16          14          12           1           1           1
 AtmWgt=  15.9949146  14.0030740  12.0000000   1.0078250   1.0078250   1.0078250
 NucSpn=           0           2           0           1           1           1
 AtZEff=  -0.0000000  -0.0000000  -0.0000000  -0.0000000  -0.0000000  -0.0000000
 NQMom=    0.0000000   2.0440000   0.0000000   0.0000000   0.0000000   0.0000000
 NMagM=    0.0000000   0.4037610   0.0000000   2.7928460   2.7928460   2.7928460
 AtZNuc=   8.0000000   7.0000000   6.0000000   1.0000000   1.0000000   1.0000000
 Leave Link  101 at Mon Mar 21 19:58:30 2022, MaxMem=  8589934592 cpu:               0.6 elap:               0.1
 (Enter /home/sabyasachi/g16/l202.exe)
                          Input orientation:                          
 ---------------------------------------------------------------------
 Center     Atomic      Atomic             Coordinates (Angstroms)
 Number     Number       Type             X           Y           Z
 ---------------------------------------------------------------------
      1          8           0       -1.028621   -0.395177    0.000000
      2          7           0        0.000000    0.526228    0.000000
      3          6           0        1.132746   -0.030907    0.000000
      4          1           0       -1.816572    0.151791    0.000000
      5          1           0        1.994262    0.623439    0.000000
      6          1           0        1.254802   -1.111965    0.000000
 ---------------------------------------------------------------------
                    Distance matrix (angstroms):
                    1          2          3          4          5
     1  O    0.000000
     2  N    1.380959   0.000000
     3  C    2.191849   1.262344   0.000000
     4  H    0.959188   1.854761   2.954971   0.000000
     5  H    3.189890   1.996630   1.081840   3.839910   0.000000
     6  H    2.393283   2.063542   1.087926   3.321207   1.886380
                    6
     6  H    0.000000
 Stoichiometry    CH3NO
 Framework group  CS[SG(CH3NO)]
 Deg. of freedom     9
 Full point group                 CS      NOp   2
 Largest Abelian subgroup         CS      NOp   2
 Largest concise Abelian subgroup C1      NOp   1
                         Standard orientation:                         
 ---------------------------------------------------------------------
 Center     Atomic      Atomic             Coordinates (Angstroms)
 Number     Number       Type             X           Y           Z
 ---------------------------------------------------------------------
      1          8           0       -1.028621   -0.395177   -0.000000
      2          7           0       -0.000000    0.526228   -0.000000
      3          6           0        1.132746   -0.030907    0.000000
      4          1           0       -1.816572    0.151791   -0.000000
      5          1           0        1.994262    0.623439    0.000000
      6          1           0        1.254802   -1.111965    0.000000
 ---------------------------------------------------------------------
 Rotational constants (GHZ):          71.1254820          11.9936263          10.2630126
 Leave Link  202 at Mon Mar 21 19:58:30 2022, MaxMem=  8589934592 cpu:               0.1 elap:               0.0
 (Enter /home/sabyasachi/g16/l301.exe)
 General basis read from cards:  (5D, 7F)
 Centers:       4      5      6
 S 3 1.00
     Exponent=  1.3010701000D+01 Coefficients=  1.9682158000D-02
     Exponent=  1.9622572000D+00 Coefficients=  1.3796524000D-01
     Exponent=  4.4453796000D-01 Coefficients=  4.7831935000D-01
 S 1 1.00
     Exponent=  1.2194962000D-01 Coefficients=  1.0000000000D+00
 P 1 1.00
     Exponent=  8.0000000000D-01 Coefficients=  1.0000000000D+00
 P 1 1.00
     Exponent=  1.1704099050D-01 Coefficients=  1.0000000000D+00
 ****
 Centers:       3
 S 5 1.00
     Exponent=  1.2384016938D+03 Coefficients=  5.4568832082D-03
     Exponent=  1.8629004992D+02 Coefficients=  4.0638409211D-02
     Exponent=  4.2251176346D+01 Coefficients=  1.8025593888D-01
     Exponent=  1.1676557932D+01 Coefficients=  4.6315121755D-01
     Exponent=  3.5930506482D+00 Coefficients=  4.4087173314D-01
 S 1 1.00
     Exponent=  4.0245147363D-01 Coefficients=  1.0000000000D+00
 S 1 1.00
     Exponent=  1.3090182668D-01 Coefficients=  1.0000000000D+00
 S 1 1.00
     Exponent=  6.7053540256D-02 Coefficients=  1.0000000000D+00
 P 3 1.00
     Exponent=  9.4680970621D+00 Coefficients=  3.8387871728D-02
     Exponent=  2.0103545142D+00 Coefficients=  2.1117025112D-01
     Exponent=  5.4771004707D-01 Coefficients=  5.1328172114D-01
 P 1 1.00
     Exponent=  1.5268613795D-01 Coefficients=  1.0000000000D+00
 D 1 1.00
     Exponent=  8.0000000000D-01 Coefficients=  1.0000000000D+00
 D 1 1.00
     Exponent=  1.1713185140D-01 Coefficients=  1.0000000000D+00
 ****
 Centers:       2
 S 5 1.00
     Exponent=  1.7128415853D+03 Coefficients= -5.3934125305D-03
     Exponent=  2.5764812677D+02 Coefficients= -4.0221581118D-02
     Exponent=  5.8458245853D+01 Coefficients= -1.7931144990D-01
     Exponent=  1.6198367905D+01 Coefficients= -4.6376317823D-01
     Exponent=  5.0052600809D+00 Coefficients= -4.4171422662D-01
 S 1 1.00
     Exponent=  5.8731856571D-01 Coefficients=  1.0000000000D+00
 S 1 1.00
     Exponent=  1.8764592253D-01 Coefficients=  1.0000000000D+00
 S 1 1.00
     Exponent=  9.6171241529D-02 Coefficients=  1.0000000000D+00
 P 3 1.00
     Exponent=  1.3571470233D+01 Coefficients= -4.0072398852D-02
     Exponent=  2.9257372874D+00 Coefficients= -2.1807045028D-01
     Exponent=  7.9927750754D-01 Coefficients= -5.1294466049D-01
 P 1 1.00
     Exponent=  2.1954348034D-01 Coefficients=  1.0000000000D+00
 D 1 1.00
     Exponent=  1.0000000000D+00 Coefficients=  1.0000000000D+00
 D 1 1.00
     Exponent=  1.6697708112D-01 Coefficients=  1.0000000000D+00
 ****
 Centers:       1
 S 5 1.00
     Exponent=  2.2661767785D+03 Coefficients= -5.3431809926D-03
     Exponent=  3.4087010191D+02 Coefficients= -3.9890039230D-02
     Exponent=  7.7363135167D+01 Coefficients= -1.7853911985D-01
     Exponent=  2.1479644940D+01 Coefficients= -4.6427684959D-01
     Exponent=  6.6589433124D+00 Coefficients= -4.4309745172D-01
 S 1 1.00
     Exponent=  8.0975975668D-01 Coefficients=  1.0000000000D+00
 S 1 1.00
     Exponent=  2.5530772234D-01 Coefficients=  1.0000000000D+00
 S 1 1.00
     Exponent=  7.6572453250D-02 Coefficients=  1.0000000000D+00
 P 3 1.00
     Exponent=  1.7721504317D+01 Coefficients=  4.3394573193D-02
     Exponent=  3.8635505440D+00 Coefficients=  2.3094120765D-01
     Exponent=  1.0480920883D+00 Coefficients=  5.1375311064D-01
 P 1 1.00
     Exponent=  2.7641544411D-01 Coefficients=  1.0000000000D+00
 P 1 1.00
     Exponent=  6.9002276350D-02 Coefficients=  1.0000000000D+00
 D 1 1.00
     Exponent=  1.2000000000D+00 Coefficients=  1.0000000000D+00
 D 1 1.00
     Exponent=  1.7992024323D-01 Coefficients=  1.0000000000D+00
 ****
 Ernie: Thresh=  0.10000D-02 Tol=  0.10000D-05 Strict=F.
 There are    68 symmetry adapted cartesian basis functions of A'  symmetry.
 There are    25 symmetry adapted cartesian basis functions of A"  symmetry.
 There are    62 symmetry adapted basis functions of A'  symmetry.
 There are    25 symmetry adapted basis functions of A"  symmetry.
    87 basis functions,   129 primitive gaussians,    93 cartesian basis functions
    12 alpha electrons       12 beta electrons
       nuclear repulsion energy        71.3165683749 Hartrees.
 IExCor= 2523 DFT=T Ex+Corr=TPSSh ExCW=0 ScaHFX=  0.100000
 ScaDFX=  0.900000  0.900000  1.000000  1.000000 ScalE2=  1.000000  1.000000
 IRadAn=      5 IRanWt=     -1 IRanGd=            0 ICorTp=0 IEmpDi=  4
 NAtoms=    6 NActive=    6 NUniq=    6 SFac= 1.00D+00 NAtFMM=   60 NAOKFM=F Big=F
 Integral buffers will be    131072 words long.
 Regular integral format.
 Two-electron integral symmetry is turned on.
 Leave Link  301 at Mon Mar 21 19:58:30 2022, MaxMem=  8589934592 cpu:               0.6 elap:               0.1
 (Enter /home/sabyasachi/g16/l302.exe)
 NPDir=0 NMtPBC=     1 NCelOv=     1 NCel=       1 NClECP=     1 NCelD=      1
         NCelK=      1 NCelE2=     1 NClLst=     1 CellRange=     0.0.
 One-electron integrals computed using PRISM.
 One-electron integral symmetry used in STVInt
 NBasis=    87 RedAO= T EigKep=  4.94D-04  NBF=    62    25
 NBsUse=    87 1.00D-06 EigRej= -1.00D+00 NBFU=    62    25
 Precomputing XC quadrature grid using
 IXCGrd= 4 IRadAn=           5 IRanWt=          -1 IRanGd=           0 AccXCQ= 0.00D+00.
 Generated NRdTot=       0 NPtTot=           0 NUsed=           0 NTot=          32
 NSgBfM=    93    93    93    93    93 MxSgAt=     6 MxSgA2=     6.
 Leave Link  302 at Mon Mar 21 19:58:30 2022, MaxMem=  8589934592 cpu:               0.9 elap:               0.1
 (Enter /home/sabyasachi/g16/l303.exe)
 DipDrv:  MaxL=1.
 Leave Link  303 at Mon Mar 21 19:58:30 2022, MaxMem=  8589934592 cpu:               0.2 elap:               0.0
 (Enter /home/sabyasachi/g16/l308.exe)
 Leave Link  308 at Mon Mar 21 19:58:31 2022, MaxMem=  8589934592 cpu:               0.2 elap:               0.1
 (Enter /home/sabyasachi/g16/l401.exe)
 ExpMin= 6.71D-02 ExpMax= 2.27D+03 ExpMxC= 3.41D+02 IAcc=3 IRadAn=         5 AccDes= 0.00D+00
 Harris functional with IExCor= 1009 and IRadAn=       5 diagonalized for initial guess.
 HarFok:  IExCor= 1009 AccDes= 0.00D+00 IRadAn=         5 IDoV= 1 UseB2=F ITyADJ=14
 ICtDFT=  3500011 ScaDFX=  1.000000  1.000000  1.000000  1.000000
 FoFCou: FMM=F IPFlag=           0 FMFlag=      100000 FMFlg1=           0
         NFxFlg=           0 DoJE=T BraDBF=F KetDBF=T FulRan=T
         wScrn=  0.000000 ICntrl=       500 IOpCl=  0 I1Cent=   200000004 NGrid=           0
         NMat0=    1 NMatS0=      1 NMatT0=    0 NMatD0=    1 NMtDS0=    0 NMtDT0=    0
 Petite list used in FoFCou.
 Harris En= -169.539609786320    
 JPrj=0 DoOrth=F DoCkMO=F.
 Initial guess orbital symmetries:
       Occupied  (A') (A') (A') (A') (A') (A') (A') (A') (A') (A")
                 (A') (A")
       Virtual   (A") (A') (A') (A') (A') (A") (A') (A') (A') (A")
                 (A') (A") (A') (A') (A") (A') (A') (A") (A') (A')
                 (A') (A') (A") (A') (A') (A") (A') (A') (A') (A')
                 (A") (A') (A") (A') (A") (A") (A') (A') (A') (A')
                 (A') (A") (A') (A') (A') (A") (A') (A") (A') (A')
                 (A") (A') (A') (A') (A") (A') (A") (A') (A') (A')
                 (A") (A') (A") (A') (A') (A') (A") (A') (A") (A")
                 (A') (A') (A') (A') (A')
 The electronic state of the initial guess is 1-A'.
 Leave Link  401 at Mon Mar 21 19:58:31 2022, MaxMem=  8589934592 cpu:               1.8 elap:               0.2
 (Enter /home/sabyasachi/g16/l502.exe)
 Keep R1 ints in memory in symmetry-blocked form, NReq=14691162.
 FoFCou: FMM=F IPFlag=           0 FMFlag=           0 FMFlg1=           0
         NFxFlg=           0 DoJE=F BraDBF=F KetDBF=F FulRan=T
         wScrn=  0.000000 ICntrl=       600 IOpCl=  0 I1Cent=           0 NGrid=           0
         NMat0=    1 NMatS0=   3828 NMatT0=    0 NMatD0=    1 NMtDS0=    0 NMtDT0=    0
 Petite list used in FoFCou.
 Closed shell SCF:
 Using DIIS extrapolation, IDIIS=  1040.
 NGot=  8589934592 LenX=  8586108576 LenY=  8586099486
 Requested convergence on RMS density matrix=1.00D-08 within 100 cycles.
 Requested convergence on MAX density matrix=1.00D-06.
 Requested convergence on             energy=1.00D-06.
 No special actions if energy rises.
 Integral accuracy reduced to 1.0D-05 until final iterations.

 Cycle   1  Pass 0  IDiag  1:
 E= -169.656583679005    
 DIIS: error= 1.62D-02 at cycle   1 NSaved=   1.
 NSaved= 1 IEnMin= 1 EnMin= -169.656583679005     IErMin= 1 ErrMin= 1.62D-02
 ErrMax= 1.62D-02  0.00D+00 EMaxC= 1.00D-01 BMatC= 5.33D-02 BMatP= 5.33D-02
 IDIUse=3 WtCom= 8.38D-01 WtEn= 1.62D-01
 Coeff-Com:  0.100D+01
 Coeff-En:   0.100D+01
 Coeff:      0.100D+01
 Gap=     0.215 Goal=   None    Shift=    0.000
 GapD=    0.215 DampG=1.000 DampE=0.500 DampFc=0.5000 IDamp=-1.
 Damping current iteration by 5.00D-01
 RMSDP=6.24D-03 MaxDP=1.31D-01              OVMax= 1.58D-01

 Cycle   2  Pass 0  IDiag  1:
 E= -169.672986507677     Delta-E=       -0.016402828672 Rises=F Damp=T
 DIIS: error= 7.98D-03 at cycle   2 NSaved=   2.
 NSaved= 2 IEnMin= 2 EnMin= -169.672986507677     IErMin= 2 ErrMin= 7.98D-03
 ErrMax= 7.98D-03  0.00D+00 EMaxC= 1.00D-01 BMatC= 6.93D-03 BMatP= 5.33D-02
 IDIUse=3 WtCom= 9.20D-01 WtEn= 7.98D-02
 Coeff-Com:  0.149D+00 0.851D+00
 Coeff-En:   0.262D+00 0.738D+00
 Coeff:      0.158D+00 0.842D+00
 Gap=     0.227 Goal=   None    Shift=    0.000
 RMSDP=2.56D-03 MaxDP=4.47D-02 DE=-1.64D-02 OVMax= 1.39D-01

 Cycle   3  Pass 0  IDiag  1:
 E= -169.695916917696     Delta-E=       -0.022930410019 Rises=F Damp=F
 DIIS: error= 1.13D-02 at cycle   3 NSaved=   3.
 NSaved= 3 IEnMin= 3 EnMin= -169.695916917696     IErMin= 2 ErrMin= 7.98D-03
 ErrMax= 1.13D-02  0.00D+00 EMaxC= 1.00D-01 BMatC= 7.81D-03 BMatP= 6.93D-03
 IDIUse=2 WtCom= 0.00D+00 WtEn= 1.00D+00
 Coeff-En:   0.000D+00 0.000D+00 0.100D+01
 Coeff:      0.000D+00 0.000D+00 0.100D+01
 Gap=     0.223 Goal=   None    Shift=    0.000
 RMSDP=3.14D-03 MaxDP=8.11D-02 DE=-2.29D-02 OVMax= 1.09D-01

 Cycle   4  Pass 0  IDiag  1:
 E= -169.668038031823     Delta-E=        0.027878885874 Rises=F Damp=F
 DIIS: error= 2.43D-02 at cycle   4 NSaved=   4.
 NSaved= 4 IEnMin= 3 EnMin= -169.695916917696     IErMin= 2 ErrMin= 7.98D-03
 ErrMax= 2.43D-02  0.00D+00 EMaxC= 1.00D-01 BMatC= 3.88D-02 BMatP= 6.93D-03
 IDIUse=2 WtCom= 0.00D+00 WtEn= 1.00D+00
 Coeff-En:   0.000D+00 0.000D+00 0.773D+00 0.227D+00
 Coeff:      0.000D+00 0.000D+00 0.773D+00 0.227D+00
 Gap=     0.228 Goal=   None    Shift=    0.000
 RMSDP=1.48D-03 MaxDP=4.30D-02 DE= 2.79D-02 OVMax= 6.10D-02

 Cycle   5  Pass 0  IDiag  1:
 E= -169.700857211169     Delta-E=       -0.032819179347 Rises=F Damp=F
 DIIS: error= 6.59D-03 at cycle   5 NSaved=   5.
 NSaved= 5 IEnMin= 5 EnMin= -169.700857211169     IErMin= 5 ErrMin= 6.59D-03
 ErrMax= 6.59D-03  0.00D+00 EMaxC= 1.00D-01 BMatC= 2.63D-03 BMatP= 6.93D-03
 IDIUse=3 WtCom= 9.34D-01 WtEn= 6.59D-02
 Coeff-Com:  0.528D-02 0.601D-02 0.344D+00-0.185D-01 0.663D+00
 Coeff-En:   0.000D+00 0.000D+00 0.298D+00 0.000D+00 0.702D+00
 Coeff:      0.493D-02 0.561D-02 0.341D+00-0.173D-01 0.666D+00
 Gap=     0.232 Goal=   None    Shift=    0.000
 RMSDP=5.78D-04 MaxDP=1.41D-02 DE=-3.28D-02 OVMax= 1.75D-02

 Cycle   6  Pass 0  IDiag  1:
 E= -169.703238604430     Delta-E=       -0.002381393261 Rises=F Damp=F
 DIIS: error= 4.87D-04 at cycle   6 NSaved=   6.
 NSaved= 6 IEnMin= 6 EnMin= -169.703238604430     IErMin= 6 ErrMin= 4.87D-04
 ErrMax= 4.87D-04  0.00D+00 EMaxC= 1.00D-01 BMatC= 1.61D-05 BMatP= 2.63D-03
 IDIUse=3 WtCom= 9.95D-01 WtEn= 4.87D-03
 Coeff-Com: -0.314D-02 0.702D-02 0.132D+00-0.524D-01 0.423D+00 0.493D+00
 Coeff-En:   0.000D+00 0.000D+00 0.000D+00 0.000D+00 0.000D+00 0.100D+01
 Coeff:     -0.312D-02 0.699D-02 0.132D+00-0.521D-01 0.421D+00 0.495D+00
 Gap=     0.232 Goal=   None    Shift=    0.000
 RMSDP=3.78D-05 MaxDP=7.64D-04 DE=-2.38D-03 OVMax= 1.41D-03

 Cycle   7  Pass 0  IDiag  1:
 E= -169.703252092610     Delta-E=       -0.000013488179 Rises=F Damp=F
 DIIS: error= 2.23D-05 at cycle   7 NSaved=   7.
 NSaved= 7 IEnMin= 7 EnMin= -169.703252092610     IErMin= 7 ErrMin= 2.23D-05
 ErrMax= 2.23D-05  0.00D+00 EMaxC= 1.00D-01 BMatC= 6.14D-08 BMatP= 1.61D-05
 IDIUse=1 WtCom= 1.00D+00 WtEn= 0.00D+00
 Coeff-Com: -0.839D-03 0.140D-02 0.279D-01-0.132D-01 0.969D-01 0.141D+00
 Coeff-Com:  0.747D+00
 Coeff:     -0.839D-03 0.140D-02 0.279D-01-0.132D-01 0.969D-01 0.141D+00
 Coeff:      0.747D+00
 Gap=     0.232 Goal=   None    Shift=    0.000
 RMSDP=4.02D-06 MaxDP=5.53D-05 DE=-1.35D-05 OVMax= 9.42D-05

 Initial convergence to 1.0D-05 achieved.  Increase integral accuracy.
 Cycle   8  Pass 1  IDiag  1:
 E= -169.703248534889     Delta-E=        0.000003557721 Rises=F Damp=F
 DIIS: error= 4.13D-06 at cycle   1 NSaved=   1.
 NSaved= 1 IEnMin= 1 EnMin= -169.703248534889     IErMin= 1 ErrMin= 4.13D-06
 ErrMax= 4.13D-06  0.00D+00 EMaxC= 1.00D-01 BMatC= 2.79D-09 BMatP= 2.79D-09
 IDIUse=1 WtCom= 1.00D+00 WtEn= 0.00D+00
 Coeff-Com:  0.100D+01
 Coeff:      0.100D+01
 Gap=     0.232 Goal=   None    Shift=    0.000
 RMSDP=4.02D-06 MaxDP=5.53D-05 DE= 3.56D-06 OVMax= 8.01D-05

 Cycle   9  Pass 1  IDiag  1:
 E= -169.703248527202     Delta-E=        0.000000007687 Rises=F Damp=F
 DIIS: error= 9.86D-06 at cycle   2 NSaved=   2.
 NSaved= 2 IEnMin= 1 EnMin= -169.703248534889     IErMin= 1 ErrMin= 4.13D-06
 ErrMax= 9.86D-06  0.00D+00 EMaxC= 1.00D-01 BMatC= 1.09D-08 BMatP= 2.79D-09
 IDIUse=1 WtCom= 1.00D+00 WtEn= 0.00D+00
 Coeff-Com:  0.675D+00 0.325D+00
 Coeff:      0.675D+00 0.325D+00
 Gap=     0.232 Goal=   None    Shift=    0.000
 RMSDP=1.20D-06 MaxDP=3.14D-05 DE= 7.69D-09 OVMax= 6.04D-05

 Cycle  10  Pass 1  IDiag  1:
 E= -169.703248537826     Delta-E=       -0.000000010623 Rises=F Damp=F
 DIIS: error= 1.31D-06 at cycle   3 NSaved=   3.
 NSaved= 3 IEnMin= 3 EnMin= -169.703248537826     IErMin= 3 ErrMin= 1.31D-06
 ErrMax= 1.31D-06  0.00D+00 EMaxC= 1.00D-01 BMatC= 1.49D-10 BMatP= 2.79D-09
 IDIUse=1 WtCom= 1.00D+00 WtEn= 0.00D+00
 Coeff-Com:  0.117D+00 0.127D+00 0.756D+00
 Coeff:      0.117D+00 0.127D+00 0.756D+00
 Gap=     0.232 Goal=   None    Shift=    0.000
 RMSDP=2.46D-07 MaxDP=4.37D-06 DE=-1.06D-08 OVMax= 4.82D-06

 Cycle  11  Pass 1  IDiag  1:
 E= -169.703248537953     Delta-E=       -0.000000000127 Rises=F Damp=F
 DIIS: error= 3.40D-07 at cycle   4 NSaved=   4.
 NSaved= 4 IEnMin= 4 EnMin= -169.703248537953     IErMin= 4 ErrMin= 3.40D-07
 ErrMax= 3.40D-07  0.00D+00 EMaxC= 1.00D-01 BMatC= 1.19D-11 BMatP= 1.49D-10
 IDIUse=1 WtCom= 1.00D+00 WtEn= 0.00D+00
 Coeff-Com:  0.244D-02 0.358D-01 0.313D+00 0.649D+00
 Coeff:      0.244D-02 0.358D-01 0.313D+00 0.649D+00
 Gap=     0.232 Goal=   None    Shift=    0.000
 RMSDP=4.46D-08 MaxDP=9.99D-07 DE=-1.27D-10 OVMax= 1.10D-06

 Cycle  12  Pass 1  IDiag  1:
 E= -169.703248537964     Delta-E=       -0.000000000011 Rises=F Damp=F
 DIIS: error= 6.93D-08 at cycle   5 NSaved=   5.
 NSaved= 5 IEnMin= 5 EnMin= -169.703248537964     IErMin= 5 ErrMin= 6.93D-08
 ErrMax= 6.93D-08  0.00D+00 EMaxC= 1.00D-01 BMatC= 6.51D-13 BMatP= 1.19D-11
 IDIUse=1 WtCom= 1.00D+00 WtEn= 0.00D+00
 Coeff-Com: -0.577D-02 0.870D-02 0.911D-01 0.270D+00 0.636D+00
 Coeff:     -0.577D-02 0.870D-02 0.911D-01 0.270D+00 0.636D+00
 Gap=     0.232 Goal=   None    Shift=    0.000
 RMSDP=1.07D-08 MaxDP=1.89D-07 DE=-1.12D-11 OVMax= 2.17D-07

 Cycle  13  Pass 1  IDiag  1:
 E= -169.703248537964     Delta-E=        0.000000000000 Rises=F Damp=F
 DIIS: error= 3.19D-08 at cycle   6 NSaved=   6.
 NSaved= 6 IEnMin= 5 EnMin= -169.703248537964     IErMin= 6 ErrMin= 3.19D-08
 ErrMax= 3.19D-08  0.00D+00 EMaxC= 1.00D-01 BMatC= 6.30D-14 BMatP= 6.51D-13
 IDIUse=1 WtCom= 1.00D+00 WtEn= 0.00D+00
 Coeff-Com: -0.331D-02 0.389D-02 0.420D-01 0.132D+00 0.368D+00 0.458D+00
 Coeff:     -0.331D-02 0.389D-02 0.420D-01 0.132D+00 0.368D+00 0.458D+00
 Gap=     0.232 Goal=   None    Shift=    0.000
 RMSDP=2.54D-09 MaxDP=5.74D-08 DE= 2.27D-13 OVMax= 7.05D-08

 SCF Done:  E(RTPSSh) =  -169.703248538     A.U. after   13 cycles
            NFock= 13  Conv=0.25D-08     -V/T= 2.0080
 KE= 1.683489150754D+02 PE=-5.399316121378D+02 EE= 1.305628801495D+02
 Leave Link  502 at Mon Mar 21 19:58:33 2022, MaxMem=  8589934592 cpu:              15.0 elap:               1.9
 (Enter /home/sabyasachi/g16/l801.exe)
 DoSCS=F DFT=T ScalE2(SS,OS)=  1.000000  1.000000
 ExpMin= 6.71D-02 ExpMax= 2.27D+03 ExpMxC= 3.41D+02 IAcc=3 IRadAn=         5 AccDes= 0.00D+00
 HarFok:  IExCor=  205 AccDes= 0.00D+00 IRadAn=         5 IDoV=-2 UseB2=F ITyADJ=14
 ICtDFT= 12500011 ScaDFX=  1.000000  1.000000  1.000000  1.000000
 Largest valence mixing into a core orbital is  8.02D-05
 Largest core mixing into a valence orbital is  2.42D-05
 Range of M.O.s used for correlation:     4    87
 NBasis=    87 NAE=    12 NBE=    12 NFC=     3 NFV=     0
 NROrb=     84 NOA=     9 NOB=     9 NVA=    75 NVB=    75

 **** Warning!!: The largest alpha MO coefficient is  0.15865530D+02

 Leave Link  801 at Mon Mar 21 19:58:33 2022, MaxMem=  8589934592 cpu:               0.4 elap:               0.1
 (Enter /home/sabyasachi/g16/l914.exe)
 RHF ground state
 Keep R1, R2, and R3 ints in memory in symmetry-blocked form, NReq=503099006.
 FoFCou: FMM=F IPFlag=           0 FMFlag=           0 FMFlg1=           0
         NFxFlg=           0 DoJE=F BraDBF=F KetDBF=F FulRan=T
         wScrn=  0.000000 ICntrl=       600 IOpCl=  0 I1Cent=           0 NGrid=           0
         NMat0=    1 NMatS0=   3828 NMatT0=    0 NMatD0=    1 NMtDS0=    0 NMtDT0=    0
 Petite list used in FoFCou.
 MDV=  8589934592 DFT=T DoStab=F Mixed=T DoRPA=T DoScal=F NonHer=T
 Making orbital integer symmetry assigments:
 Orbital symmetries:
       Occupied  (A') (A') (A') (A') (A') (A') (A') (A') (A') (A")
                 (A') (A")
       Virtual   (A") (A') (A') (A') (A') (A") (A') (A') (A') (A")
                 (A") (A') (A') (A') (A") (A') (A') (A") (A') (A')
                 (A') (A') (A") (A') (A') (A") (A') (A') (A') (A')
                 (A") (A') (A") (A') (A") (A") (A') (A') (A') (A')
                 (A') (A') (A") (A') (A') (A") (A') (A") (A') (A')
                 (A") (A') (A') (A") (A') (A') (A") (A') (A') (A')
                 (A") (A') (A") (A') (A') (A') (A") (A') (A") (A")
                 (A') (A') (A') (A') (A')
   675 initial guesses have been made.
 Convergence on wavefunction:    0.001000000000000
 Davidson Disk Diagonalization:  ConvIn= 1.00D-03 SkipCon=T Conv= 1.00D-03.
 Max sub-space:  4050 roots to seek:  1350 dimension of matrix:         1350
 *** WARNING: Number of orthogonal guesses is          675
 Iteration     1 Dimension   675 NMult     0 NNew    675
 CISAX will form   675 AO SS matrices at one time.
 NMat=   675 NSing=   675 JSym2X=-1.
 New state      1 was old state      2
 New state      2 was old state      1
 New state      9 was old state     10
 New state     10 was old state      9
 New state     11 was old state     13
 New state     13 was old state     14
 New state     14 was old state     15
 New state     15 was old state     16
 New state     16 was old state     17
 New state     17 was old state     18
 New state     18 was old state     11
 New state     19 was old state     22
 New state     20 was old state     19
 New state     21 was old state     20
 New state     22 was old state     21
 New state     29 was old state     30
 New state     30 was old state     29
 New state     35 was old state     36
 New state     36 was old state     35
 New state     37 was old state     39
 New state     38 was old state     37
 New state     39 was old state     38
 New state     41 was old state     43
 New state     42 was old state     41
 New state     43 was old state     42
 New state     45 was old state     46
 New state     46 was old state     48
 New state     47 was old state     49
 New state     48 was old state     45
 New state     49 was old state     53
 New state     50 was old state     52
 New state     51 was old state     50
 New state     52 was old state     51
 New state     53 was old state     54
 New state     54 was old state     56
 New state     55 was old state     57
 New state     56 was old state     58
 New state     57 was old state     59
 New state     58 was old state     60
 New state     59 was old state     55
 New state     60 was old state     61
 New state     61 was old state     62
 New state     62 was old state     63
 New state     63 was old state     65
 New state     65 was old state     68
 New state     66 was old state     72
 New state     67 was old state     70
 New state     68 was old state     67
 New state     69 was old state     66
 New state     70 was old state     69
 New state     72 was old state     75
 New state     73 was old state     76
 New state     75 was old state     78
 New state     76 was old state     77
 New state     77 was old state     73
 New state     78 was old state     79
 New state     79 was old state     81
 New state     81 was old state     82
 New state     82 was old state     84
 New state     83 was old state     87
 New state     84 was old state     85
 New state     85 was old state     88
 New state     87 was old state     90
 New state     88 was old state     83
 New state     90 was old state    101
 New state     97 was old state     98
 New state     98 was old state     97
 New state    101 was old state    103
 New state    103 was old state    104
 New state    104 was old state    105
 New state    105 was old state    106
 New state    106 was old state    107
 New state    107 was old state    116
 New state    109 was old state    110
 New state    110 was old state    109
 New state    112 was old state    113
 New state    113 was old state    112
 New state    116 was old state    118
 New state    117 was old state    119
 New state    118 was old state    120
 New state    119 was old state    124
 New state    120 was old state    121
 New state    121 was old state    122
 New state    122 was old state    125
 New state    123 was old state    117
 New state    124 was old state    123
 New state    125 was old state    128
 New state    127 was old state    129
 New state    128 was old state    127
 New state    129 was old state    130
 New state    130 was old state    131
 New state    131 was old state    133
 New state    133 was old state    134
 New state    134 was old state    136
 New state    136 was old state    144
 New state    138 was old state    139
 New state    139 was old state    140
 New state    140 was old state    138
 New state    144 was old state    146
 New state    146 was old state    147
 New state    147 was old state    148
 New state    148 was old state    149
 New state    149 was old state    151
 New state    151 was old state    153
 New state    153 was old state    159
 New state    154 was old state    156
 New state    156 was old state    154
 New state    159 was old state    162
 New state    162 was old state    163
 New state    163 was old state    164
 New state    164 was old state    165
 New state    165 was old state    166
 New state    166 was old state    168
 New state    167 was old state    169
 New state    168 was old state    167
 New state    169 was old state    170
 New state    170 was old state    172
 New state    171 was old state    173
 New state    172 was old state    171
 New state    173 was old state    178
 New state    174 was old state    176
 New state    176 was old state    174
 New state    177 was old state    183
 New state    178 was old state    179
 New state    179 was old state    180
 New state    180 was old state    181
 New state    181 was old state    177
 New state    182 was old state    185
 New state    183 was old state    182
 New state    185 was old state    190
 New state    188 was old state    193
 New state    189 was old state    188
 New state    190 was old state    194
 New state    191 was old state    189
 New state    192 was old state    191
 New state    193 was old state    192
 New state    194 was old state    197
 New state    195 was old state    199
 New state    196 was old state    198
 New state    197 was old state    201
 New state    198 was old state    196
 New state    199 was old state    200
 No map to state    200
 New state    201 was old state    203
 New state    203 was old state    207
 New state    205 was old state    209
 New state    206 was old state    205
 New state    207 was old state    208
 New state    208 was old state    210
 New state    209 was old state    211
 New state    210 was old state    206
 New state    211 was old state    212
 New state    212 was old state    219
 New state    213 was old state    215
 New state    214 was old state    213
 New state    215 was old state    214
 New state    216 was old state    220
 New state    217 was old state    218
 New state    218 was old state    222
 New state    219 was old state    216
 New state    220 was old state    228
 New state    222 was old state    224
 New state    223 was old state    225
 New state    224 was old state    223
 New state    225 was old state    226
 New state    226 was old state    227
 New state    227 was old state    229
 New state    228 was old state    233
 New state    229 was old state    230
 New state    230 was old state    232
 New state    231 was old state    243
 New state    232 was old state    231
 New state    233 was old state    236
 New state    234 was old state    237
 New state    235 was old state    234
 New state    236 was old state    235
 New state    237 was old state    238
 New state    238 was old state    242
 New state    240 was old state    241
 New state    241 was old state    240
 New state    242 was old state    245
 New state    243 was old state    244
 New state    244 was old state    247
 New state    245 was old state    246
 New state    246 was old state    248
 New state    247 was old state    250
 New state    248 was old state    249
 New state    249 was old state    251
 New state    250 was old state    252
 New state    251 was old state    254
 New state    252 was old state    253
 New state    253 was old state    262
 New state    254 was old state    255
 New state    255 was old state    263
 New state    257 was old state    259
 New state    258 was old state    261
 New state    259 was old state    257
 New state    260 was old state    264
 New state    261 was old state    258
 New state    262 was old state    260
 New state    263 was old state    267
 New state    264 was old state    266
 New state    266 was old state    268
 New state    267 was old state    272
 New state    268 was old state    273
 New state    270 was old state    274
 New state    271 was old state    270
 New state    272 was old state    276
 New state    273 was old state    271
 New state    274 was old state    277
 New state    275 was old state    279
 New state    276 was old state    278
 New state    277 was old state    280
 New state    278 was old state    275
 New state    279 was old state    282
 New state    280 was old state    285
 New state    282 was old state    284
 New state    283 was old state    291
 New state    284 was old state    283
 New state    285 was old state    286
 New state    286 was old state    287
 New state    287 was old state    288
 New state    288 was old state    289
 New state    289 was old state    290
 New state    290 was old state    294
 New state    291 was old state    296
 New state    293 was old state    298
 New state    294 was old state    293
 New state    295 was old state    297
 New state    296 was old state    295
 New state    297 was old state    299
 New state    298 was old state    300
 New state    299 was old state    304
 New state    300 was old state    302
 New state    302 was old state    303
 New state    303 was old state    318
 New state    304 was old state    305
 New state    305 was old state    306
 New state    306 was old state    307
 New state    307 was old state    308
 New state    308 was old state    311
 New state    311 was old state    314
 New state    314 was old state    320
 New state    315 was old state    322
 New state    318 was old state    319
 New state    319 was old state    315
 New state    320 was old state    324
 New state    321 was old state    323
 New state    322 was old state    321
 New state    323 was old state    329
 New state    324 was old state    326
 New state    326 was old state    328
 New state    328 was old state    334
 New state    329 was old state    333
 New state    330 was old state    332
 New state    331 was old state    330
 New state    332 was old state    331
 New state    333 was old state    338
 New state    334 was old state    336
 New state    336 was old state    337
 No map to state    337
 New state    338 was old state    340
 New state    340 was old state    342
 New state    341 was old state    344
 New state    342 was old state    341
 New state    343 was old state    354
 New state    344 was old state    343
 New state    353 was old state    355
 New state    354 was old state    353
 New state    355 was old state    357
 New state    357 was old state    359
 New state    359 was old state    361
 New state    361 was old state    363
 New state    363 was old state    364
 New state    364 was old state    365
 New state    365 was old state    366
 New state    366 was old state    369
 New state    367 was old state    368
 New state    368 was old state    367
 New state    369 was old state    372
 New state    371 was old state    376
 New state    372 was old state    375
 New state    373 was old state    377
 New state    374 was old state    371
 New state    375 was old state    378
 New state    376 was old state    374
 New state    377 was old state    379
 New state    378 was old state    381
 New state    379 was old state    380
 New state    380 was old state    373
 New state    381 was old state    385
 New state    383 was old state    387
 New state    385 was old state    383
 New state    386 was old state    390
 New state    387 was old state    388
 New state    388 was old state    389
 New state    389 was old state    386
 New state    390 was old state    393
 New state    393 was old state    394
 New state    394 was old state    395
 New state    395 was old state    397
 New state    397 was old state    399
 New state    399 was old state    400
 New state    400 was old state    409
 New state    402 was old state    405
 New state    403 was old state    402
 New state    405 was old state    406
 New state    406 was old state    403
 New state    407 was old state    411
 New state    408 was old state    407
 New state    409 was old state    410
 New state    410 was old state    413
 New state    411 was old state    412
 New state    412 was old state    408
 New state    413 was old state    414
 New state    414 was old state    415
 New state    415 was old state    416
 New state    416 was old state    418
 New state    418 was old state    419
 New state    419 was old state    420
 New state    420 was old state    421
 New state    421 was old state    423
 New state    422 was old state    424
 New state    423 was old state    422
 New state    424 was old state    426
 New state    425 was old state    428
 New state    426 was old state    429
 New state    428 was old state    425
 New state    429 was old state    430
 New state    430 was old state    431
 New state    431 was old state    433
 New state    432 was old state    434
 New state    433 was old state    432
 New state    434 was old state    435
 New state    435 was old state    439
 New state    439 was old state    440
 New state    440 was old state    442
 New state    441 was old state    443
 New state    442 was old state    441
 New state    443 was old state    444
 New state    444 was old state    445
 New state    445 was old state    448
 New state    448 was old state    451
 New state    451 was old state    455
 New state    454 was old state    456
 New state    455 was old state    454
 New state    456 was old state    458
 New state    458 was old state    459
 New state    459 was old state    460
 New state    460 was old state    462
 New state    462 was old state    471
 New state    463 was old state    464
 New state    464 was old state    463
 New state    469 was old state    470
 New state    470 was old state    469
 New state    471 was old state    473
 New state    473 was old state    484
 New state    474 was old state    475
 New state    475 was old state    477
 New state    476 was old state    474
 New state    477 was old state    476
 New state    480 was old state    483
 New state    481 was old state    482
 New state    482 was old state    480
 New state    483 was old state    481
 New state    484 was old state    507
 New state    486 was old state    489
 New state    487 was old state    486
 New state    488 was old state    490
 New state    489 was old state    488
 New state    490 was old state    487
 New state    499 was old state    502
 New state    500 was old state    499
 New state    501 was old state    500
 New state    502 was old state    503
 New state    503 was old state    505
 New state    505 was old state    506
 New state    506 was old state    501
 New state    507 was old state    508
 New state    508 was old state    509
 New state    509 was old state    511
 New state    511 was old state    514
 New state    512 was old state    527
 New state    513 was old state    512
 New state    514 was old state    513
 New state    517 was old state    518
 New state    518 was old state    517
 New state    519 was old state    520
 New state    520 was old state    521
 New state    521 was old state    519
 New state    522 was old state    524
 New state    524 was old state    522
 New state    527 was old state    529
 New state    529 was old state    530
 New state    530 was old state    533
 New state    533 was old state    536
 No map to state    535
 New state    536 was old state    535
 New state    538 was old state    540
 New state    539 was old state    538
 New state    540 was old state    539
 New state    544 was old state    545
 New state    545 was old state    546
 New state    546 was old state    544
 New state    550 was old state    551
 New state    551 was old state    552
 New state    552 was old state    556
 New state    553 was old state    554
 New state    554 was old state    555
 New state    555 was old state    553
 New state    556 was old state    550
 New state    558 was old state    560
 New state    559 was old state    558
 New state    560 was old state    559
 New state    564 was old state    566
 New state    565 was old state    564
 New state    566 was old state    565
 New state    567 was old state    568
 New state    568 was old state    567
 New state    570 was old state    572
 New state    572 was old state    573
 New state    573 was old state    574
 New state    574 was old state    570
 New state    576 was old state    578
 New state    578 was old state    576
 New state    582 was old state    585
 New state    583 was old state    584
 New state    584 was old state    583
 New state    585 was old state    582
 New state    594 was old state    595
 New state    595 was old state    594
 New state    596 was old state    597
 New state    597 was old state    596
 New state    598 was old state    600
 New state    600 was old state    598
 New state    605 was old state    606
 New state    606 was old state    607
 New state    607 was old state    605
 New state    610 was old state    613
 New state    611 was old state    614
 New state    613 was old state    610
 New state    614 was old state    617
 New state    615 was old state    616
 New state    616 was old state    615
 New state    617 was old state    620
 New state    618 was old state    611
 New state    619 was old state    618
 New state    620 was old state    619
 New state    623 was old state    624
 New state    624 was old state    623
 New state    627 was old state    629
 New state    628 was old state    630
 New state    629 was old state    631
 New state    630 was old state    628
 New state    631 was old state    627
 New state    644 was old state    645
 New state    645 was old state    644
 New state    646 was old state    647
 New state    647 was old state    646
 New state    648 was old state    649
 New state    649 was old state    648
 New state    653 was old state    654
 New state    654 was old state    653
 New state    656 was old state    657
 New state    657 was old state    656
 New state    658 was old state    659
 New state    659 was old state    658
 New state    661 was old state    662
 New state    662 was old state    661
 Excitation Energies [eV] at current iteration:
 Root      1 :     5.929976747861051
 Root      2 :     6.780282611260897
 Root      3 :     6.974877922101338
 Root      4 :     7.304424256508260
 Root      5 :     7.831519867523514
 Root      6 :     8.163566609479270
 Root      7 :     8.895180471614585
 Root      8 :     9.167044007428581
 Root      9 :     9.400068543352065
 Root     10 :     9.453261764821793
 Root     11 :     9.539071243875926
 Root     12 :     9.902508339485594
 Root     13 :     9.931522684908169
 Root     14 :    10.102377893365450
 Root     15 :    10.224186367949540
 Root     16 :    10.392101408326560
 Root     17 :    10.495241741363750
 Root     18 :    10.633098885830370
 Root     19 :    10.807378693903780
 Root     20 :    10.922430658897970
 Root     21 :    11.034862514964010
 Root     22 :    11.171059709088450
 Root     23 :    11.392922072070230
 Root     24 :    11.803185638019530
 Root     25 :    11.862975988548300
 Root     26 :    12.111622296429320
 Root     27 :    12.306313311216080
 Root     28 :    12.319824570856020
 Root     29 :    12.507773017640950
 Root     30 :    12.542442383579420
 Root     31 :    12.580097308401070
 Root     32 :    12.622280100113270
 Root     33 :    12.787628453825950
 Root     34 :    12.912008969093630
 Root     35 :    12.916583254495730
 Root     36 :    13.014017611426960
 Root     37 :    13.129209031382240
 Root     38 :    13.158559830542910
 Root     39 :    13.260920703052970
 Root     40 :    13.377915891414790
 Root     41 :    13.664243938575200
 Root     42 :    13.704729902672440
 Root     43 :    13.754733696709980
 Root     44 :    13.939769176234990
 Root     45 :    14.102128420143940
 Root     46 :    14.159269059580580
 Root     47 :    14.183864446614440
 Root     48 :    14.221750205267430
 Root     49 :    14.341486313371110
 Root     50 :    14.408684756829970
 Root     51 :    14.473854968992450
 Root     52 :    14.585108689237640
 Root     53 :    14.687428810344280
 Root     54 :    14.910880573658900
 Root     55 :    14.976556289653670
 Root     56 :    15.024186631388820
 Root     57 :    15.040265849396540
 Root     58 :    15.219825650007520
 Root     59 :    15.318031163455250
 Root     60 :    15.433104816334240
 Root     61 :    15.551114983656610
 Root     62 :    15.597798019411280
 Root     63 :    15.648050008484440
 Root     64 :    15.889320643180680
 Root     65 :    15.975323083887680
 Root     66 :    16.044424516315370
 Root     67 :    16.100442633706700
 Root     68 :    16.106722867870210
 Root     69 :    16.109280798691690
 Root     70 :    16.151633770308810
 Root     71 :    16.279443990303320
 Root     72 :    16.290556350019370
 Root     73 :    16.295204383227270
 Root     74 :    16.378369658012460
 Root     75 :    16.433334176802860
 Root     76 :    16.485352800201050
 Root     77 :    16.532434553354580
 Root     78 :    16.622499136173470
 Root     79 :    16.662143528500280
 Root     80 :    16.671002885229420
 Root     81 :    16.783243691617810
 Root     82 :    16.893193602555450
 Root     83 :    17.034542048161530
 Root     84 :    17.131619664431910
 Root     85 :    17.221141148967200
 Root     86 :    17.297070526621700
 Root     87 :    17.358778709225310
 Root     88 :    17.380987827083300
 Root     89 :    17.417674420685070
 Root     90 :    17.507975328252530
 Root     91 :    17.619185583407910
 Root     92 :    17.642028306798080
 Root     93 :    17.787861094175530
 Root     94 :    17.821431961753090
 Root     95 :    17.948564342309790
 Root     96 :    18.022657580813690
 Root     97 :    18.088221883655560
 Root     98 :    18.139308191218070
 Root     99 :    18.188229333490250
 Root    100 :    18.199820148824320
 Root    101 :    18.403686252304330
 Root    102 :    18.422294682334120
 Root    103 :    18.532975806834860
 Root    104 :    18.839762443758720
 Root    105 :    18.878733957932760
 Root    106 :    18.914912981112740
 Root    107 :    19.051804115526260
 Root    108 :    19.056657492055770
 Root    109 :    19.186108424456190
 Root    110 :    19.186408804322280
 Root    111 :    19.282529240161200
 Root    112 :    19.368441358738810
 Root    113 :    19.432106620710630
 Root    114 :    19.490725760484880
 Root    115 :    19.555369510216100
 Root    116 :    19.613276171799730
 Root    117 :    19.616956711188940
 Root    118 :    19.683659109897790
 Root    119 :    19.763369818637690
 Root    120 :    19.771685755393790
 Root    121 :    19.880818276744420
 Root    122 :    19.895533122990440
 Root    123 :    19.951181686433090
 Root    124 :    19.969628636342840
 Root    125 :    20.080384759635830
 Root    126 :    20.106614618818940
 Root    127 :    20.196039726326590
 Root    128 :    20.293837959855270
 Root    129 :    20.333310630319930
 Root    130 :    20.565531651588010
 Root    131 :    20.653280737506800
 Root    132 :    20.666448855600270
 Root    133 :    20.813266787398930
 Root    134 :    20.834956087803600
 Root    135 :    20.997147194325390
 Root    136 :    21.031278696089370
 Root    137 :    21.034977273380580
 Root    138 :    21.122014071816100
 Root    139 :    21.186847813374220
 Root    140 :    21.229393935785250
 Root    141 :    21.242624434987030
 Root    142 :    21.363308301655560
 Root    143 :    21.477207911490450
 Root    144 :    21.533472484634060
 Root    145 :    21.655179013759020
 Root    146 :    21.774657899777540
 Root    147 :    21.915175651757880
 Root    148 :    21.969135323993250
 Root    149 :    21.999284891775170
 Root    150 :    22.031038759515070
 Root    151 :    22.175607875933690
 Root    152 :    22.205532908057600
 Root    153 :    22.293671404415910
 Root    154 :    22.318196027875440
 Root    155 :    22.348579302223740
 Root    156 :    22.412280612403660
 Root    157 :    22.514970575593440
 Root    158 :    22.615498144785640
 Root    159 :    22.718225770621630
 Root    160 :    22.768182900708510
 Root    161 :    22.783246288876050
 Root    162 :    22.889703252035480
 Root    163 :    22.982489311450060
 Root    164 :    22.986840151790060
 Root    165 :    23.141342785980110
 Root    166 :    23.150666187115500
 Root    167 :    23.251095143767820
 Root    168 :    23.271920391915710
 Root    169 :    23.443420353982220
 Root    170 :    23.505276766360230
 Root    171 :    23.532541380719940
 Root    172 :    23.615180065307500
 Root    173 :    23.619523405863840
 Root    174 :    23.692712195372490
 Root    175 :    23.711098081242900
 Root    176 :    23.862900783640730
 Root    177 :    23.939763965888250
 Root    178 :    23.988352951323350
 Root    179 :    24.024018888396210
 Root    180 :    24.144304189669820
 Root    181 :    24.233408053420810
 Root    182 :    24.296652661147700
 Root    183 :    24.309396965915880
 Root    184 :    24.477034346921520
 Root    185 :    24.545550323095970
 Root    186 :    24.654257185163750
 Root    187 :    24.762276153037240
 Root    188 :    24.796174056293770
 Root    189 :    24.874110109098430
 Root    190 :    24.916841384117500
 Root    191 :    24.967195661499300
 Root    192 :    24.982238325778380
 Root    193 :    25.060118936061450
 Root    194 :    25.106967438383210
 Root    195 :    25.196936317683570
 Root    196 :    25.243225779823450
 Root    197 :    25.286184733707710
 Root    198 :    25.377475630397370
 Root    199 :    25.406844900412490
 Root    200 :    25.497391661556100
 Root    201 :    25.537925762319010
 Root    202 :    25.771615092675660
 Root    203 :    25.924110069446800
 Root    204 :    25.926501125669750
 Root    205 :    26.020632246002680
 Root    206 :    26.028586911609410
 Root    207 :    26.213272649635540
 Root    208 :    26.273942015077950
 Root    209 :    26.316944837277870
 Root    210 :    26.444740945974660
 Root    211 :    26.575940868650970
 Root    212 :    26.682605141290400
 Root    213 :    26.735702238111930
 Root    214 :    26.777751678125010
 Root    215 :    26.818284950316270
 Root    216 :    26.990414981417810
 Root    217 :    27.037524094930270
 Root    218 :    27.063805978298170
 Root    219 :    27.127586930487280
 Root    220 :    27.191788517176320
 Root    221 :    27.294138331914410
 Root    222 :    27.430219026470010
 Root    223 :    27.587386393261740
 Root    224 :    27.681534827767080
 Root    225 :    27.685675577755650
 Root    226 :    27.728341162566710
 Root    227 :    27.806264681267960
 Root    228 :    27.823699313914660
 Root    229 :    27.906740774503010
 Root    230 :    27.938928734141860
 Root    231 :    28.004537310378020
 Root    232 :    28.163237936832530
 Root    233 :    28.201849700514320
 Root    234 :    28.279606626521790
 Root    235 :    28.403808633475180
 Root    236 :    28.472202240027580
 Root    237 :    28.547446441295970
 Root    238 :    28.573704856990840
 Root    239 :    28.767539157901850
 Root    240 :    28.813050345900470
 Root    241 :    28.894456865697240
 Root    242 :    29.075704542983350
 Root    243 :    29.100522711902050
 Root    244 :    29.161998556961410
 Root    245 :    29.195742703886860
 Root    246 :    29.362780693675200
 Root    247 :    29.454797088710340
 Root    248 :    29.502806156208760
 Root    249 :    29.657270024334230
 Root    250 :    29.782707654495130
 Root    251 :    29.909141660227990
 Root    252 :    29.928124006435930
 Root    253 :    29.957164408756860
 Root    254 :    30.034276295677460
 Root    255 :    30.160759559625590
 Root    256 :    30.349746513121270
 Root    257 :    30.664161583491450
 Root    258 :    30.675551869615970
 Root    259 :    30.797219351959460
 Root    260 :    31.043026230376280
 Root    261 :    31.077498238514470
 Root    262 :    31.117383843807540
 Root    263 :    31.289086713902800
 Root    264 :    31.310749317666970
 Root    265 :    31.374207802746320
 Root    266 :    31.443819963581420
 Root    267 :    31.598848065960140
 Root    268 :    31.651969684861420
 Root    269 :    31.691122822998480
 Root    270 :    31.750303491591570
 Root    271 :    31.766264474957110
 Root    272 :    31.782439263950870
 Root    273 :    31.872290852756580
 Root    274 :    31.934383679320010
 Root    275 :    31.967848758431210
 Root    276 :    32.129062940212140
 Root    277 :    32.131727905619830
 Root    278 :    32.175910662002290
 Root    279 :    32.277363608601770
 Root    280 :    32.318260251636390
 Root    281 :    32.344153371507920
 Root    282 :    32.663452791179520
 Root    283 :    32.772384219732320
 Root    284 :    32.836232399565270
 Root    285 :    33.221702640318260
 Root    286 :    33.313005062135740
 Root    287 :    33.335786047175810
 Root    288 :    33.368542316670410
 Root    289 :    33.475284221559810
 Root    290 :    33.688478977626050
 Root    291 :    33.868387984657220
 Root    292 :    33.925425193364550
 Root    293 :    34.014358599900840
 Root    294 :    34.105257228345500
 Root    295 :    34.306021927341940
 Root    296 :    34.336195686568100
 Root    297 :    34.543559649558320
 Root    298 :    34.615007739085340
 Root    299 :    34.751418600958030
 Root    300 :    34.885817412415860
 Root    301 :    34.996260558143310
 Root    302 :    35.050303721664520
 Root    303 :    35.159174203338950
 Root    304 :    35.448128843210110
 Root    305 :    35.485436846756660
 Root    306 :    35.495408769911440
 Root    307 :    35.610336358289810
 Root    308 :    35.780549727196800
 Root    309 :    35.797630639563410
 Root    310 :    35.857270984268500
 Root    311 :    36.005086937879090
 Root    312 :    36.098299766495200
 Root    313 :    36.473897175610910
 Root    314 :    36.801503527983950
 Root    315 :    36.817423043333090
 Root    316 :    36.883218287900110
 Root    317 :    37.004710223623400
 Root    318 :    37.088554874890260
 Root    319 :    37.167247448568520
 Root    320 :    37.266008559598030
 Root    321 :    37.343505591173200
 Root    322 :    37.571117837352810
 Root    323 :    37.630868830039330
 Root    324 :    37.697078653213160
 Root    325 :    37.939416396420580
 Root    326 :    37.984870217762730
 Root    327 :    38.118539094673850
 Root    328 :    38.205203231434720
 Root    329 :    38.223940664062500
 Root    330 :    38.581247469915500
 Root    331 :    38.640869675513570
 Root    332 :    38.702610263612820
 Root    333 :    38.760844317632950
 Root    334 :    38.764110781855450
 Root    335 :    38.841317348247080
 Root    336 :    39.062910812652820
 Root    337 :    39.111940438607860
 Root    338 :    39.290430754912260
 Root    339 :    39.449718247754990
 Root    340 :    39.728520537011450
 Root    341 :    39.739673742411480
 Root    342 :    39.937354409026970
 Root    343 :    40.089684744588360
 Root    344 :    40.112414385496950
 Root    345 :    40.316343314099210
 Root    346 :    40.400113546409020
 Root    347 :    40.481118621804010
 Root    348 :    40.588617852361370
 Root    349 :    40.696131426111830
 Root    350 :    40.820402100817370
 Root    351 :    40.994596994282130
 Root    352 :    41.015666955613910
 Root    353 :    41.102218780243590
 Root    354 :    41.176394710194140
 Root    355 :    41.596338310981820
 Root    356 :    41.690153916681430
 Root    357 :    41.832809818214840
 Root    358 :    41.991422019805210
 Root    359 :    42.155977696481390
 Root    360 :    42.173143206111900
 Root    361 :    42.411576677120420
 Root    362 :    42.443500691079100
 Root    363 :    42.667944394816370
 Root    364 :    42.684832878202560
 Root    365 :    42.785333577062940
 Root    366 :    43.181101371063890
 Root    367 :    43.561712028434300
 Root    368 :    43.614229547079550
 Root    369 :    43.849329388420640
 Root    370 :    43.950234252643830
 Root    371 :    43.984085316037500
 Root    372 :    44.008853824940930
 Root    373 :    44.057936660684930
 Root    374 :    44.090656478265630
 Root    375 :    44.160239795225850
 Root    376 :    44.187388709909630
 Root    377 :    44.366801700931500
 Root    378 :    44.678433624218860
 Root    379 :    44.856322438790400
 Root    380 :    44.904280972738760
 Root    381 :    45.412468461832710
 Root    382 :    45.590295982379500
 Root    383 :    45.678719762248810
 Root    384 :    45.745656807889380
 Root    385 :    45.858692399694840
 Root    386 :    46.022783936951310
 Root    387 :    46.080537260562720
 Root    388 :    46.148409929601340
 Root    389 :    46.173346396256310
 Root    390 :    46.497645145162930
 Root    391 :    46.724096306100760
 Root    392 :    46.968657305757450
 Root    393 :    47.168331004679090
 Root    394 :    47.213962568826550
 Root    395 :    47.737729004099510
 Root    396 :    47.897603388802550
 Root    397 :    47.992721647905500
 Root    398 :    48.054570110191140
 Root    399 :    48.128285607139580
 Root    400 :    48.723844493042950
 Root    401 :    48.772104489888100
 Root    402 :    49.004274007004770
 Root    403 :    49.054488221208330
 Root    404 :    49.192518124190180
 Root    405 :    49.389651495955650
 Root    406 :    49.545000407454420
 Root    407 :    49.657607343211180
 Root    408 :    49.747723376281710
 Root    409 :    49.791270258578320
 Root    410 :    49.891103597289100
 Root    411 :    50.134887025950890
 Root    412 :    50.238310120411380
 Root    413 :    50.294915076909670
 Root    414 :    50.514983360230510
 Root    415 :    50.708855793683180
 Root    416 :    50.967311968402830
 Root    417 :    50.984102304070300
 Root    418 :    51.135276231577420
 Root    419 :    51.281096358917470
 Root    420 :    51.681931496019090
 Root    421 :    51.906341442298140
 Root    422 :    52.549296702427790
 Root    423 :    52.582875606603720
 Root    424 :    52.825038644867290
 Root    425 :    53.022861603639160
 Root    426 :    53.047792643770250
 Root    427 :    53.149904287085680
 Root    428 :    53.201803413294840
 Root    429 :    53.374039420857170
 Root    430 :    53.580343264596680
 Root    431 :    53.816257453277240
 Root    432 :    53.847250506529560
 Root    433 :    53.903312652288040
 Root    434 :    54.142293134230910
 Root    435 :    54.260784663016290
 Root    436 :    54.694474051000910
 Root    437 :    54.703354764355450
 Root    438 :    54.827547000232700
 Root    439 :    55.036551394998230
 Root    440 :    55.247361853726300
 Root    441 :    55.481547418481310
 Root    442 :    55.509789634164580
 Root    443 :    55.632648012089800
 Root    444 :    55.714370422684720
 Root    445 :    56.027682877714810
 Root    446 :    56.096086635803320
 Root    447 :    56.248435885484210
 Root    448 :    56.464877451154830
 Root    449 :    56.575103714864720
 Root    450 :    56.611712671888230
 Root    451 :    56.843267308607000
 Root    452 :    56.965070310945160
 Root    453 :    57.362304452937590
 Root    454 :    57.598868080795420
 Root    455 :    57.685408268217910
 Root    456 :    57.818482649761600
 Root    457 :    58.360980064509140
 Root    458 :    58.600220834179540
 Root    459 :    58.822408350121230
 Root    460 :    59.015756530574600
 Root    461 :    59.071800360270380
 Root    462 :    59.214183262126560
 Root    463 :    59.252961186825170
 Root    464 :    59.396436357360070
 Root    465 :    59.696551523426960
 Root    466 :    59.818027166602950
 Root    467 :    59.929415239383830
 Root    468 :    60.124291553258850
 Root    469 :    60.133002307668900
 Root    470 :    60.192705213368330
 Root    471 :    60.571328992162140
 Root    472 :    60.827886657521040
 Root    473 :    60.956555899982220
 Root    474 :    61.159714963215140
 Root    475 :    61.199639789573800
 Root    476 :    61.213371032806110
 Root    477 :    61.289945878834430
 Root    478 :    61.361319709496230
 Root    479 :    61.522724791246080
 Root    480 :    61.582437696938820
 Root    481 :    61.686988560086090
 Root    482 :    61.882175942738610
 Root    483 :    62.122738613906890
 Root    484 :    62.411388006984720
 Root    485 :    62.556137593650380
 Root    486 :    62.676220037673540
 Root    487 :    62.850151684747280
 Root    488 :    63.057019307155840
 Root    489 :    63.124463782604960
 Root    490 :    63.260355496249150
 Root    491 :    63.335493759474030
 Root    492 :    63.754890183937010
 Root    493 :    64.459061464117080
 Root    494 :    64.530596224121680
 Root    495 :    64.910890460442290
 Root    496 :    65.035442785687610
 Root    497 :    65.256265746812910
 Root    498 :    65.302071331343900
 Root    499 :    65.416114209862910
 Root    500 :    65.491807033116200
 Root    501 :    65.527309489192220
 Root    502 :    65.629653347647360
 Root    503 :    65.696552404380740
 Root    504 :    65.732534641687100
 Root    505 :    65.845332230059610
 Root    506 :    66.150709475082560
 Root    507 :    66.364880492054600
 Root    508 :    66.532837656075460
 Root    509 :    66.719012883701170
 Root    510 :    66.973933690083140
 Root    511 :    67.173822008562520
 Root    512 :    67.360517244926470
 Root    513 :    67.448725391720560
 Root    514 :    67.508541567024030
 Root    515 :    67.890294573502290
 Root    516 :    67.946256375846740
 Root    517 :    68.326387658770090
 Root    518 :    68.601864153886150
 Root    519 :    68.648554547202890
 Root    520 :    68.710738004413360
 Root    521 :    68.906454779868380
 Root    522 :    69.324519871477410
 Root    523 :    69.437146234179470
 Root    524 :    69.641402904754560
 Root    525 :    70.200752350477460
 Root    526 :    70.413468029579120
 Root    527 :    70.455588154680880
 Root    528 :    70.698513888425650
 Root    529 :    70.746138133865710
 Root    530 :    70.823688729474990
 Root    531 :    71.170759990030790
 Root    532 :    71.262959138526480
 Root    533 :    71.508868767450320
 Root    534 :    71.771848104991040
 Root    535 :    71.970438834680100
 Root    536 :    72.020591942827640
 Root    537 :    72.181348849461460
 Root    538 :    72.460368187457690
 Root    539 :    72.571157679485270
 Root    540 :    72.738340039299230
 Root    541 :    73.210820828918330
 Root    542 :    73.389122301970150
 Root    543 :    73.735073705921950
 Root    544 :    74.071899345309420
 Root    545 :    74.311872243504770
 Root    546 :    74.511444265819830
 Root    547 :    74.517463977453670
 Root    548 :    74.890221099530340
 Root    549 :    74.932434129505960
 Root    550 :    75.051638858313200
 Root    551 :    75.259049711905920
 Root    552 :    75.542596661863300
 Root    553 :    75.651327794020770
 Root    554 :    75.733130004269470
 Root    555 :    75.856969542544650
 Root    556 :    75.982196675932170
 Root    557 :    76.353163731191910
 Root    558 :    77.271324858091750
 Root    559 :    77.286461695764600
 Root    560 :    77.439337883292770
 Root    561 :    77.680408472522730
 Root    562 :    77.706725630019360
 Root    563 :    78.210696331140040
 Root    564 :    78.230798871165450
 Root    565 :    78.426987309559100
 Root    566 :    78.626031203469130
 Root    567 :    79.078030882122120
 Root    568 :    79.118766335492810
 Root    569 :    79.164259411601650
 Root    570 :    79.453422292445480
 Root    571 :    79.537106668983240
 Root    572 :    80.028264782246480
 Root    573 :    80.080861993397090
 Root    574 :    80.107860907356310
 Root    575 :    80.382306900909130
 Root    576 :    81.086997969529070
 Root    577 :    81.127019894774250
 Root    578 :    81.209872250005730
 Root    579 :    81.543962011040390
 Root    580 :    82.241566876718240
 Root    581 :    83.284989419903060
 Root    582 :    83.429101783432600
 Root    583 :    83.507855499134890
 Root    584 :    83.580362058435140
 Root    585 :    83.809673208964610
 Root    586 :    84.296625943523110
 Root    587 :    84.437200668995370
 Root    588 :    85.086734430388390
 Root    589 :    85.490635708684760
 Root    590 :    85.884487124937340
 Root    591 :    86.429714299603180
 Root    592 :    86.712919047664060
 Root    593 :    86.741256706733680
 Root    594 :    87.084845451763610
 Root    595 :    87.517830316706170
 Root    596 :    87.905996617210110
 Root    597 :    88.280370589892940
 Root    598 :    88.536798271480220
 Root    599 :    88.706637697081210
 Root    600 :    89.147352753953900
 Root    601 :    89.864311368272890
 Root    602 :    90.154082439917000
 Root    603 :    90.329817435986810
 Root    604 :    90.500780134596910
 Root    605 :    90.757081682389910
 Root    606 :    90.853968599611050
 Root    607 :    91.093702603971170
 Root    608 :    91.539584232253620
 Root    609 :    91.620648671635210
 Root    610 :    92.248380693322060
 Root    611 :    92.391320171534390
 Root    612 :    92.700292013558310
 Root    613 :    92.709400751199980
 Root    614 :    93.008889190725950
 Root    615 :    93.145049431527180
 Root    616 :    93.245008933900310
 Root    617 :    93.389591137571260
 Root    618 :    93.598357878867160
 Root    619 :    93.654608668680610
 Root    620 :    94.124317136897860
 Root    621 :    94.317036309899880
 Root    622 :    94.465668420288370
 Root    623 :    95.115025424438100
 Root    624 :    95.233488365942380
 Root    625 :    96.098150022837330
 Root    626 :    96.147715723301250
 Root    627 :    96.464677236647380
 Root    628 :    96.509802896827000
 Root    629 :    96.714359340509280
 Root    630 :    96.728643705673180
 Root    631 :    96.854921629791660
 Root    632 :    97.445097608254500
 Root    633 :    98.094976588365910
 Root    634 :    98.201846572166370
 Root    635 :    98.872693562381300
 Root    636 :    99.576043383514080
 Root    637 :   100.063628153321700
 Root    638 :   100.759857870568500
 Root    639 :   101.500648583900000
 Root    640 :   101.733534751648300
 Root    641 :   102.827303451039600
 Root    642 :   103.245727309026600
 Root    643 :   103.990031902033200
 Root    644 :   104.301915140823700
 Root    645 :   104.383924334279400
 Root    646 :   105.526625783205000
 Root    647 :   105.702411245170600
 Root    648 :   106.756676535795400
 Root    649 :   107.256311918369900
 Root    650 :   107.275956261314700
 Root    651 :   108.307075954979200
 Root    652 :   109.077800098412900
 Root    653 :   109.324364261389500
 Root    654 :   109.327830179947800
 Root    655 :   110.375683666609700
 Root    656 :   110.708686739401800
 Root    657 :   111.058082026041100
 Root    658 :   111.828197614575400
 Root    659 :   112.168783958596500
 Root    660 :   113.747072936788500
 Root    661 :   114.497818784378400
 Root    662 :   114.568028917584200
 Root    663 :   115.174612618350900
 Root    664 :   115.774938004479900
 Root    665 :   116.075012789674100
 Root    666 :   118.502216177477100
 Root    667 :   119.185457445264400
 Root    668 :   120.318687843861800
 Root    669 :   121.996811787239700
 Root    670 :   122.159987463730800
 Root    671 :   122.391231192483500
 Root    672 :   124.102791142413400
 Root    673 :   128.229339184869700
 Root    674 :   130.604000101047000
 Root    675 :   136.403487592325800
 Convergence achieved for final wavefunctions.
 ***********************************************************************
 Excited states from <AA,BB:AA,BB> singles matrix:
 ***********************************************************************
 
 1PDM for each excited state written to RWF  633
 Ground to excited state transition densities written to RWF  633
 Ground to excited state transition electric dipole moments (Au):
       state          X           Y           Z        Dip. S.      Osc.
         1         0.0000     -0.0000     -0.0723      0.0052      0.0008
         2         0.9676     -0.0447      0.0000      0.9382      0.1559
         3        -0.0000      0.0000     -0.0971      0.0094      0.0016
         4        -0.3644     -0.0799      0.0000      0.1392      0.0249
         5         0.0000     -0.0000      0.2981      0.0889      0.0171
         6         0.2810     -0.2681     -0.0000      0.1508      0.0302
         7         0.0000     -0.0000     -0.0939      0.0088      0.0019
         8         0.0000     -0.0000     -0.2040      0.0416      0.0093
         9        -0.5792     -0.2880      0.0000      0.4184      0.0964
        10         0.2424     -0.6620      0.0000      0.4970      0.1151
        11         0.0000      0.0000     -0.0345      0.0012      0.0003
        12        -0.2589      0.2056      0.0000      0.1093      0.0265
        13        -0.0000      0.0000      0.3311      0.1096      0.0267
        14         0.0000      0.0000      0.0888      0.0079      0.0020
        15        -0.0000     -0.0000      0.2880      0.0830      0.0208
        16        -0.1404     -0.0329     -0.0000      0.0208      0.0053
        17        -0.4214      0.3415     -0.0000      0.2942      0.0757
        18        -0.2052      0.3159     -0.0000      0.1419      0.0370
        19         0.0000      0.0000     -0.0372      0.0014      0.0004
        20        -0.0000     -0.0000     -0.3091      0.0955      0.0256
        21        -0.0000      0.0000      0.2212      0.0489      0.0132
        22        -0.8455      0.2030      0.0000      0.7561      0.2069
        23         0.4324      0.0958      0.0000      0.1962      0.0548
        24        -0.0000      0.0000     -0.1842      0.0339      0.0098
        25        -0.1041     -0.5238      0.0000      0.2851      0.0829
        26         0.3082      0.2223     -0.0000      0.1444      0.0428
        27        -0.3868     -0.4279     -0.0000      0.3327      0.1003
        28         0.0000      0.0000     -0.0485      0.0024      0.0007
        29        -0.0000      0.0000      0.0471      0.0022      0.0007
        30        -0.5191      0.1427      0.0000      0.2899      0.0891
        31         0.0000     -0.0000      0.0199      0.0004      0.0001
        32         0.0000     -0.0000     -0.1163      0.0135      0.0042
        33        -0.0000     -0.0000     -0.4934      0.2435      0.0763
        34         0.1929     -0.0885      0.0000      0.0450      0.0142
        35         0.0000     -0.0000      0.0131      0.0002      0.0001
        36        -0.1783     -0.0985      0.0000      0.0415      0.0132
        37        -0.0000     -0.0000      0.1768      0.0312      0.0101
        38         0.0838      0.0052     -0.0000      0.0070      0.0023
        39        -0.3722      0.1308      0.0000      0.1556      0.0506
        40         0.0816     -0.0061     -0.0000      0.0067      0.0022
        41        -0.0000     -0.0000      0.0052      0.0000      0.0000
        42         0.1095      0.1468     -0.0000      0.0336      0.0113
        43        -0.0000     -0.0000      0.0549      0.0030      0.0010
        44         0.1263      0.1867     -0.0000      0.0508      0.0174
        45         0.0000     -0.0000     -0.2350      0.0552      0.0191
        46         0.1162     -0.1899      0.0000      0.0496      0.0172
        47        -0.0000      0.0000     -0.4327      0.1872      0.0651
        48        -0.0996      0.0618     -0.0000      0.0137      0.0048
        49        -0.2105      0.3695      0.0000      0.1809      0.0635
        50        -0.0000      0.0000     -0.0382      0.0015      0.0005
        51         0.3197      0.5461     -0.0000      0.4005      0.1420
        52         0.0998      0.1157      0.0000      0.0233      0.0083
        53        -0.7836     -0.0714     -0.0000      0.6192      0.2228
        54        -0.0000      0.0000     -0.0275      0.0008      0.0003
        55        -0.0000      0.0000      0.0355      0.0013      0.0005
        56        -0.0302      0.2315     -0.0000      0.0545      0.0201
        57         0.0000     -0.0000     -0.1693      0.0287      0.0106
        58         0.6035      0.0871      0.0000      0.3718      0.1386
        59         0.0000     -0.0000     -0.4379      0.1918      0.0720
        60        -0.1177     -0.3629      0.0000      0.1455      0.0550
        61         0.0615      0.0528      0.0000      0.0066      0.0025
        62        -0.0000     -0.0000     -0.3990      0.1592      0.0608
        63         0.5084     -0.3421      0.0000      0.3754      0.1439
        64         0.3506     -0.2244     -0.0000      0.1733      0.0675
        65         0.1562      0.0209     -0.0000      0.0248      0.0097
        66         0.0000      0.0000      0.0401      0.0016      0.0006
        67        -0.0000     -0.0000     -0.3240      0.1050      0.0414
        68         0.0873      0.0935      0.0000      0.0164      0.0065
        69        -0.0329     -0.4289      0.0000      0.1850      0.0730
        70        -0.0000     -0.0000      0.6359      0.4044      0.1600
        71        -0.1660     -0.0604     -0.0000      0.0312      0.0124
        72         0.4793     -0.0663     -0.0000      0.2341      0.0935
        73        -0.0000      0.0000      0.0656      0.0043      0.0017
        74        -0.2146     -0.2477     -0.0000      0.1074      0.0431
        75         0.1023      0.0802     -0.0000      0.0169      0.0068
        76        -0.0000     -0.0000      0.0643      0.0041      0.0017
        77         0.2392      0.1484     -0.0000      0.0793      0.0321
        78         0.0000      0.0000     -0.0568      0.0032      0.0013
        79        -0.2226     -0.4243      0.0000      0.2296      0.0937
        80        -0.0000      0.0000      0.1000      0.0100      0.0041
        81        -0.0000     -0.0000      0.0185      0.0003      0.0001
        82         0.5439     -0.0998      0.0000      0.3058      0.1266
        83         0.0131     -0.3349     -0.0000      0.1123      0.0469
        84        -0.0000     -0.0000      0.4349      0.1891      0.0794
        85         0.0293     -0.1183     -0.0000      0.0149      0.0063
        86         0.3835      0.0298      0.0000      0.1479      0.0627
        87         0.0000      0.0000     -0.1075      0.0115      0.0049
        88        -0.1273     -0.0784     -0.0000      0.0224      0.0095
        89         0.0000      0.0000     -0.4078      0.1663      0.0710
        90         0.0379     -0.3499      0.0000      0.1238      0.0531
        91        -0.0000      0.0000      0.3002      0.0901      0.0389
        92         0.0000     -0.0000      0.1136      0.0129      0.0056
        93         0.1172      0.1807      0.0000      0.0464      0.0202
        94        -0.1033      0.4377      0.0000      0.2022      0.0883
        95        -0.0357      0.1567      0.0000      0.0258      0.0114
        96        -0.1794      0.0633     -0.0000      0.0362      0.0160
        97        -0.1181     -0.3865      0.0000      0.1633      0.0724
        98        -0.1683     -0.1585     -0.0000      0.0535      0.0238
        99         0.4006      0.1287      0.0000      0.1771      0.0789
       100        -0.0000     -0.0000      0.4587      0.2104      0.0938
       101         0.0000      0.0000     -0.1213      0.0147      0.0066
       102        -0.1536      0.0250      0.0000      0.0242      0.0109
       103        -0.0000     -0.0000     -0.0213      0.0005      0.0002
       104        -0.0000      0.0000     -0.0747      0.0056      0.0026
       105         0.0616     -0.1391     -0.0000      0.0231      0.0107
       106         0.3286      0.1681      0.0000      0.1362      0.0631
       107        -0.1522     -0.3725      0.0000      0.1620      0.0756
       108         0.0000      0.0000      0.2640      0.0697      0.0325
       109         0.3952     -0.0009     -0.0000      0.1562      0.0734
       110         0.0000      0.0000      0.3003      0.0902      0.0424
       111         0.0928     -0.0863      0.0000      0.0161      0.0076
       112        -0.0000     -0.0000     -0.4134      0.1709      0.0811
       113        -0.0220      0.0957      0.0000      0.0096      0.0046
       114        -0.0000      0.0000     -0.2014      0.0406      0.0194
       115        -0.0000     -0.0000      0.0257      0.0007      0.0003
       116        -0.0000     -0.0000     -0.1944      0.0378      0.0182
       117         0.2186      0.4957     -0.0000      0.2935      0.1411
       118         0.3407      0.1234      0.0000      0.1313      0.0633
       119        -0.0000     -0.0000     -0.0149      0.0002      0.0001
       120        -0.3275     -0.3453     -0.0000      0.2265      0.1097
       121         0.0645      0.1022     -0.0000      0.0146      0.0071
       122         0.0000     -0.0000      0.0915      0.0084      0.0041
       123        -0.1408     -0.0635     -0.0000      0.0239      0.0117
[...]
     13   0.000000D+00 -0.130348D+00 -0.443648D-01 -0.717558D-01  0.000000D+00
     14   0.000000D+00  0.636584D+00 -0.189434D+00  0.375254D+00  0.000000D+00
     15   0.106103D+00  0.000000D+00  0.000000D+00  0.000000D+00 -0.348403D+00
     16   0.162227D-01  0.000000D+00  0.000000D+00  0.000000D+00  0.985751D-01
               606           607           608           609           610 
      1  -0.166364D+03 -0.166356D+03 -0.166339D+03 -0.166336D+03 -0.166313D+03
      2   0.198520D-01 -0.277348D-02 -0.280539D-01  0.000000D+00  0.000000D+00
      3   0.291173D-01  0.740142D-01 -0.592944D-01  0.000000D+00  0.000000D+00
      4   0.000000D+00  0.000000D+00  0.000000D+00  0.108153D+00  0.149200D-01
      5  -0.616659D-01 -0.102338D-01  0.887265D-01  0.000000D+00  0.000000D+00
      6  -0.926198D-01 -0.211344D+00  0.158472D+00  0.000000D+00  0.000000D+00
      7   0.000000D+00  0.000000D+00  0.000000D+00 -0.320063D+00 -0.244332D-01
      8   0.000000D+00  0.000000D+00  0.000000D+00  0.841724D-01 -0.216873D-01
      9   0.000000D+00  0.000000D+00  0.000000D+00 -0.308051D+00 -0.540665D-01
     10   0.378798D+00 -0.962520D-01 -0.856486D+00  0.000000D+00  0.000000D+00
     11  -0.931512D+00 -0.105172D+01 -0.102840D+01  0.000000D+00  0.000000D+00
     12  -0.222724D+00 -0.644599D+00 -0.575058D+00  0.000000D+00  0.000000D+00
     13   0.845288D-01  0.526540D-02  0.227237D-01  0.000000D+00  0.000000D+00
     14   0.731353D-01 -0.642406D+00 -0.937983D+00  0.000000D+00  0.000000D+00
     15   0.000000D+00  0.000000D+00  0.000000D+00  0.221774D+00  0.233471D+00
     16   0.000000D+00  0.000000D+00  0.000000D+00  0.148468D+00 -0.103916D+00
               611           612           613           614           615 
      1  -0.166308D+03 -0.166297D+03 -0.166296D+03 -0.166285D+03 -0.166280D+03
      2   0.000000D+00 -0.168763D+00  0.000000D+00 -0.150698D-01 -0.266200D-01
      3   0.000000D+00 -0.998388D-01  0.000000D+00  0.372231D-01  0.588468D-01
      4  -0.268388D-01  0.000000D+00 -0.676050D-01  0.000000D+00  0.000000D+00
      5   0.000000D+00  0.527271D+00  0.000000D+00  0.499461D-01  0.125676D+00
      6   0.000000D+00  0.303011D+00  0.000000D+00 -0.118228D+00 -0.179166D+00
      7   0.735048D-01  0.000000D+00  0.185881D+00  0.000000D+00  0.000000D+00
      8   0.109745D+00  0.000000D+00  0.267795D+00  0.000000D+00  0.000000D+00
      9   0.296550D+00  0.000000D+00  0.135410D+00  0.000000D+00  0.000000D+00
     10   0.000000D+00 -0.213227D+00  0.000000D+00 -0.457252D+00  0.127093D+00
     11   0.000000D+00 -0.193138D+01  0.000000D+00  0.756789D+00 -0.213038D+00
     12   0.000000D+00 -0.262719D+00  0.000000D+00 -0.325250D+00  0.527669D+00
     13   0.000000D+00 -0.923474D-01  0.000000D+00  0.662260D-01  0.303801D+00
     14   0.000000D+00 -0.530950D+00  0.000000D+00  0.663587D+00  0.106291D+00
     15  -0.505687D+00  0.000000D+00 -0.101318D+00  0.000000D+00  0.000000D+00
     16   0.147050D+00  0.000000D+00  0.534330D+00  0.000000D+00  0.000000D+00
               616           617           618           619           620 
      1  -0.166277D+03 -0.166271D+03 -0.166264D+03 -0.166262D+03 -0.166244D+03
      2   0.000000D+00  0.236794D-01 -0.150967D+00  0.000000D+00  0.000000D+00
      3   0.000000D+00 -0.219790D+00  0.189785D+00  0.000000D+00  0.000000D+00
      4  -0.176887D+00  0.000000D+00  0.000000D+00 -0.548249D-01 -0.432647D-01
      5   0.000000D+00 -0.628365D-01  0.456676D+00  0.000000D+00  0.000000D+00
      6   0.000000D+00  0.662293D+00 -0.571639D+00  0.000000D+00  0.000000D+00
      7   0.502797D+00  0.000000D+00  0.000000D+00  0.162314D+00  0.113218D+00
      8  -0.308952D+00  0.000000D+00  0.000000D+00 -0.212837D+00 -0.188061D+00
      9   0.757962D+00  0.000000D+00  0.000000D+00  0.348261D+00  0.585084D+00
     10   0.000000D+00 -0.495307D+00  0.132041D+01  0.000000D+00  0.000000D+00
     11   0.000000D+00  0.856779D+00 -0.995536D+00  0.000000D+00  0.000000D+00
     12   0.000000D+00 -0.811402D+00  0.942209D+00  0.000000D+00  0.000000D+00
     13   0.000000D+00  0.350669D+00 -0.648329D-01  0.000000D+00  0.000000D+00
     14   0.000000D+00  0.178681D+00  0.118024D+01  0.000000D+00  0.000000D+00
     15  -0.509768D+00  0.000000D+00  0.000000D+00 -0.478422D+00 -0.681893D+00
     16  -0.505799D+00  0.000000D+00  0.000000D+00 -0.334583D+00 -0.280172D+00
               621           622           623           624           625 
      1  -0.166237D+03 -0.166232D+03 -0.166208D+03 -0.166203D+03 -0.166172D+03
      2  -0.810321D-01  0.000000D+00  0.000000D+00  0.478064D-01  0.000000D+00
      3  -0.133610D+00  0.000000D+00  0.000000D+00  0.838797D-01  0.000000D+00
      4   0.000000D+00  0.901793D-01 -0.642463D-01  0.000000D+00 -0.170966D+00
      5   0.245809D+00  0.000000D+00  0.000000D+00 -0.139609D+00  0.000000D+00
      6   0.402771D+00  0.000000D+00  0.000000D+00 -0.264981D+00  0.000000D+00
      7   0.000000D+00 -0.259094D+00  0.184129D+00  0.000000D+00  0.508209D+00
      8   0.000000D+00  0.108473D-01  0.101830D+00  0.000000D+00 -0.365768D+00
      9   0.000000D+00 -0.395854D+00  0.138690D+00  0.000000D+00  0.908358D+00
     10  -0.731583D+00  0.000000D+00  0.000000D+00  0.477176D+00  0.000000D+00
     11  -0.984523D+00  0.000000D+00  0.000000D+00 -0.130636D+00  0.000000D+00
     12  -0.862724D+00  0.000000D+00  0.000000D+00  0.466366D+00  0.000000D+00
     13  -0.851607D-01  0.000000D+00  0.000000D+00  0.518325D-01  0.000000D+00
     14  -0.141713D+01  0.000000D+00  0.000000D+00  0.661929D+00  0.000000D+00
     15   0.000000D+00  0.296125D+00 -0.127867D+00  0.000000D+00 -0.775270D+00
     16   0.000000D+00  0.596780D-02  0.109633D+00  0.000000D+00 -0.594710D+00
               626           627           628           629           630 
      1  -0.166170D+03 -0.166158D+03 -0.166157D+03 -0.166149D+03 -0.166149D+03
      2   0.130415D+00  0.000000D+00 -0.166680D-01  0.103757D-01  0.000000D+00
      3  -0.553140D-01  0.000000D+00  0.210307D-01  0.373398D-01  0.000000D+00
      4   0.000000D+00  0.106937D+00  0.000000D+00  0.000000D+00 -0.212126D-01
      5  -0.425183D+00  0.000000D+00  0.443174D-01 -0.360093D-01  0.000000D+00
      6   0.164581D+00  0.000000D+00 -0.377649D-01 -0.913488D-01  0.000000D+00
      7   0.000000D+00 -0.323617D+00  0.000000D+00  0.000000D+00  0.730692D-01
      8   0.000000D+00 -0.742031D-01  0.000000D+00  0.000000D+00  0.452861D+00
      9   0.000000D+00 -0.494923D+00  0.000000D+00  0.000000D+00 -0.358749D+00
     10  -0.186232D+00  0.000000D+00  0.474368D+00  0.239861D-01  0.000000D+00
     11   0.166038D+01  0.000000D+00 -0.866927D+00 -0.680477D+00  0.000000D+00
     12   0.339000D-01  0.000000D+00  0.142210D+00  0.468011D-01  0.000000D+00
     13   0.244346D-01  0.000000D+00 -0.354993D-01  0.147722D-01  0.000000D+00
     14   0.346244D+00  0.000000D+00  0.827642D-02 -0.174509D+00  0.000000D+00
     15   0.000000D+00  0.599275D+00  0.000000D+00  0.000000D+00  0.339932D+00
     16   0.000000D+00 -0.105350D+00  0.000000D+00  0.000000D+00  0.752569D+00
               631           632           633           634           635 
      1  -0.166144D+03 -0.166122D+03 -0.166098D+03 -0.166094D+03 -0.166070D+03
      2   0.185412D-01  0.231928D-01  0.000000D+00  0.173081D+00  0.259677D-01
      3   0.549020D-01  0.958570D-01  0.000000D+00 -0.888148D-01 -0.709186D-01
      4   0.000000D+00  0.000000D+00  0.154294D+00  0.000000D+00  0.000000D+00
      5  -0.585368D-01 -0.643425D-01  0.000000D+00 -0.548552D+00 -0.659735D-01
      6  -0.155611D+00 -0.298565D+00  0.000000D+00  0.257128D+00  0.211778D+00
      7   0.000000D+00  0.000000D+00 -0.466963D+00  0.000000D+00  0.000000D+00
      8   0.000000D+00  0.000000D+00  0.528174D+00  0.000000D+00  0.000000D+00
      9   0.000000D+00  0.000000D+00 -0.107630D+01  0.000000D+00  0.000000D+00
     10   0.578517D-01  0.233315D+00  0.000000D+00 -0.956947D-01  0.593996D-01
     11  -0.579066D+00 -0.120630D+00  0.000000D+00  0.509024D+00 -0.850913D+00
     12   0.960536D-01  0.713867D-01  0.000000D+00  0.544634D+00 -0.858118D-01
     13  -0.853358D-01  0.146128D+00  0.000000D+00 -0.121262D+00 -0.970956D-01
     14   0.214402D+00  0.306850D+00  0.000000D+00 -0.453506D+00 -0.158001D+00
     15   0.000000D+00  0.000000D+00  0.111345D+01  0.000000D+00  0.000000D+00
     16   0.000000D+00  0.000000D+00  0.788637D+00  0.000000D+00  0.000000D+00
               636           637           638           639           640 
      1  -0.166044D+03 -0.166026D+03 -0.166000D+03 -0.165973D+03 -0.165965D+03
      2  -0.840803D-02  0.000000D+00  0.549043D-01  0.000000D+00  0.944311D-02
      3   0.334254D-01  0.000000D+00 -0.487941D-01  0.000000D+00 -0.397049D-01
      4   0.000000D+00  0.365264D-01  0.000000D+00  0.316406D-01  0.000000D+00
      5   0.278002D-01  0.000000D+00 -0.186689D+00  0.000000D+00 -0.311575D-01
      6  -0.113142D+00  0.000000D+00  0.156428D+00  0.000000D+00  0.123095D+00
      7   0.000000D+00 -0.116647D+00  0.000000D+00 -0.932499D-01  0.000000D+00
      8   0.000000D+00  0.404682D-01  0.000000D+00  0.587735D-01  0.000000D+00
      9   0.000000D+00 -0.254790D+00  0.000000D+00 -0.143049D+00  0.000000D+00
     10   0.640505D-01  0.000000D+00 -0.482264D+00  0.000000D+00 -0.169903D+00
     11  -0.325947D+00  0.000000D+00  0.639133D+00  0.000000D+00 -0.868957D+00
     12   0.957079D-01  0.000000D+00 -0.154940D+01  0.000000D+00 -0.100822D+01
     13   0.133294D+00  0.000000D+00  0.745562D-01  0.000000D+00  0.249451D+00
     14   0.769703D-01  0.000000D+00 -0.733443D+00  0.000000D+00 -0.722237D-02
     15   0.000000D+00  0.363881D+00  0.000000D+00  0.195367D+00  0.000000D+00
     16   0.000000D+00  0.299051D+00  0.000000D+00 -0.202555D+00  0.000000D+00
               641           642           643           644           645 
      1  -0.165924D+03 -0.165909D+03 -0.165882D+03 -0.165870D+03 -0.165867D+03
      2  -0.752671D-01  0.000000D+00  0.000000D+00  0.559821D-01  0.000000D+00
      3  -0.856324D-01  0.000000D+00  0.000000D+00  0.673748D-01  0.000000D+00
      4   0.000000D+00 -0.142620D-01 -0.755639D-02  0.000000D+00 -0.425932D-01
      5   0.233572D+00  0.000000D+00  0.000000D+00 -0.215130D+00  0.000000D+00
      6   0.279190D+00  0.000000D+00  0.000000D+00 -0.228477D+00  0.000000D+00
      7   0.000000D+00  0.429584D-01  0.385129D-02  0.000000D+00  0.128044D+00
      8   0.000000D+00  0.102381D+00  0.111391D+00  0.000000D+00 -0.505318D-01
      9   0.000000D+00 -0.680876D-01 -0.865758D-01  0.000000D+00  0.176630D+00
     10   0.219260D+00  0.000000D+00  0.000000D+00  0.255803D+00  0.000000D+00
     11   0.127644D+00  0.000000D+00  0.000000D+00 -0.255524D+00  0.000000D+00
     12   0.184786D-01  0.000000D+00  0.000000D+00  0.792984D+00  0.000000D+00
     13  -0.983714D-01  0.000000D+00  0.000000D+00 -0.165255D+00  0.000000D+00
     14   0.939483D-01  0.000000D+00  0.000000D+00  0.529264D+00  0.000000D+00
     15   0.000000D+00  0.603155D-01 -0.486892D-02  0.000000D+00 -0.341141D+00
     16   0.000000D+00 -0.351752D-01  0.135969D+00  0.000000D+00 -0.124555D-01
               646           647           648           649           650 
      1  -0.165825D+03 -0.165819D+03 -0.165780D+03 -0.165762D+03 -0.165761D+03
      2   0.249210D-01 -0.155962D-01 -0.851830D-01  0.000000D+00 -0.826530D-02
      3  -0.635414D-01 -0.385624D-01 -0.596173D-01  0.000000D+00  0.897148D-01
      4   0.000000D+00  0.000000D+00  0.000000D+00  0.234061D+00  0.000000D+00
      5  -0.704279D-01  0.541188D-01  0.300898D+00  0.000000D+00  0.244416D-01
      6   0.210784D+00  0.149498D+00  0.229455D+00  0.000000D+00 -0.330314D+00
      7   0.000000D+00  0.000000D+00  0.000000D+00 -0.807180D+00  0.000000D+00
      8   0.000000D+00  0.000000D+00  0.000000D+00  0.347951D+00  0.000000D+00
      9   0.000000D+00  0.000000D+00  0.000000D+00 -0.140800D+01  0.000000D+00
     10  -0.215847D+00 -0.109036D+01 -0.656792D+00  0.000000D+00 -0.128983D+00
     11   0.141209D-01  0.352050D+00 -0.255915D+00  0.000000D+00  0.927923D+00
     12  -0.241776D-01 -0.607974D+00 -0.307982D+00  0.000000D+00  0.164854D+00
     13  -0.181513D+00  0.166958D+00  0.288876D-01  0.000000D+00 -0.337432D-01
     14  -0.540580D-01 -0.616241D+00 -0.133591D+00  0.000000D+00  0.314075D+00
     15   0.000000D+00  0.000000D+00  0.000000D+00  0.133626D+01  0.000000D+00
     16   0.000000D+00  0.000000D+00  0.000000D+00  0.482278D+00  0.000000D+00
               651           652           653           654           655 
      1  -0.165723D+03 -0.165695D+03 -0.165686D+03 -0.165686D+03 -0.165647D+03
      2  -0.662448D-02 -0.395950D-01 -0.493387D-02  0.000000D+00  0.000000D+00
      3  -0.187185D-01  0.313835D-01 -0.153091D-01  0.000000D+00  0.000000D+00
      4   0.000000D+00  0.000000D+00  0.000000D+00 -0.283481D-01  0.430206D-01
      5   0.481461D-01  0.125729D+00  0.865113D-02  0.000000D+00  0.000000D+00
      6   0.435943D-01 -0.113791D+00  0.605289D-01  0.000000D+00  0.000000D+00
      7   0.000000D+00  0.000000D+00  0.000000D+00  0.100821D+00 -0.153137D+00
      8   0.000000D+00  0.000000D+00  0.000000D+00 -0.815970D-01  0.111533D+00
      9   0.000000D+00  0.000000D+00  0.000000D+00  0.218962D+00 -0.309690D+00
     10   0.245954D+00  0.450312D+00  0.894131D-01  0.000000D+00  0.000000D+00
     11  -0.168710D+00 -0.137262D-01 -0.351314D+00  0.000000D+00  0.000000D+00
     12  -0.804897D-01  0.549909D-01  0.192425D+00  0.000000D+00  0.000000D+00
     13   0.124938D-01  0.115619D+00 -0.162436D+00  0.000000D+00  0.000000D+00
     14   0.492388D+00  0.291148D+00 -0.582686D+00  0.000000D+00  0.000000D+00
     15   0.000000D+00  0.000000D+00  0.000000D+00 -0.172040D+00  0.660979D+00
     16   0.000000D+00  0.000000D+00  0.000000D+00  0.353378D+00  0.168377D+00
               656           657           658           659           660 
      1  -0.165635D+03 -0.165622D+03 -0.165594D+03 -0.165581D+03 -0.165523D+03
      2  -0.865296D-01  0.000000D+00 -0.115447D-01  0.271405D-01 -0.970903D-01
      3   0.266315D-01  0.000000D+00 -0.840240D-01 -0.211774D-01 -0.264088D-01
      4   0.000000D+00  0.190884D+00  0.000000D+00  0.000000D+00  0.000000D+00
      5   0.309727D+00  0.000000D+00  0.581905D-01 -0.974704D-01  0.366309D+00
      6  -0.800892D-01  0.000000D+00  0.313521D+00  0.648847D-01  0.905247D-01
      7   0.000000D+00 -0.651894D+00  0.000000D+00  0.000000D+00  0.000000D+00
      8   0.000000D+00  0.655588D+00  0.000000D+00  0.000000D+00  0.000000D+00
      9   0.000000D+00 -0.144153D+01  0.000000D+00  0.000000D+00  0.000000D+00
     10   0.448704D+00  0.000000D+00 -0.185346D+00  0.274563D-01  0.692208D-01
     11  -0.785506D+00  0.000000D+00 -0.525851D+00  0.132528D+00 -0.994008D+00
     12   0.757390D-01  0.000000D+00  0.170512D+00  0.161019D+00  0.329148D+00
     13  -0.171183D+00  0.000000D+00  0.159143D+00  0.233681D-01 -0.121759D+00
     14   0.106506D-01  0.000000D+00 -0.444211D+00  0.584304D-01 -0.182766D+00
     15   0.000000D+00  0.137497D+01  0.000000D+00  0.000000D+00  0.000000D+00
     16   0.000000D+00  0.927994D+00  0.000000D+00  0.000000D+00  0.000000D+00
               661           662           663           664           665 
      1  -0.165496D+03 -0.165493D+03 -0.165471D+03 -0.165449D+03 -0.165438D+03
      2   0.000000D+00  0.608470D-02 -0.138767D+00  0.458021D-01  0.105956D+00
      3   0.000000D+00 -0.224882D-01 -0.223925D-01  0.113714D-01  0.254633D-01
      4  -0.265656D-01  0.000000D+00  0.000000D+00  0.000000D+00  0.000000D+00
      5   0.000000D+00 -0.139844D-01  0.535580D+00 -0.176666D+00 -0.450169D+00
      6   0.000000D+00  0.610758D-01  0.792997D-01 -0.476173D-01 -0.123725D+00
      7   0.114501D+00  0.000000D+00  0.000000D+00  0.000000D+00  0.000000D+00
      8  -0.153033D+00  0.000000D+00  0.000000D+00  0.000000D+00  0.000000D+00
      9   0.325174D+00  0.000000D+00  0.000000D+00  0.000000D+00  0.000000D+00
     10   0.000000D+00  0.146855D+00  0.589420D-01 -0.178063D+00  0.225884D+00
     11   0.000000D+00  0.568016D-01 -0.114756D+01  0.137863D+00  0.163241D+01
     12   0.000000D+00  0.183195D+00 -0.300909D+00  0.574967D-01  0.176252D-01
     13   0.000000D+00 -0.655730D-01 -0.392686D-01 -0.753680D-01  0.670580D-02
     14   0.000000D+00  0.106201D+00 -0.757791D-01  0.140136D+00  0.557189D+00
     15  -0.143946D+00  0.000000D+00  0.000000D+00  0.000000D+00  0.000000D+00
     16  -0.244115D+00  0.000000D+00  0.000000D+00  0.000000D+00  0.000000D+00
               666           667           668           669           670 
      1  -0.165348D+03 -0.165323D+03 -0.165282D+03 -0.165220D+03 -0.165214D+03
      2   0.000000D+00  0.111370D+00 -0.120465D+00  0.372483D-01  0.362809D-02
      3   0.000000D+00 -0.880837D-01 -0.649147D-01 -0.909459D-01 -0.671540D-01
      4  -0.472822D-01  0.000000D+00  0.000000D+00  0.000000D+00  0.000000D+00
      5   0.000000D+00 -0.425071D+00  0.492283D+00 -0.126124D+00 -0.257521D-01
      6   0.000000D+00  0.352025D+00  0.284636D+00  0.363505D+00  0.269102D+00
      7   0.202232D+00  0.000000D+00  0.000000D+00  0.000000D+00  0.000000D+00
      8  -0.179723D-01  0.000000D+00  0.000000D+00  0.000000D+00  0.000000D+00
      9   0.250301D+00  0.000000D+00  0.000000D+00  0.000000D+00  0.000000D+00
     10   0.000000D+00 -0.858010D+00  0.246447D-01 -0.723670D+00 -0.689419D+00
     11   0.000000D+00  0.147644D+01 -0.208043D+01  0.571747D+00  0.749208D+00
     12   0.000000D+00 -0.551726D+00  0.709898D-01 -0.243870D+00 -0.197226D+00
     13   0.000000D+00  0.119618D+00 -0.751288D-01 -0.211739D-01 -0.530027D-02
     14   0.000000D+00 -0.765696D-01 -0.890177D+00 -0.277635D+00 -0.669776D-01
     15  -0.241323D-01  0.000000D+00  0.000000D+00  0.000000D+00  0.000000D+00
     16  -0.220437D-01  0.000000D+00  0.000000D+00  0.000000D+00  0.000000D+00
               671           672           673           674           675 
      1  -0.165205D+03 -0.165143D+03 -0.164991D+03 -0.164904D+03 -0.164691D+03
      2   0.878833D-02  0.152102D-01 -0.260570D-01  0.162375D-01  0.161692D-01
      3  -0.429402D-01  0.787023D-01  0.176563D-01 -0.743923D-02 -0.244840D-01
      4   0.000000D+00  0.000000D+00  0.000000D+00  0.000000D+00  0.000000D+00
      5  -0.147989D-01 -0.932425D-01  0.160115D+00 -0.612639D-01  0.586224D-02
      6   0.169514D+00 -0.348092D+00 -0.198492D-01  0.304525D-01  0.142645D+00
      7   0.000000D+00  0.000000D+00  0.000000D+00  0.000000D+00  0.000000D+00
      8   0.000000D+00  0.000000D+00  0.000000D+00  0.000000D+00  0.000000D+00
      9   0.000000D+00  0.000000D+00  0.000000D+00  0.000000D+00  0.000000D+00
     10  -0.416800D+00  0.643346D+00  0.182583D+00 -0.110155D+00 -0.233055D+00
     11  -0.956197D-01  0.134688D+00 -0.441003D+00 -0.249075D-01 -0.236220D-01
     12  -0.549750D+00  0.555271D+00  0.162946D+00 -0.483359D+00 -0.152771D+00
     13   0.185637D+00 -0.410637D-01 -0.222833D+00  0.286874D-01  0.982492D-01
     14  -0.362965D+00  0.741544D+00 -0.710680D-01 -0.260692D+00 -0.540122D-01
     15   0.000000D+00  0.000000D+00  0.000000D+00  0.000000D+00  0.000000D+00
     16   0.000000D+00  0.000000D+00  0.000000D+00  0.000000D+00  0.000000D+00
 Unable to Open any file for archive entry.
 1\1\GINC-HEL12\SP\RTPSSh TD-FC\Gen\C1H3N1O1\SABYASACHI\21-Mar-2022\0\\
 #P TD(Nstates=10000) tpssh/Gen SCF(maxcycles=100) Int(Grid=ultrafine)\
 \xGDB7_00001_tier4.com\\0,1\O,0,-1.028621,-0.395177,0.\N,0,0.,0.526228
 ,0.\C,0,1.132746,-0.030907,0.\H,0,-1.816572,0.151791,0.\H,0,1.994262,0
 .623439,0.\H,0,1.254802,-1.111965,0.\\Version=EM64L-G16RevC.01\State=1
 -A'\HF=-169.7032485\RMSD=2.535e-09\PG=CS [SG(C1H3N1O1)]\\@
 The archive entry for this job was punched.


 NOTHING MAKES A PERSON MORE PRODUCTIVE THAN THE LAST MINUTE.
 Job cpu time:       0 days  0 hours 14 minutes 15.7 seconds.
 Elapsed time:       0 days  0 hours  1 minutes 47.2 seconds.
 File lengths (MBytes):  RWF=    584 Int=      0 D2E=      0 Chk=    127 Scr=      1
 Normal termination of Gaussian 16 at Mon Mar 21 20:00:17 2022.
