 Entering Gaussian System, Link 0=g16
 Input=000008.com
 Output=000008.log
 Initial command:
 /home/sabyasachi/g16/l1.exe "/scratch/sabyasachi/PBS_7976076.helios/Gau-154753.inp" -scrdir="/scratch/sabyasachi/PBS_7976076.helios/"
 Entering Link 1 = /home/sabyasachi/g16/l1.exe PID=    154754.
  
 Copyright (c) 1988-2019, Gaussian, Inc.  All Rights Reserved.
  
 This is part of the Gaussian(R) 16 program.  It is based on
 the Gaussian(R) 09 system (copyright 2009, Gaussian, Inc.),
 the Gaussian(R) 03 system (copyright 2003, Gaussian, Inc.),
 the Gaussian(R) 98 system (copyright 1998, Gaussian, Inc.),
 the Gaussian(R) 94 system (copyright 1995, Gaussian, Inc.),
 the Gaussian 92(TM) system (copyright 1992, Gaussian, Inc.),
 the Gaussian 90(TM) system (copyright 1990, Gaussian, Inc.),
 the Gaussian 88(TM) system (copyright 1988, Gaussian, Inc.),
 the Gaussian 86(TM) system (copyright 1986, Carnegie Mellon
 University), and the Gaussian 82(TM) system (copyright 1983,
 Carnegie Mellon University). Gaussian is a federally registered
 trademark of Gaussian, Inc.
  
 This software contains proprietary and confidential information,
 including trade secrets, belonging to Gaussian, Inc.
  
 This software is provided under written license and may be
 used, copied, transmitted, or stored only in accord with that
 written license.
  
 The following legend is applicable only to US Government
 contracts under FAR:
  
                    RESTRICTED RIGHTS LEGEND
  
 Use, reproduction and disclosure by the US Government is
 subject to restrictions as set forth in subparagraphs (a)
 and (c) of the Commercial Computer Software - Restricted
 Rights clause in FAR 52.227-19.
  
 Gaussian, Inc.
 340 Quinnipiac St., Bldg. 40, Wallingford CT 06492
  
  
 ---------------------------------------------------------------
 Warning -- This program may not be used in any manner that
 competes with the business of Gaussian, Inc. or will provide
 assistance to any competitor of Gaussian, Inc.  The licensee
 of this program is prohibited from giving any competitor of
 Gaussian, Inc. access to this program.  By using this program,
 the user acknowledges that Gaussian, Inc. is engaged in the
 business of creating and licensing software in the field of
 computational chemistry and represents and warrants to the
 licensee that it is not a competitor of Gaussian, Inc. and that
 it will not use this program in any manner prohibited above.
 ---------------------------------------------------------------
  

 Cite this work as:
 Gaussian 16, Revision C.01,
 M. J. Frisch, G. W. Trucks, H. B. Schlegel, G. E. Scuseria, 
 M. A. Robb, J. R. Cheeseman, G. Scalmani, V. Barone, 
 G. A. Petersson, H. Nakatsuji, X. Li, M. Caricato, A. V. Marenich, 
 J. Bloino, B. G. Janesko, R. Gomperts, B. Mennucci, H. P. Hratchian, 
 J. V. Ortiz, A. F. Izmaylov, J. L. Sonnenberg, D. Williams-Young, 
 F. Ding, F. Lipparini, F. Egidi, J. Goings, B. Peng, A. Petrone, 
 T. Henderson, D. Ranasinghe, V. G. Zakrzewski, J. Gao, N. Rega, 
 G. Zheng, W. Liang, M. Hada, M. Ehara, K. Toyota, R. Fukuda, 
 J. Hasegawa, M. Ishida, T. Nakajima, Y. Honda, O. Kitao, H. Nakai, 
 T. Vreven, K. Throssell, J. A. Montgomery, Jr., J. E. Peralta, 
 F. Ogliaro, M. J. Bearpark, J. J. Heyd, E. N. Brothers, K. N. Kudin, 
 V. N. Staroverov, T. A. Keith, R. Kobayashi, J. Normand, 
 K. Raghavachari, A. P. Rendell, J. C. Burant, S. S. Iyengar, 
 J. Tomasi, M. Cossi, J. M. Millam, M. Klene, C. Adamo, R. Cammi, 
 J. W. Ochterski, R. L. Martin, K. Morokuma, O. Farkas, 
 J. B. Foresman, and D. J. Fox, Gaussian, Inc., Wallingford CT, 2019.
 
 ******************************************
 Gaussian 16:  EM64L-G16RevC.01  3-Jul-2019
                21-Mar-2022 
 ******************************************
 %mem=64gb
 %nproc=8
 Will use up to    8 processors via shared memory.
 ---------------------------------------------------------------------
 #P TD(Nstates=10000) tpssh/Gen SCF(maxcycles=100) Int(Grid=ultrafine)
 ---------------------------------------------------------------------
 1/38=1,172=1/1;
 2/12=2,17=6,18=5,40=1/2;
 3/5=7,11=9,25=1,30=1,74=-35,75=-5/1,2,3,8;
 4//1;
 5/5=2,7=100,38=5/2;
 8/6=1,10=1,108=10000/1;
 9/41=10000,42=1,70=2/14;
 6/7=2,8=2,9=2,10=2/1;
 99/5=1,9=1/99;
 Leave Link    1 at Mon Mar 21 20:08:37 2022, MaxMem=  8589934592 cpu:               0.4 elap:               0.1
 (Enter /home/sabyasachi/g16/l101.exe)
 ---------------------
 xGDB7_00001_tier4.com
 ---------------------
 Symbolic Z-matrix:
 Charge =  0 Multiplicity = 1
 6                    -0.63015  0.         0. 
 9                     0.74851   0.       0. 
 1                    -0.98525   0.89968   0.50542 
 1                    -0.98522  -0.88756   0.52642 
 1                    -0.98525  -0.01213  -1.03184 
 
 ITRead=  0  0  0  0  0
 MicOpt= -1 -1 -1 -1 -1
 NAtoms=      5 NQM=        5 NQMF=       0 NMMI=      0 NMMIF=      0
                NMic=       0 NMicF=      0.
                    Isotopes and Nuclear Properties:
 (Nuclear quadrupole moments (NQMom) in fm**2, nuclear magnetic moments (NMagM)
  in nuclear magnetons)

  Atom         1           2           3           4           5
 IAtWgt=          12          19           1           1           1
 AtmWgt=  12.0000000  18.9984033   1.0078250   1.0078250   1.0078250
 NucSpn=           0           1           1           1           1
 AtZEff=  -0.0000000  -0.0000000  -0.0000000  -0.0000000  -0.0000000
 NQMom=    0.0000000   0.0000000   0.0000000   0.0000000   0.0000000
 NMagM=    0.0000000   2.6288670   2.7928460   2.7928460   2.7928460
 AtZNuc=   6.0000000   9.0000000   1.0000000   1.0000000   1.0000000
 Leave Link  101 at Mon Mar 21 20:08:37 2022, MaxMem=  8589934592 cpu:               0.7 elap:               0.1
 (Enter /home/sabyasachi/g16/l202.exe)
                          Input orientation:                          
 ---------------------------------------------------------------------
 Center     Atomic      Atomic             Coordinates (Angstroms)
 Number     Number       Type             X           Y           Z
 ---------------------------------------------------------------------
      1          6           0       -0.630149   -0.000001    0.000003
      2          9           0        0.748512    0.000002   -0.000001
      3          1           0       -0.985250    0.899676    0.505416
      4          1           0       -0.985222   -0.887557    0.526417
      5          1           0       -0.985245   -0.012128   -1.031840
 ---------------------------------------------------------------------
                    Distance matrix (angstroms):
                    1          2          3          4          5
     1  C    0.000000
     2  F    1.378661   0.000000
     3  H    1.091310   2.017620   0.000000
     4  H    1.091304   2.017600   1.787356   0.000000
     5  H    1.091302   2.017611   1.787328   1.787328   0.000000
 Stoichiometry    CH3F
 Framework group  C1[X(CH3F)]
 Deg. of freedom     9
 Full point group                 C1      NOp   1
 Largest Abelian subgroup         C1      NOp   1
 Largest concise Abelian subgroup C1      NOp   1
                         Standard orientation:                         
 ---------------------------------------------------------------------
 Center     Atomic      Atomic             Coordinates (Angstroms)
 Number     Number       Type             X           Y           Z
 ---------------------------------------------------------------------
      1          6           0        0.630149   -0.000001   -0.000003
      2          9           0       -0.748512    0.000002    0.000001
      3          1           0        0.985250    0.897475   -0.509314
      4          1           0        0.985222   -0.889832   -0.522562
      5          1           0        0.985245   -0.007652    1.031883
 ---------------------------------------------------------------------
 Rotational constants (GHZ):         156.9708152          25.8428001          25.8427103
 Leave Link  202 at Mon Mar 21 20:08:38 2022, MaxMem=  8589934592 cpu:               0.1 elap:               0.0
 (Enter /home/sabyasachi/g16/l301.exe)
 General basis read from cards:  (5D, 7F)
 Centers:       3      4      5
 S 3 1.00
     Exponent=  1.3010701000D+01 Coefficients=  1.9682158000D-02
     Exponent=  1.9622572000D+00 Coefficients=  1.3796524000D-01
     Exponent=  4.4453796000D-01 Coefficients=  4.7831935000D-01
 S 1 1.00
     Exponent=  1.2194962000D-01 Coefficients=  1.0000000000D+00
 P 1 1.00
     Exponent=  8.0000000000D-01 Coefficients=  1.0000000000D+00
 P 1 1.00
     Exponent=  1.1704099050D-01 Coefficients=  1.0000000000D+00
 ****
 Centers:       1
 S 5 1.00
     Exponent=  1.2384016938D+03 Coefficients=  5.4568832082D-03
     Exponent=  1.8629004992D+02 Coefficients=  4.0638409211D-02
     Exponent=  4.2251176346D+01 Coefficients=  1.8025593888D-01
     Exponent=  1.1676557932D+01 Coefficients=  4.6315121755D-01
     Exponent=  3.5930506482D+00 Coefficients=  4.4087173314D-01
 S 1 1.00
     Exponent=  4.0245147363D-01 Coefficients=  1.0000000000D+00
 S 1 1.00
     Exponent=  1.3090182668D-01 Coefficients=  1.0000000000D+00
 S 1 1.00
     Exponent=  6.7053540256D-02 Coefficients=  1.0000000000D+00
 P 3 1.00
     Exponent=  9.4680970621D+00 Coefficients=  3.8387871728D-02
     Exponent=  2.0103545142D+00 Coefficients=  2.1117025112D-01
     Exponent=  5.4771004707D-01 Coefficients=  5.1328172114D-01
 P 1 1.00
     Exponent=  1.5268613795D-01 Coefficients=  1.0000000000D+00
 D 1 1.00
     Exponent=  8.0000000000D-01 Coefficients=  1.0000000000D+00
 D 1 1.00
     Exponent=  1.1713185140D-01 Coefficients=  1.0000000000D+00
 ****
 Centers:       2
 S 5 1.00
     Exponent=  2.8948325990D+03 Coefficients= -5.3408255515D-03
     Exponent=  4.3541939120D+02 Coefficients= -3.9904258866D-02
     Exponent=  9.8843328866D+01 Coefficients= -1.7912768038D-01
     Exponent=  2.7485198001D+01 Coefficients= -4.6758090825D-01
     Exponent=  8.5405498171D+00 Coefficients= -4.4653131020D-01
 S 1 1.00
     Exponent=  1.0654578038D+00 Coefficients=  1.0000000000D+00
 S 1 1.00
     Exponent=  3.3247346748D-01 Coefficients=  1.0000000000D+00
 S 1 1.00
     Exponent=  9.8097752264D-02 Coefficients=  1.0000000000D+00
 P 3 1.00
     Exponent=  2.2696633924D+01 Coefficients= -4.5212874436D-02
     Exponent=  4.9872339257D+00 Coefficients= -2.3754317067D-01
     Exponent=  1.3491613954D+00 Coefficients= -5.1287353587D-01
 P 1 1.00
     Exponent=  3.4829881977D-01 Coefficients=  1.0000000000D+00
 P 1 1.00
     Exponent=  8.3372148304D-02 Coefficients=  1.0000000000D+00
 D 1 1.00
     Exponent=  1.4000000000D+00 Coefficients=  1.0000000000D+00
 D 1 1.00
     Exponent=  2.2301361948D-01 Coefficients=  1.0000000000D+00
 ****
 Ernie: Thresh=  0.10000D-02 Tol=  0.10000D-05 Strict=F.
 There are    71 symmetry adapted cartesian basis functions of A   symmetry.
 There are    67 symmetry adapted basis functions of A   symmetry.
    67 basis functions,    97 primitive gaussians,    71 cartesian basis functions
     9 alpha electrons        9 beta electrons
       nuclear repulsion energy        37.4250480537 Hartrees.
 IExCor= 2523 DFT=T Ex+Corr=TPSSh ExCW=0 ScaHFX=  0.100000
 ScaDFX=  0.900000  0.900000  1.000000  1.000000 ScalE2=  1.000000  1.000000
 IRadAn=      5 IRanWt=     -1 IRanGd=            0 ICorTp=0 IEmpDi=  4
 NAtoms=    5 NActive=    5 NUniq=    5 SFac= 1.00D+00 NAtFMM=   60 NAOKFM=F Big=F
 Integral buffers will be    131072 words long.
 Regular integral format.
 Two-electron integral symmetry is turned on.
 Leave Link  301 at Mon Mar 21 20:08:38 2022, MaxMem=  8589934592 cpu:               0.6 elap:               0.1
 (Enter /home/sabyasachi/g16/l302.exe)
 NPDir=0 NMtPBC=     1 NCelOv=     1 NCel=       1 NClECP=     1 NCelD=      1
         NCelK=      1 NCelE2=     1 NClLst=     1 CellRange=     0.0.
 One-electron integrals computed using PRISM.
 One-electron integral symmetry used in STVInt
 NBasis=    67 RedAO= T EigKep=  6.61D-04  NBF=    67
 NBsUse=    67 1.00D-06 EigRej= -1.00D+00 NBFU=    67
 Precomputing XC quadrature grid using
 IXCGrd= 4 IRadAn=           5 IRanWt=          -1 IRanGd=           0 AccXCQ= 0.00D+00.
 Generated NRdTot=       0 NPtTot=           0 NUsed=           0 NTot=          32
 NSgBfM=    71    71    71    71    71 MxSgAt=     5 MxSgA2=     5.
 Leave Link  302 at Mon Mar 21 20:08:38 2022, MaxMem=  8589934592 cpu:               0.9 elap:               0.1
 (Enter /home/sabyasachi/g16/l303.exe)
 DipDrv:  MaxL=1.
 Leave Link  303 at Mon Mar 21 20:08:38 2022, MaxMem=  8589934592 cpu:               0.2 elap:               0.0
 (Enter /home/sabyasachi/g16/l308.exe)
 Leave Link  308 at Mon Mar 21 20:08:38 2022, MaxMem=  8589934592 cpu:               0.2 elap:               0.1
 (Enter /home/sabyasachi/g16/l401.exe)
 ExpMin= 6.71D-02 ExpMax= 2.89D+03 ExpMxC= 4.35D+02 IAcc=3 IRadAn=         5 AccDes= 0.00D+00
 Harris functional with IExCor= 1009 and IRadAn=       5 diagonalized for initial guess.
 HarFok:  IExCor= 1009 AccDes= 0.00D+00 IRadAn=         5 IDoV= 1 UseB2=F ITyADJ=14
 ICtDFT=  3500011 ScaDFX=  1.000000  1.000000  1.000000  1.000000
 FoFCou: FMM=F IPFlag=           0 FMFlag=      100000 FMFlg1=           0
         NFxFlg=           0 DoJE=T BraDBF=F KetDBF=T FulRan=T
         wScrn=  0.000000 ICntrl=       500 IOpCl=  0 I1Cent=   200000004 NGrid=           0
         NMat0=    1 NMatS0=      1 NMatT0=    0 NMatD0=    1 NMtDS0=    0 NMtDT0=    0
 Petite list used in FoFCou.
 Harris En= -139.515084539243    
 JPrj=0 DoOrth=F DoCkMO=F.
 Leave Link  401 at Mon Mar 21 20:08:38 2022, MaxMem=  8589934592 cpu:               1.8 elap:               0.3
 (Enter /home/sabyasachi/g16/l502.exe)
 Keep R1 ints in memory in canonical form, NReq=9750857.
 FoFCou: FMM=F IPFlag=           0 FMFlag=           0 FMFlg1=           0
         NFxFlg=           0 DoJE=F BraDBF=F KetDBF=F FulRan=T
         wScrn=  0.000000 ICntrl=       600 IOpCl=  0 I1Cent=           0 NGrid=           0
         NMat0=    1 NMatS0=   2278 NMatT0=    0 NMatD0=    1 NMtDS0=    0 NMtDT0=    0
 Symmetry not used in FoFCou.
 Two-electron integral symmetry not used.
 Closed shell SCF:
 Using DIIS extrapolation, IDIIS=  1040.
 NGot=  8589934592 LenX=  8587327203 LenY=  8587321721
 Requested convergence on RMS density matrix=1.00D-08 within 100 cycles.
 Requested convergence on MAX density matrix=1.00D-06.
 Requested convergence on             energy=1.00D-06.
 No special actions if energy rises.
 Integral accuracy reduced to 1.0D-05 until final iterations.

 Cycle   1  Pass 0  IDiag  1:
 E= -139.622509983645    
 DIIS: error= 1.63D-02 at cycle   1 NSaved=   1.
 NSaved= 1 IEnMin= 1 EnMin= -139.622509983645     IErMin= 1 ErrMin= 1.63D-02
 ErrMax= 1.63D-02  0.00D+00 EMaxC= 1.00D-01 BMatC= 2.47D-02 BMatP= 2.47D-02
 IDIUse=3 WtCom= 8.37D-01 WtEn= 1.63D-01
 Coeff-Com:  0.100D+01
 Coeff-En:   0.100D+01
 Coeff:      0.100D+01
 Gap=     0.360 Goal=   None    Shift=    0.000
 GapD=    0.360 DampG=1.000 DampE=0.500 DampFc=0.5000 IDamp=-1.
 Damping current iteration by 5.00D-01
 RMSDP=3.93D-03 MaxDP=9.11D-02              OVMax= 8.02D-02

 Cycle   2  Pass 0  IDiag  1:
 E= -139.634539184940     Delta-E=       -0.012029201295 Rises=F Damp=T
 DIIS: error= 8.41D-03 at cycle   2 NSaved=   2.
 NSaved= 2 IEnMin= 2 EnMin= -139.634539184940     IErMin= 2 ErrMin= 8.41D-03
 ErrMax= 8.41D-03  0.00D+00 EMaxC= 1.00D-01 BMatC= 1.94D-03 BMatP= 2.47D-02
 IDIUse=3 WtCom= 9.16D-01 WtEn= 8.41D-02
 Coeff-Com: -0.200D-01 0.102D+01
 Coeff-En:   0.000D+00 0.100D+01
 Coeff:     -0.183D-01 0.102D+01
 Gap=     0.357 Goal=   None    Shift=    0.000
 RMSDP=1.12D-03 MaxDP=2.11D-02 DE=-1.20D-02 OVMax= 4.16D-02

 Cycle   3  Pass 0  IDiag  1:
 E= -139.646916589732     Delta-E=       -0.012377404792 Rises=F Damp=F
 DIIS: error= 1.74D-03 at cycle   3 NSaved=   3.
 NSaved= 3 IEnMin= 3 EnMin= -139.646916589732     IErMin= 3 ErrMin= 1.74D-03
 ErrMax= 1.74D-03  0.00D+00 EMaxC= 1.00D-01 BMatC= 3.00D-04 BMatP= 1.94D-03
 IDIUse=3 WtCom= 9.83D-01 WtEn= 1.74D-02
 Coeff-Com: -0.457D-01 0.268D+00 0.777D+00
 Coeff-En:   0.000D+00 0.000D+00 0.100D+01
 Coeff:     -0.449D-01 0.264D+00 0.781D+00
 Gap=     0.352 Goal=   None    Shift=    0.000
 RMSDP=2.48D-04 MaxDP=3.23D-03 DE=-1.24D-02 OVMax= 4.72D-03

 Cycle   4  Pass 0  IDiag  1:
 E= -139.647092536970     Delta-E=       -0.000175947238 Rises=F Damp=F
 DIIS: error= 8.89D-04 at cycle   4 NSaved=   4.
 NSaved= 4 IEnMin= 4 EnMin= -139.647092536970     IErMin= 4 ErrMin= 8.89D-04
 ErrMax= 8.89D-04  0.00D+00 EMaxC= 1.00D-01 BMatC= 6.86D-05 BMatP= 3.00D-04
 IDIUse=3 WtCom= 9.91D-01 WtEn= 8.89D-03
 Coeff-Com: -0.167D-01 0.820D-01 0.372D+00 0.562D+00
 Coeff-En:   0.000D+00 0.000D+00 0.703D-01 0.930D+00
 Coeff:     -0.165D-01 0.813D-01 0.370D+00 0.566D+00
 Gap=     0.354 Goal=   None    Shift=    0.000
 RMSDP=1.05D-04 MaxDP=2.23D-03 DE=-1.76D-04 OVMax= 3.02D-03

 Cycle   5  Pass 0  IDiag  1:
 E= -139.647129919669     Delta-E=       -0.000037382699 Rises=F Damp=F
 DIIS: error= 4.25D-04 at cycle   5 NSaved=   5.
 NSaved= 5 IEnMin= 5 EnMin= -139.647129919669     IErMin= 5 ErrMin= 4.25D-04
 ErrMax= 4.25D-04  0.00D+00 EMaxC= 1.00D-01 BMatC= 1.42D-05 BMatP= 6.86D-05
 IDIUse=3 WtCom= 9.96D-01 WtEn= 4.25D-03
 Coeff-Com: -0.349D-02 0.723D-02 0.113D+00 0.344D+00 0.540D+00
 Coeff-En:   0.000D+00 0.000D+00 0.000D+00 0.166D+00 0.834D+00
 Coeff:     -0.347D-02 0.720D-02 0.112D+00 0.343D+00 0.541D+00
 Gap=     0.354 Goal=   None    Shift=    0.000
 RMSDP=3.76D-05 MaxDP=7.36D-04 DE=-3.74D-05 OVMax= 8.83D-04

 Cycle   6  Pass 0  IDiag  1:
 E= -139.647139420777     Delta-E=       -0.000009501108 Rises=F Damp=F
 DIIS: error= 6.47D-06 at cycle   6 NSaved=   6.
 NSaved= 6 IEnMin= 6 EnMin= -139.647139420777     IErMin= 6 ErrMin= 6.47D-06
 ErrMax= 6.47D-06  0.00D+00 EMaxC= 1.00D-01 BMatC= 1.81D-09 BMatP= 1.42D-05
 IDIUse=1 WtCom= 1.00D+00 WtEn= 0.00D+00
 Coeff-Com:  0.233D-04-0.303D-03 0.464D-03 0.800D-02 0.132D-01 0.979D+00
 Coeff:      0.233D-04-0.303D-03 0.464D-03 0.800D-02 0.132D-01 0.979D+00
 Gap=     0.354 Goal=   None    Shift=    0.000
 RMSDP=1.20D-06 MaxDP=1.31D-05 DE=-9.50D-06 OVMax= 1.48D-05

 Initial convergence to 1.0D-05 achieved.  Increase integral accuracy.
 Cycle   7  Pass 1  IDiag  1:
 E= -139.647135814596     Delta-E=        0.000003606181 Rises=F Damp=F
 DIIS: error= 1.64D-06 at cycle   1 NSaved=   1.
 NSaved= 1 IEnMin= 1 EnMin= -139.647135814596     IErMin= 1 ErrMin= 1.64D-06
 ErrMax= 1.64D-06  0.00D+00 EMaxC= 1.00D-01 BMatC= 3.53D-10 BMatP= 3.53D-10
 IDIUse=1 WtCom= 1.00D+00 WtEn= 0.00D+00
 Coeff-Com:  0.100D+01
 Coeff:      0.100D+01
 Gap=     0.354 Goal=   None    Shift=    0.000
 RMSDP=1.20D-06 MaxDP=1.31D-05 DE= 3.61D-06 OVMax= 7.99D-06

 Cycle   8  Pass 1  IDiag  1:
 E= -139.647135814922     Delta-E=       -0.000000000326 Rises=F Damp=F
 DIIS: error= 9.53D-07 at cycle   2 NSaved=   2.
 NSaved= 2 IEnMin= 2 EnMin= -139.647135814922     IErMin= 2 ErrMin= 9.53D-07
 ErrMax= 9.53D-07  0.00D+00 EMaxC= 1.00D-01 BMatC= 9.37D-11 BMatP= 3.53D-10
 IDIUse=1 WtCom= 1.00D+00 WtEn= 0.00D+00
 Coeff-Com:  0.276D+00 0.724D+00
 Coeff:      0.276D+00 0.724D+00
 Gap=     0.354 Goal=   None    Shift=    0.000
 RMSDP=2.03D-07 MaxDP=2.77D-06 DE=-3.26D-10 OVMax= 4.37D-06

 Cycle   9  Pass 1  IDiag  1:
 E= -139.647135814969     Delta-E=       -0.000000000047 Rises=F Damp=F
 DIIS: error= 7.64D-07 at cycle   3 NSaved=   3.
 NSaved= 3 IEnMin= 3 EnMin= -139.647135814969     IErMin= 3 ErrMin= 7.64D-07
 ErrMax= 7.64D-07  0.00D+00 EMaxC= 1.00D-01 BMatC= 5.35D-11 BMatP= 9.37D-11
 IDIUse=1 WtCom= 1.00D+00 WtEn= 0.00D+00
 Coeff-Com:  0.426D-01 0.424D+00 0.534D+00
 Coeff:      0.426D-01 0.424D+00 0.534D+00
 Gap=     0.354 Goal=   None    Shift=    0.000
 RMSDP=7.35D-08 MaxDP=1.48D-06 DE=-4.68D-11 OVMax= 1.74D-06

 Cycle  10  Pass 1  IDiag  1:
 E= -139.647135815005     Delta-E=       -0.000000000036 Rises=F Damp=F
 DIIS: error= 1.52D-07 at cycle   4 NSaved=   4.
 NSaved= 4 IEnMin= 4 EnMin= -139.647135815005     IErMin= 4 ErrMin= 1.52D-07
 ErrMax= 1.52D-07  0.00D+00 EMaxC= 1.00D-01 BMatC= 2.30D-12 BMatP= 5.35D-11
 IDIUse=1 WtCom= 1.00D+00 WtEn= 0.00D+00
 Coeff-Com: -0.622D-03 0.167D+00 0.260D+00 0.574D+00
 Coeff:     -0.622D-03 0.167D+00 0.260D+00 0.574D+00
 Gap=     0.354 Goal=   None    Shift=    0.000
 RMSDP=2.22D-08 MaxDP=4.86D-07 DE=-3.57D-11 OVMax= 4.04D-07

 Cycle  11  Pass 1  IDiag  1:
 E= -139.647135815005     Delta-E=        0.000000000000 Rises=F Damp=F
 DIIS: error= 4.60D-08 at cycle   5 NSaved=   5.
 NSaved= 5 IEnMin= 4 EnMin= -139.647135815005     IErMin= 5 ErrMin= 4.60D-08
 ErrMax= 4.60D-08  0.00D+00 EMaxC= 1.00D-01 BMatC= 1.56D-13 BMatP= 2.30D-12
 IDIUse=1 WtCom= 1.00D+00 WtEn= 0.00D+00
 Coeff-Com: -0.389D-02 0.380D-01 0.644D-01 0.264D+00 0.637D+00
 Coeff:     -0.389D-02 0.380D-01 0.644D-01 0.264D+00 0.637D+00
 Gap=     0.354 Goal=   None    Shift=    0.000
 RMSDP=5.09D-09 MaxDP=1.07D-07 DE= 0.00D+00 OVMax= 1.38D-07

 SCF Done:  E(RTPSSh) =  -139.647135815     A.U. after   11 cycles
            NFock= 11  Conv=0.51D-08     -V/T= 2.0079
 KE= 1.385585122093D+02 PE=-4.047917154530D+02 EE= 8.916101937501D+01
 Leave Link  502 at Mon Mar 21 20:08:40 2022, MaxMem=  8589934592 cpu:              12.7 elap:               1.6
 (Enter /home/sabyasachi/g16/l801.exe)
 DoSCS=F DFT=T ScalE2(SS,OS)=  1.000000  1.000000
 ExpMin= 6.71D-02 ExpMax= 2.89D+03 ExpMxC= 4.35D+02 IAcc=3 IRadAn=         5 AccDes= 0.00D+00
 HarFok:  IExCor=  205 AccDes= 0.00D+00 IRadAn=         5 IDoV=-2 UseB2=F ITyADJ=14
 ICtDFT= 12500011 ScaDFX=  1.000000  1.000000  1.000000  1.000000
 Largest valence mixing into a core orbital is  8.58D-05
 Largest core mixing into a valence orbital is  2.82D-05
 Range of M.O.s used for correlation:     3    67
 NBasis=    67 NAE=     9 NBE=     9 NFC=     2 NFV=     0
 NROrb=     65 NOA=     7 NOB=     7 NVA=    58 NVB=    58

 **** Warning!!: The largest alpha MO coefficient is  0.21760408D+02

 Leave Link  801 at Mon Mar 21 20:08:40 2022, MaxMem=  8589934592 cpu:               0.4 elap:               0.1
 (Enter /home/sabyasachi/g16/l914.exe)
 RHF ground state
 Keep R1, R2, and R3 ints in memory in canonical form, NReq=199483391.
 FoFCou: FMM=F IPFlag=           0 FMFlag=           0 FMFlg1=           0
         NFxFlg=           0 DoJE=F BraDBF=F KetDBF=F FulRan=T
         wScrn=  0.000000 ICntrl=       600 IOpCl=  0 I1Cent=           0 NGrid=           0
         NMat0=    1 NMatS0=   2278 NMatT0=    0 NMatD0=    1 NMtDS0=    0 NMtDT0=    0
 Symmetry not used in FoFCou.
 Two-electron integral symmetry not used.
 MDV=  8589934592 DFT=T DoStab=F Mixed=T DoRPA=T DoScal=F NonHer=T
 Making orbital integer symmetry assigments:
 Orbital symmetries:
       Occupied  (A) (A) (A) (A) (A) (A) (A) (A) (A)
       Virtual   (A) (A) (A) (A) (A) (A) (A) (A) (A) (A) (A) (A)
                 (A) (A) (A) (A) (A) (A) (A) (A) (A) (A) (A) (A)
                 (A) (A) (A) (A) (A) (A) (A) (A) (A) (A) (A) (A)
                 (A) (A) (A) (A) (A) (A) (A) (A) (A) (A) (A) (A)
                 (A) (A) (A) (A) (A) (A) (A) (A) (A) (A)
   406 initial guesses have been made.
 Convergence on wavefunction:    0.001000000000000
 Davidson Disk Diagonalization:  ConvIn= 1.00D-03 SkipCon=T Conv= 1.00D-03.
 Max sub-space:  2436 roots to seek:   812 dimension of matrix:          812
 *** WARNING: Number of orthogonal guesses is          406
 Iteration     1 Dimension   406 NMult     0 NNew    406
 CISAX will form   406 AO SS matrices at one time.
 NMat=   406 NSing=   406 JSym2X= 0.
 New state      5 was old state      7
 New state      6 was old state      5
 New state      7 was old state      8
 New state      8 was old state      6
 New state      9 was old state     12
 New state     10 was old state      9
 New state     11 was old state     10
 New state     12 was old state     11
 New state     18 was old state     20
 New state     19 was old state     18
 New state     20 was old state     21
 New state     21 was old state     19
 New state     26 was old state     28
 New state     28 was old state     31
 New state     29 was old state     32
 New state     30 was old state     29
 New state     31 was old state     30
 New state     32 was old state     26
 New state     35 was old state     38
 New state     36 was old state     35
 New state     37 was old state     36
 New state     38 was old state     37
 New state     39 was old state     42
 New state     40 was old state     43
 New state     41 was old state     39
 New state     42 was old state     40
 New state     43 was old state     41
 New state     44 was old state     45
 New state     45 was old state     44
 New state     46 was old state     47
 New state     47 was old state     46
 New state     49 was old state     51
 New state     51 was old state     52
 New state     52 was old state     53
 New state     53 was old state     54
 New state     54 was old state     55
 New state     55 was old state     49
 New state     58 was old state     60
 New state     59 was old state     58
 New state     60 was old state     59
 New state     62 was old state     63
 New state     63 was old state     64
 New state     64 was old state     62
 New state     65 was old state     70
 New state     66 was old state     69
 New state     67 was old state     71
 New state     68 was old state     72
 New state     69 was old state     66
 New state     70 was old state     67
 New state     71 was old state     68
 New state     72 was old state     73
 New state     73 was old state     74
 New state     74 was old state     75
 New state     75 was old state     77
 New state     77 was old state     65
 New state     80 was old state     82
 New state     81 was old state     83
 New state     82 was old state     80
 New state     83 was old state     81
 New state     91 was old state     94
 New state     92 was old state     91
 New state     93 was old state     99
 New state     94 was old state    100
 New state     95 was old state     97
 New state     96 was old state     98
 New state     97 was old state     92
 New state     98 was old state    104
 New state     99 was old state    103
 New state    100 was old state    101
 New state    101 was old state     93
 New state    103 was old state     96
 New state    104 was old state    105
 New state    105 was old state    106
 New state    106 was old state    107
 New state    107 was old state    109
 New state    108 was old state    110
 New state    109 was old state    119
 New state    110 was old state    111
 New state    111 was old state    112
 New state    112 was old state    113
 New state    113 was old state    114
 New state    114 was old state    115
 New state    115 was old state    108
 No map to state    119
 New state    121 was old state    122
 New state    122 was old state    124
 New state    124 was old state    129
 New state    125 was old state    130
 New state    126 was old state    125
 New state    127 was old state    126
 New state    128 was old state    127
 New state    129 was old state    128
 New state    130 was old state    121
 New state    131 was old state    133
 New state    132 was old state    131
 New state    133 was old state    136
 New state    134 was old state    135
 New state    135 was old state    134
 New state    136 was old state    132
 New state    139 was old state    140
 New state    140 was old state    139
 New state    150 was old state    151
 New state    151 was old state    150
 New state    153 was old state    154
 New state    154 was old state    155
 New state    155 was old state    153
 New state    161 was old state    163
 New state    163 was old state    164
 New state    164 was old state    161
 New state    165 was old state    167
 New state    167 was old state    165
 New state    168 was old state    169
 New state    169 was old state    174
 New state    170 was old state    175
 New state    171 was old state    172
 New state    172 was old state    173
 New state    173 was old state    168
 New state    174 was old state    170
 New state    175 was old state    171
 New state    176 was old state    178
 New state    178 was old state    180
 New state    179 was old state    176
 New state    180 was old state    181
 New state    181 was old state    182
 New state    182 was old state    187
 New state    183 was old state    185
 New state    184 was old state    186
 New state    185 was old state    188
 New state    186 was old state    183
 New state    187 was old state    184
 New state    188 was old state    179
 New state    191 was old state    192
 New state    192 was old state    195
 New state    193 was old state    196
 New state    194 was old state    191
 New state    195 was old state    197
 New state    196 was old state    198
 New state    197 was old state    199
 New state    198 was old state    201
 New state    199 was old state    202
 New state    200 was old state    193
 New state    201 was old state    194
 New state    202 was old state    200
 New state    203 was old state    206
 New state    204 was old state    208
 New state    205 was old state    209
 New state    206 was old state    204
 New state    207 was old state    205
 New state    208 was old state    210
 New state    209 was old state    211
 New state    210 was old state    203
 New state    211 was old state    212
 New state    212 was old state    213
 New state    213 was old state    214
 New state    214 was old state    218
 New state    218 was old state    219
 New state    219 was old state    220
 New state    220 was old state    221
 New state    221 was old state    222
 New state    222 was old state    223
 New state    223 was old state    224
 New state    224 was old state    227
 New state    227 was old state    207
 New state    237 was old state    239
 New state    238 was old state    237
 New state    239 was old state    238
 New state    243 was old state    244
 New state    244 was old state    243
 New state    246 was old state    248
 New state    247 was old state    253
 New state    248 was old state    254
 New state    249 was old state    247
 New state    250 was old state    252
 New state    252 was old state    250
 New state    253 was old state    249
 New state    254 was old state    255
 New state    255 was old state    246
 New state    261 was old state    262
 New state    262 was old state    261
 New state    264 was old state    265
 New state    265 was old state    266
 New state    266 was old state    267
 New state    267 was old state    268
 New state    268 was old state    269
 New state    269 was old state    270
 New state    270 was old state    271
 New state    271 was old state    276
 New state    272 was old state    274
 New state    273 was old state    275
 New state    274 was old state    272
 New state    275 was old state    273
 New state    276 was old state    279
 New state    278 was old state    280
 New state    279 was old state    278
 New state    280 was old state    281
 New state    281 was old state    282
 New state    282 was old state    283
 New state    283 was old state    296
 New state    287 was old state    288
 New state    288 was old state    287
 New state    293 was old state    294
 New state    294 was old state    295
 New state    295 was old state    293
 New state    296 was old state    297
 New state    297 was old state    298
 New state    298 was old state    300
 New state    300 was old state    303
 New state    303 was old state    304
 New state    304 was old state    306
 New state    306 was old state    307
 New state    307 was old state    308
 New state    308 was old state    309
 New state    309 was old state    310
 New state    310 was old state    313
 New state    313 was old state    318
 New state    318 was old state    321
 New state    321 was old state    331
 New state    322 was old state    324
 New state    323 was old state    325
 New state    324 was old state    322
 New state    325 was old state    323
 New state    326 was old state    328
 New state    327 was old state    326
 New state    328 was old state    329
 New state    329 was old state    327
 New state    331 was old state    332
 New state    332 was old state    334
 New state    334 was old state    337
 New state    335 was old state    336
 New state    336 was old state    335
 New state    337 was old state    338
 New state    338 was old state    339
 New state    339 was old state    344
 No map to state    344
 New state    352 was old state    353
 New state    353 was old state    354
 New state    354 was old state    352
 New state    357 was old state    358
 New state    358 was old state    360
 New state    360 was old state    362
 New state    362 was old state    357
 New state    367 was old state    370
 New state    368 was old state    369
 New state    369 was old state    367
 New state    370 was old state    368
 New state    371 was old state    373
 New state    372 was old state    374
 New state    373 was old state    371
 New state    374 was old state    372
 New state    376 was old state    381
 New state    377 was old state    382
 New state    379 was old state    377
 New state    380 was old state    388
 New state    381 was old state    389
 New state    382 was old state    376
 New state    383 was old state    384
 New state    384 was old state    385
 New state    385 was old state    383
 New state    388 was old state    394
 New state    389 was old state    395
 New state    394 was old state    396
 New state    395 was old state    397
 New state    396 was old state    398
 New state    397 was old state    399
 New state    398 was old state    379
 New state    399 was old state    380
 Excitation Energies [eV] at current iteration:
 Root      1 :     9.054429098957058
 Root      2 :     9.054474487494252
 Root      3 :     9.782974041153571
 Root      4 :     9.783017373397985
 Root      5 :    11.021285059228810
 Root      6 :    11.021286731257470
 Root      7 :    11.048425283228020
 Root      8 :    11.244142849301940
 Root      9 :    12.189549566248370
 Root     10 :    12.231121265482430
 Root     11 :    12.231176030431740
 Root     12 :    12.464047180712900
 Root     13 :    12.525856403147800
 Root     14 :    12.525861299775040
 Root     15 :    12.812926448259490
 Root     16 :    12.813001850064480
 Root     17 :    13.090833264416360
 Root     18 :    13.107893729992210
 Root     19 :    13.107894159934810
 Root     20 :    13.138444338313760
 Root     21 :    13.476872628193370
 Root     22 :    13.602032736961420
 Root     23 :    13.602112716710670
 Root     24 :    14.371491062003320
 Root     25 :    14.727205499292520
 Root     26 :    14.731229695094710
 Root     27 :    14.731232629122310
 Root     28 :    14.870508034671950
 Root     29 :    14.870544303900350
 Root     30 :    14.978236089185570
 Root     31 :    14.978245880218470
 Root     32 :    15.452682393954580
 Root     33 :    15.824546895123120
 Root     34 :    15.824590904092670
 Root     35 :    15.889651022449960
 Root     36 :    15.998290257099290
 Root     37 :    15.998374349662100
 Root     38 :    16.035049914082490
 Root     39 :    16.239525511696500
 Root     40 :    16.239576940519650
 Root     41 :    16.429267539362950
 Root     42 :    16.429286308030340
 Root     43 :    16.462295244946280
 Root     44 :    16.591044827861320
 Root     45 :    16.591047108312310
 Root     46 :    16.651498089123400
 Root     47 :    16.779843402902960
 Root     48 :    16.874443161481630
 Root     49 :    16.923673095906510
 Root     50 :    16.923682084994460
 Root     51 :    17.044333269765410
 Root     52 :    17.044353829054850
 Root     53 :    17.071721908269720
 Root     54 :    17.071745574005740
 Root     55 :    17.101854594246730
 Root     56 :    17.730257909939160
 Root     57 :    17.730303425175470
 Root     58 :    17.936915480941510
 Root     59 :    18.091394187732920
 Root     60 :    18.091396901016970
 Root     61 :    18.191521123299930
 Root     62 :    18.621007507458080
 Root     63 :    18.621082840058640
 Root     64 :    18.699458646369280
 Root     65 :    19.319479377765440
 Root     66 :    19.383298057363540
 Root     67 :    19.426321502960360
 Root     68 :    19.426330613821400
 Root     69 :    19.545252375503760
 Root     70 :    19.562516122388230
 Root     71 :    19.562582575437670
 Root     72 :    19.753749107703840
 Root     73 :    19.791184615945450
 Root     74 :    19.791231754854380
 Root     75 :    20.295838731013510
 Root     76 :    20.295847223904920
 Root     77 :    20.317398228516830
 Root     78 :    20.355434591332060
 Root     79 :    20.470376557119180
 Root     80 :    20.550419721592870
 Root     81 :    20.550440928155400
 Root     82 :    20.652265700292580
 Root     83 :    20.652273712095950
 Root     84 :    20.675823719767510
 Root     85 :    20.675855346913040
 Root     86 :    20.855068676309240
 Root     87 :    20.855129842422740
 Root     88 :    21.153605827227550
 Root     89 :    21.426185186461930
 Root     90 :    21.426251930770490
 Root     91 :    21.583329771019840
 Root     92 :    21.710255873353260
 Root     93 :    21.783421350859410
 Root     94 :    21.783457109510560
 Root     95 :    21.847696643647690
 Root     96 :    21.847708000523420
 Root     97 :    21.914312434127080
 Root     98 :    21.949138845567840
 Root     99 :    21.971619016200100
 Root    100 :    21.971650182238560
 Root    101 :    22.165000578818890
 Root    102 :    22.165012397286100
 Root    103 :    22.206411399708600
 Root    104 :    22.661450808224050
 Root    105 :    22.661501480849120
 Root    106 :    23.068409939613260
 Root    107 :    23.181066161598950
 Root    108 :    23.181076473582480
 Root    109 :    23.242044787190310
 Root    110 :    23.360352611812840
 Root    111 :    23.360400631697490
 Root    112 :    23.470461491408720
 Root    113 :    23.470526413280710
 Root    114 :    23.634129932729420
 Root    115 :    23.912524651027010
 Root    116 :    24.392398337101760
 Root    117 :    24.392472532945130
 Root    118 :    24.755258365334950
 Root    119 :    25.059284894204250
 Root    120 :    25.483229608104930
 Root    121 :    25.655280397000080
 Root    122 :    25.671792274259190
 Root    123 :    25.671813914200050
 Root    124 :    25.893759789175170
 Root    125 :    25.893786458406740
 Root    126 :    25.931499742522030
 Root    127 :    25.931528296091010
 Root    128 :    26.149724621633120
 Root    129 :    26.149743694386130
 Root    130 :    26.402555091106860
 Root    131 :    26.784825904858530
 Root    132 :    27.029628996516400
 Root    133 :    27.167881703807460
 Root    134 :    27.259812077726650
 Root    135 :    27.259834543274510
 Root    136 :    27.434622136680240
 Root    137 :    27.616803968559040
 Root    138 :    27.616843362175900
 Root    139 :    28.516712783193280
 Root    140 :    28.747905157530830
 Root    141 :    28.747921642197610
 Root    142 :    28.773397523328920
 Root    143 :    28.963846351198610
 Root    144 :    28.963898460504040
 Root    145 :    29.193955294001740
 Root    146 :    29.677660297466770
 Root    147 :    29.677734918163420
 Root    148 :    30.236678532041180
 Root    149 :    30.324930425215430
 Root    150 :    30.502353788133270
 Root    151 :    30.837467492114280
 Root    152 :    30.837488321251720
 Root    153 :    30.933941914157450
 Root    154 :    30.934018963302130
 Root    155 :    30.981455892077760
 Root    156 :    31.469649071282760
 Root    157 :    31.530824334006210
 Root    158 :    31.530850545239640
 Root    159 :    32.027142880902250
 Root    160 :    32.027170656745130
 Root    161 :    32.295980896469470
 Root    162 :    32.392427990265160
 Root    163 :    32.392439211671990
 Root    164 :    32.483871548636170
 Root    165 :    32.555387952564150
 Root    166 :    32.555396539499640
 Root    167 :    32.823583651572200
 Root    168 :    32.990688872737900
 Root    169 :    33.103634033222380
 Root    170 :    33.103666102120280
 Root    171 :    33.430498093757020
 Root    172 :    33.430514333006150
 Root    173 :    33.519465653581310
 Root    174 :    33.519471321482430
 Root    175 :    34.032230392149490
 Root    176 :    34.263928523382180
 Root    177 :    34.263934718160360
 Root    178 :    34.430797128806920
 Root    179 :    34.666037782400910
 Root    180 :    34.765849235228550
 Root    181 :    34.765887322589240
 Root    182 :    35.179223301078220
 Root    183 :    35.556043027225130
 Root    184 :    35.556117815698090
 Root    185 :    35.603503607987050
 Root    186 :    35.643609329853730
 Root    187 :    35.643659228229910
 Root    188 :    35.975626137159670
 Root    189 :    36.599910718240760
 Root    190 :    36.599981370500050
 Root    191 :    36.668140091632440
 Root    192 :    36.782404403177980
 Root    193 :    36.782495037681110
 Root    194 :    36.876006406111550
 Root    195 :    36.942848105089180
 Root    196 :    36.943026632508110
 Root    197 :    37.364556683807930
 Root    198 :    37.392634643939830
 Root    199 :    37.392661324806400
 Root    200 :    37.543859882569850
 Root    201 :    37.543870599318690
 Root    202 :    37.834344754497260
 Root    203 :    37.863215352620640
 Root    204 :    37.863223267982050
 Root    205 :    38.076911005272810
 Root    206 :    38.196744808071080
 Root    207 :    38.196747474187990
 Root    208 :    38.367623218328970
 Root    209 :    38.367664484936360
 Root    210 :    38.513568534904070
 Root    211 :    39.025502432953750
 Root    212 :    39.025525967164030
 Root    213 :    39.597461786730090
 Root    214 :    40.098332856069330
 Root    215 :    40.195072785445840
 Root    216 :    40.417208011354840
 Root    217 :    40.417250023237010
 Root    218 :    41.078518734581470
 Root    219 :    41.078588324643670
 Root    220 :    41.387033656271020
 Root    221 :    41.841128976021690
 Root    222 :    41.841190380079200
 Root    223 :    42.160153235521300
 Root    224 :    42.671476735067590
 Root    225 :    42.764172581280910
 Root    226 :    42.764351346759870
 Root    227 :    42.796556942410720
 Root    228 :    43.172696811779500
 Root    229 :    43.823404252618440
 Root    230 :    43.823466745664420
 Root    231 :    44.488391992693010
 Root    232 :    44.488422133662400
 Root    233 :    47.505560427941620
 Root    234 :    48.667306527779460
 Root    235 :    49.208273565888410
 Root    236 :    49.208326834410430
 Root    237 :    49.307804867458700
 Root    238 :    49.464425189363360
 Root    239 :    49.464458197548370
 Root    240 :    50.253213514745350
 Root    241 :    51.000971777244350
 Root    242 :    51.000974536985530
 Root    243 :    52.350246863814860
 Root    244 :    52.350249988031190
 Root    245 :    52.561593762152410
 Root    246 :    53.003546977256510
 Root    247 :    53.101427946249290
 Root    248 :    53.101453519884980
 Root    249 :    53.203218251291760
 Root    250 :    53.226935537152390
 Root    251 :    53.226953560738390
 Root    252 :    53.554885379695850
 Root    253 :    53.554989188159160
 Root    254 :    54.053542898074900
 Root    255 :    54.835676722858470
 Root    256 :    55.218089852098980
 Root    257 :    55.218146180966380
 Root    258 :    55.568706364394350
 Root    259 :    55.568863070383760
 Root    260 :    55.732707694333020
 Root    261 :    56.209082021179980
 Root    262 :    56.209089476427080
 Root    263 :    56.369399609162450
 Root    264 :    56.393554483592190
 Root    265 :    56.393666110671970
 Root    266 :    56.777168619653770
 Root    267 :    56.777226981078870
 Root    268 :    56.932270070761000
 Root    269 :    56.932324371236200
 Root    270 :    57.164693019306710
 Root    271 :    57.392838771794980
 Root    272 :    59.040519183382810
 Root    273 :    59.040600741726570
 Root    274 :    59.092410203736260
 Root    275 :    59.092572741624950
 Root    276 :    59.493982478894080
 Root    277 :    59.935866639806630
 Root    278 :    60.137843248386570
 Root    279 :    60.137870174438160
 Root    280 :    60.207446003062980
 Root    281 :    60.887463921598520
 Root    282 :    60.887480466260870
 Root    283 :    61.545376187186510
 Root    284 :    62.174931828435110
 Root    285 :    62.175042605330600
 Root    286 :    62.531095230754070
 Root    287 :    63.548883268396410
 Root    288 :    63.804648312438560
 Root    289 :    63.833245544994800
 Root    290 :    63.833297692918780
 Root    291 :    64.102854113412250
 Root    292 :    64.103136269168940
 Root    293 :    64.581550708409920
 Root    294 :    64.581617044303640
 Root    295 :    65.025915194041660
 Root    296 :    65.301413764156220
 Root    297 :    65.422934707379300
 Root    298 :    65.422947417693780
 Root    299 :    65.528334520024940
 Root    300 :    68.207383586601010
 Root    301 :    68.332267535413590
 Root    302 :    68.332313588225870
 Root    303 :    69.047191445662820
 Root    304 :    69.047196156549120
 Root    305 :    69.182509556972150
 Root    306 :    69.439767366088160
 Root    307 :    69.439812936643920
 Root    308 :    69.561306078000330
 Root    309 :    69.561475984284730
 Root    310 :    69.831106583715280
 Root    311 :    70.338709095360880
 Root    312 :    70.338779234378930
 Root    313 :    71.030548889186050
 Root    314 :    71.812314342824180
 Root    315 :    71.812462232012480
 Root    316 :    72.166760311883490
 Root    317 :    72.166842709589490
 Root    318 :    73.144010843592800
 Root    319 :    73.920692307938480
 Root    320 :    73.920751567121430
 Root    321 :    74.485641434170090
 Root    322 :    74.926370244050080
 Root    323 :    74.926569762599810
 Root    324 :    75.010319114302820
 Root    325 :    75.010408334589510
 Root    326 :    75.609659266675170
 Root    327 :    75.743194028907420
 Root    328 :    75.985291857657200
 Root    329 :    75.985301986623280
 Root    330 :    76.018796381953620
 Root    331 :    77.848145383763370
 Root    332 :    79.280907524031240
 Root    333 :    79.386363710613010
 Root    334 :    79.622525414263920
 Root    335 :    79.677794542435690
 Root    336 :    79.677817431753620
 Root    337 :    79.981636246494160
 Root    338 :    79.982090725267440
 Root    339 :    80.347377054232000
 Root    340 :    82.628904851709350
 Root    341 :    82.629242759216920
 Root    342 :    83.080775292993930
 Root    343 :    83.080845839328870
 Root    344 :    83.682932205379020
 Root    345 :    85.153274991707860
 Root    346 :    85.153759559448030
 Root    347 :    86.749234941259390
 Root    348 :    86.749303664982430
 Root    349 :    87.406183630456600
 Root    350 :    88.052202877652930
 Root    351 :    88.052429057271790
 Root    352 :    89.978917857196420
 Root    353 :    90.172145068292170
 Root    354 :    90.172157750304180
 Root    355 :    90.438427836225510
 Root    356 :    91.524914173107420
 Root    357 :    92.609970184155670
 Root    358 :    93.657315309446890
 Root    359 :    93.932467280050730
 Root    360 :    93.941690452360770
 Root    361 :    93.941783833370760
 Root    362 :    94.084761865350000
 Root    363 :    94.236749809557120
 Root    364 :    94.237186630854520
 Root    365 :    98.556439151401780
 Root    366 :    98.556923688894060
 Root    367 :    98.806347025188960
 Root    368 :    98.807186060028140
 Root    369 :    99.326642882610540
 Root    370 :    99.327157289189120
 Root    371 :   101.575714793664300
 Root    372 :   101.575720108346700
 Root    373 :   101.708003444289700
 Root    374 :   101.708005760222200
 Root    375 :   102.246104726069200
 Root    376 :   103.325415442380900
 Root    377 :   103.325441907560500
 Root    378 :   103.459464185894400
 Root    379 :   103.463701737976500
 Root    380 :   104.401920618677000
 Root    381 :   104.401965228182700
 Root    382 :   104.444295302644200
 Root    383 :   106.037385546846900
 Root    384 :   106.037386483083600
 Root    385 :   106.043803220323400
 Root    386 :   106.284321869651100
 Root    387 :   108.090246231318900
 Root    388 :   109.258907692401200
 Root    389 :   109.258940147214700
 Root    390 :   109.693553525208400
 Root    391 :   109.693576104430600
 Root    392 :   112.071566505609800
 Root    393 :   112.071655535774500
 Root    394 :   112.975045660575200
 Root    395 :   112.975571699362000
 Root    396 :   114.422841283003800
 Root    397 :   114.422922483589500
 Root    398 :   117.058117275538500
 Root    399 :   117.058173754491500
 Root    400 :   118.972203494146500
 Root    401 :   122.761651505489800
 Root    402 :   122.921781263984100
 Root    403 :   122.921808733857800
 Root    404 :   125.518934780283400
 Root    405 :   125.519039243593800
 Root    406 :   135.381224171079800
 Convergence achieved for final wavefunctions.
 ***********************************************************************
 Excited states from <AA,BB:AA,BB> singles matrix:
 ***********************************************************************
 
 1PDM for each excited state written to RWF  633
 Ground to excited state transition densities written to RWF  633
 Ground to excited state transition electric dipole moments (Au):
       state          X           Y           Z        Dip. S.      Osc.
         1        -0.0000      0.0079     -0.3173      0.1007      0.0223
         2        -0.0000     -0.3173     -0.0079      0.1007      0.0223
         3         0.0000      0.0079     -0.2482      0.0617      0.0148
         4        -0.0000     -0.2482     -0.0079      0.0617      0.0148
         5        -0.0000     -0.1349     -0.3330      0.1291      0.0349
         6         0.0000     -0.3330      0.1349      0.1291      0.0349
         7        -0.0000     -0.0004     -0.0000      0.0000      0.0000
         8         0.6312     -0.0000     -0.0000      0.3984      0.1097
         9         0.0000      0.0001     -0.0000      0.0000      0.0000
        10        -0.0000      0.0096     -0.2710      0.0735      0.0220
        11         0.0000     -0.2711     -0.0096      0.0736      0.0220
        12         0.1236     -0.0000     -0.0003      0.0153      0.0047
        13        -0.0000     -0.4025     -0.1163      0.1755      0.0539
        14        -0.0001      0.1162     -0.4025      0.1755      0.0539
        15        -0.0000     -0.1517      0.6727      0.4755      0.1493
        16         0.0000      0.6727      0.1517      0.4755      0.1493
        17        -0.0458     -0.0000     -0.0001      0.0021      0.0007
        18         0.0000     -0.0298     -0.0451      0.0029      0.0009
        19        -0.0000      0.0451     -0.0298      0.0029      0.0009
        20         0.0000      0.0001     -0.0000      0.0000      0.0000
        21        -0.1019     -0.0000     -0.0000      0.0104      0.0034
        22        -0.0000      0.0499     -0.1841      0.0364      0.0121
        23        -0.0000     -0.1841     -0.0499      0.0364      0.0121
        24        -1.1095     -0.0000     -0.0000      1.2310      0.4334
        25         0.0000      0.0039     -0.0011      0.0000      0.0000
        26        -0.0000      0.3217      0.1642      0.1305      0.0471
        27        -0.0000     -0.1642      0.3217      0.1305      0.0471
        28         0.0000     -0.0043      0.0543      0.0030      0.0011
        29         0.0000      0.0543      0.0043      0.0030      0.0011
        30        -0.0000      0.3457     -0.1017      0.1299      0.0477
        31        -0.0000      0.1017      0.3457      0.1299      0.0477
        32        -0.1061     -0.0000     -0.0000      0.0113      0.0043
        33         0.0000      0.0046      0.2946      0.0868      0.0337
        34         0.0000      0.2946     -0.0046      0.0868      0.0337
        35        -0.0000      0.0000     -0.0000      0.0000      0.0000
        36         0.0000      0.0068     -0.0328      0.0011      0.0004
        37         0.0000     -0.0327     -0.0068      0.0011      0.0004
        38        -0.0874      0.0000      0.0001      0.0076      0.0030
        39         0.0000     -0.0297      0.2430      0.0599      0.0238
        40        -0.0000     -0.2429     -0.0297      0.0599      0.0238
        41        -0.0000      0.7265      0.1491      0.5501      0.2214
        42        -0.0000     -0.1491      0.7265      0.5500      0.2214
        43        -0.0453     -0.0001     -0.0000      0.0020      0.0008
        44        -0.0000      0.0966     -0.4043      0.1728      0.0702
        45         0.0001      0.4043      0.0966      0.1728      0.0702
        46         0.0000      0.0001      0.0000      0.0000      0.0000
        47        -0.9606      0.0000      0.0000      0.9228      0.3794
        48        -0.0000     -0.0006      0.0002      0.0000      0.0000
        49         0.0000     -0.4887     -0.0292      0.2397      0.0994
        50         0.0000      0.0292     -0.4888      0.2398      0.0994
        51        -0.0000      0.1424      0.0007      0.0203      0.0085
        52        -0.0000     -0.0007      0.1420      0.0202      0.0084
        53        -0.0000     -0.0118      0.1758      0.0310      0.0130
        54        -0.0001      0.1756      0.0118      0.0310      0.0130
        55        -0.3117     -0.0001     -0.0000      0.0971      0.0407
        56         0.0000     -0.1127     -0.0055      0.0127      0.0055
        57         0.0000     -0.0055      0.1127      0.0127      0.0055
        58        -0.0000     -0.0000     -0.0000      0.0000      0.0000
        59        -0.0001      0.0144     -0.2055      0.0424      0.0188
        60         0.0000      0.2055      0.0144      0.0424      0.0188
        61         0.2463     -0.0000     -0.0001      0.0606      0.0270
        62        -0.0000     -0.0141      0.0609      0.0039      0.0018
        63        -0.0000      0.0609      0.0141      0.0039      0.0018
        64        -0.2466     -0.0000     -0.0000      0.0608      0.0279
        65         0.2066     -0.0001     -0.0000      0.0427      0.0202
        66         0.0000     -0.0003      0.0002      0.0000      0.0000
        67        -0.0000      0.0800     -0.2720      0.0804      0.0383
        68         0.0000      0.2722      0.0800      0.0805      0.0383
        69        -0.5238      0.0001     -0.0001      0.2743      0.1314
        70         0.0002      0.0561     -0.3163      0.1032      0.0495
        71        -0.0001     -0.3163     -0.0561      0.1032      0.0494
        72         0.1346     -0.0000     -0.0001      0.0181      0.0088
        73         0.0001     -0.0220      0.2858      0.0822      0.0398
        74         0.0000      0.2857      0.0220      0.0821      0.0398
        75         0.0000     -0.0153      0.0435      0.0021      0.0011
        76         0.0000     -0.0435     -0.0153      0.0021      0.0011
        77        -0.1789     -0.0000     -0.0000      0.0320      0.0159
        78         0.0000      0.0000      0.0000      0.0000      0.0000
        79         0.4341      0.0000     -0.0001      0.1884      0.0945
        80         0.0000     -0.2481      0.1311      0.0787      0.0396
        81        -0.0000     -0.1311     -0.2481      0.0787      0.0396
        82         0.0000     -0.1225      0.1152      0.0283      0.0143
        83        -0.0000     -0.1149     -0.1227      0.0283      0.0143
        84         0.0000     -0.0047      0.3060      0.0936      0.0474
        85         0.0000      0.3061      0.0047      0.0937      0.0475
        86        -0.0000      0.0877     -0.3496      0.1299      0.0664
        87         0.0000     -0.3496     -0.0877      0.1299      0.0664
        88         0.1486      0.0000      0.0000      0.0221      0.0114
        89         0.0000      0.0595      0.0158      0.0038      0.0020
        90        -0.0000      0.0158     -0.0595      0.0038      0.0020
        91         0.0000      0.0000     -0.0000      0.0000      0.0000
        92         0.0000     -0.0000      0.0000      0.0000      0.0000
        93         0.0001     -0.0383      0.1608      0.0273      0.0146
        94        -0.0000     -0.1608     -0.0383      0.0273      0.0146
        95        -0.0001      0.0037      0.1687      0.0285      0.0152
        96        -0.0000     -0.1687      0.0037      0.0285      0.0152
        97         0.3093     -0.0000      0.0000      0.0957      0.0514
        98         0.0000      0.0001      0.0000      0.0000      0.0000
        99         0.0001      0.0193     -0.0954      0.0095      0.0051
       100        -0.0000      0.0954      0.0193      0.0095      0.0051
       101         0.0000     -0.4826     -0.1875      0.2680      0.1456
       102         0.0000      0.1875     -0.4826      0.2681      0.1456
       103         0.0215      0.0001      0.0003      0.0005      0.0003
       104         0.0000      0.1466      0.0009      0.0215      0.0119
       105         0.0000     -0.0009      0.1466      0.0215      0.0119
       106         0.0000     -0.0001      0.0001      0.0000      0.0000
       107        -0.0000     -0.2229     -0.0647      0.0538      0.0306
       108        -0.0001      0.0647     -0.2229      0.0539      0.0306
       109        -0.8407     -0.0000      0.0000      0.7067      0.4024
       110        -0.0002      0.0888      0.0482      0.0102      0.0058
       111         0.0002      0.0482     -0.0887      0.0102      0.0058
       112         0.0001     -0.0068      0.0287      0.0009      0.0005
       113         0.0000      0.0286      0.0068      0.0009      0.0005
       114         0.4020     -0.0000      0.0000      0.1616      0.0936
       115        -0.2386      0.0000      0.0000      0.0569      0.0334
       116        -0.0000     -0.0090      0.0368      0.0014      0.0009
       117        -0.0000      0.0368      0.0090      0.0014      0.0009
       118         0.1874     -0.0000     -0.0000      0.0351      0.0213
       119        -0.3353      0.0000      0.0000      0.1124      0.0690
       120         0.0772      0.0000      0.0000      0.0060      0.0037
       121        -0.0000      0.0004     -0.0001      0.0000      0.0000
       122         0.0000      0.1710      0.0177      0.0295      0.0186
       123        -0.0000     -0.0178      0.1710      0.0296      0.0186
       124         0.0000     -0.0054      0.1420      0.0202      0.0128
       125        -0.0000      0.1419      0.0054      0.0202      0.0128
       126        -0.0000     -0.1494      0.1697      0.0511      0.0325
       127        -0.0000     -0.1697     -0.1494      0.0511      0.0325
       128        -0.0000      0.1503     -0.1056      0.0337      0.0216
       129         0.0000      0.1056      0.1503      0.0337      0.0216
       130         0.1957      0.0000      0.0000      0.0383      0.0248
       131         0.0000     -0.0000      0.0000      0.0000      0.0000
       132         0.4809      0.0000      0.0001      0.2312      0.1531
       133         0.0000     -0.0000     -0.0000      0.0000      0.0000
       134        -0.0000     -0.0027      0.5378      0.2892      0.1932
       135        -0.0000      0.5378      0.0027      0.2892      0.1932
       136        -0.2649      0.0001      0.0001      0.0702      0.0472
       137         0.0000      0.0191     -0.1088      0.0122      0.0082
       138         0.0000      0.1088      0.0191      0.0122      0.0082
       139         0.0000     -0.0000     -0.0000      0.0000      0.0000
       140        -0.0006      0.0553      0.5752      0.3340      0.2352
       141        -0.0001     -0.5753      0.0553      0.3340      0.2352
       142        -0.5437      0.0000     -0.0006      0.2956      0.2084
       143        -0.0000     -0.0223     -0.0098      0.0006      0.0004
       144         0.0000     -0.0097      0.0222      0.0006      0.0004
       145         0.0188      0.0000      0.0000      0.0004      0.0003
       146        -0.0000     -0.0762      0.3202      0.1083      0.0788
       147        -0.0000      0.3202      0.0762      0.1083      0.0788
       148        -0.3388      0.0000      0.0000      0.1148      0.0851
       149         0.0845     -0.0000     -0.0000      0.0071      0.0053
       150         0.0000     -0.0000      0.0000      0.0000      0.0000
       151         0.0000     -0.0124      0.1564      0.0246      0.0186
       152        -0.0000     -0.1562     -0.0123      0.0246      0.0186
       153        -0.0000     -0.0974      0.3170      0.1100      0.0833
       154        -0.0000     -0.3171     -0.0974      0.1100      0.0834
       155        -0.0641      0.0000     -0.0000      0.0041      0.0031
       156        -0.0231     -0.0000     -0.0000      0.0005      0.0004
       157        -0.0000     -0.1155      0.0827      0.0202      0.0156
       158        -0.0000     -0.0827     -0.1155      0.0202      0.0156
       159         0.0000      0.0089     -0.2663      0.0710      0.0557
       160         0.0000     -0.2663     -0.0089      0.0710      0.0557
       161        -0.0000     -0.0000      0.0000      0.0000      0.0000
       162        -0.0000      0.0021     -0.0340      0.0012      0.0009
       163         0.0000      0.0339      0.0021      0.0012      0.0009
       164         0.0869      0.0000      0.0000      0.0076      0.0060
       165         0.0000     -0.3918      0.2721      0.2276      0.1815
       166        -0.0000     -0.2721     -0.3918      0.2276      0.1815
       167        -0.1036      0.0000      0.0000      0.0107      0.0086
       168         0.0000     -0.0000     -0.0001      0.0000      0.0000
       169         0.0000      0.0367      0.2128      0.0466      0.0378
       170         0.0000      0.2127     -0.0367      0.0466      0.0378
       171        -0.0000     -0.1109      0.0477      0.0146      0.0119
       172         0.0000     -0.0477     -0.1109      0.0146      0.0119
       173        -0.0000     -0.1081      0.0776      0.0177      0.0145
       174         0.0000     -0.0776     -0.1080      0.0177      0.0145
       175        -0.2275      0.0000     -0.0000      0.0518      0.0432
       176         0.0001      0.0062     -0.0340      0.0012      0.0010
       177         0.0000     -0.0340     -0.0062      0.0012      0.0010
       178         0.0000      0.0000      0.0000      0.0000      0.0000
       179        -0.2039      0.0000     -0.0000      0.0416      0.0353
       180        -0.0001     -0.0005      0.0191      0.0004      0.0003
       181         0.0000     -0.0191     -0.0005      0.0004      0.0003
       182        -0.1647      0.0000      0.0000      0.0271      0.0234
       183        -0.0002     -0.0452      0.1790      0.0341      0.0297
       184        -0.0001      0.1791      0.0452      0.0341      0.0297
       185         0.4277      0.0000      0.0001      0.1829      0.1596
       186        -0.0000     -0.0482      0.0004      0.0023      0.0020
       187        -0.0000     -0.0005     -0.0482      0.0023      0.0020
       188         0.3242      0.0000     -0.0000      0.1051      0.0927
       189        -0.0000      0.0110     -0.0357      0.0014      0.0012
       190        -0.0000      0.0357      0.0110      0.0014      0.0012
       191        -0.0000     -0.0000     -0.0001      0.0000      0.0000
       192         0.0000     -0.0312      0.0821      0.0077      0.0070
       193         0.0000      0.0821      0.0312      0.0077      0.0070
       194         0.0886     -0.0000      0.0001      0.0078      0.0071
       195        -0.0001      0.0297      0.1419      0.0210      0.0190
       196        -0.0000      0.1419     -0.0298      0.0210      0.0190
       197        -0.1426     -0.0000     -0.0004      0.0203      0.0186
       198         0.0002     -0.2060     -0.2615      0.1108      0.1015
       199        -0.0001     -0.2615      0.2059      0.1108      0.1015
       200         0.0000      0.2615     -0.0726      0.0737      0.0678
       201        -0.0000      0.0725      0.2616      0.0737      0.0678
       202         0.0385      0.0000      0.0001      0.0015      0.0014
       203         0.0000     -0.1640      0.0088      0.0270      0.0250
       204        -0.0000     -0.0088     -0.1640      0.0270      0.0250
       205         0.0000      0.0001     -0.0000      0.0000      0.0000
       206        -0.0000      0.0001      0.0775      0.0060      0.0056
       207         0.0000      0.0775     -0.0001      0.0060      0.0056
       208         0.0000      0.1720      0.0094      0.0297      0.0279
       209        -0.0000      0.0094     -0.1720      0.0297      0.0279
       210        -0.0788      0.0000     -0.0000      0.0062      0.0059
       211        -0.0000      0.0530     -0.0345      0.0040      0.0038
       212        -0.0000      0.0345      0.0530      0.0040      0.0038
       213        -0.0028     -0.0000      0.0000      0.0000      0.0000
       214        -0.0711     -0.0000      0.0000      0.0051      0.0050
       215         0.0000     -0.0000     -0.0000      0.0000      0.0000
       216        -0.0000     -0.0017      0.0077      0.0001      0.0001
       217         0.0000     -0.0077     -0.0017      0.0001      0.0001
       218        -0.0000     -0.0195      0.0726      0.0056      0.0057
       219        -0.0000      0.0726      0.0195      0.0057      0.0057
       220        -0.0140     -0.0000     -0.0000      0.0002      0.0002
       221         0.0000      0.0291      0.0133      0.0010      0.0011
       222        -0.0000      0.0133     -0.0291      0.0010      0.0011
       223        -0.0222      0.0000      0.0000      0.0005      0.0005
       224        -0.1354      0.0000      0.0000      0.0183      0.0192
       225         0.0000      0.0113      0.0426      0.0019      0.0020
       226        -0.0001      0.0426     -0.0113      0.0019      0.0020
       227        -0.1217     -0.0000      0.0000      0.0148      0.0155
       228         0.0169     -0.0000     -0.0000      0.0003      0.0003
       229         0.0000     -0.3331     -0.0074      0.1110      0.1192
       230         0.0000     -0.0074      0.3331      0.1110      0.1192
       231        -0.0000      0.0698     -0.0408      0.0065      0.0071
       232         0.0000      0.0408      0.0698      0.0065      0.0071
       233        -0.0870      0.0000     -0.0000      0.0076      0.0088
       234        -0.0150      0.0000      0.0000      0.0002      0.0003
       235        -0.0000     -0.0265      0.0887      0.0086      0.0103
       236         0.0000     -0.0887     -0.0265      0.0086      0.0103
       237         0.0000     -0.0000      0.0000      0.0000      0.0000
       238         0.0000      0.0611     -0.1540      0.0274      0.0333
       239        -0.0000      0.1540      0.0611      0.0274      0.0333
       240         0.4188      0.0000      0.0000      0.1754      0.2160
       241         0.0000     -0.0050     -0.0405      0.0017      0.0021
       242         0.0000     -0.0405      0.0050      0.0017      0.0021
       243        -0.0000     -0.0631      0.0237      0.0045      0.0058
       244        -0.0000      0.0237      0.0630      0.0045      0.0058
       245         0.0000      0.0000      0.0000      0.0000      0.0000
       246        -0.0000      0.0000     -0.0000      0.0000      0.0000
       247        -0.0001     -0.0242      0.0773      0.0066      0.0085
       248         0.0001     -0.0774     -0.0242      0.0066      0.0085
       249         0.2505      0.0000      0.0001      0.0628      0.0818
       250        -0.0006     -0.0109      0.0238      0.0007      0.0009
       251         0.0005     -0.0239     -0.0109      0.0007      0.0009
       252        -0.0000      0.0666     -0.3075      0.0990      0.1299
       253         0.0000      0.3075      0.0666      0.0990      0.1299
       254         0.1369     -0.0000      0.0000      0.0187      0.0248
       255        -0.2917      0.0000     -0.0000      0.0851      0.1143
       256        -0.0000     -0.0221     -0.1358      0.0189      0.0256
       257        -0.0000     -0.1358      0.0221      0.0189      0.0256
       258        -0.0000      0.0398      0.1569      0.0262      0.0357
       259        -0.0000      0.1569     -0.0398      0.0262      0.0357
       260        -0.0728     -0.0000     -0.0000      0.0053      0.0072
       261         0.0000     -0.0483      0.0616      0.0061      0.0084
       262         0.0000      0.0616      0.0483      0.0061      0.0084
       263         0.0000      0.0000      0.0000      0.0000      0.0000
       264        -0.0000     -0.0192      0.0188      0.0007      0.0010
       265        -0.0000      0.0188      0.0192      0.0007      0.0010
       266         0.0000     -0.0752     -0.0008      0.0057      0.0079
       267         0.0000     -0.0008      0.0752      0.0056      0.0079
       268        -0.0000      0.1420      0.0417      0.0219      0.0306
       269         0.0000      0.0417     -0.1421      0.0219      0.0306
       270         0.0000     -0.0000      0.0000      0.0000      0.0000
       271         0.2313     -0.0000      0.0000      0.0535      0.0752
       272        -0.0000      0.0055     -0.0377      0.0014      0.0021
       273         0.0000     -0.0377     -0.0055      0.0015      0.0021
       274        -0.0000      0.0221     -0.1018      0.0108      0.0157
       275        -0.0000      0.1018      0.0221      0.0108      0.0157
       276        -0.0903     -0.0000      0.0000      0.0081      0.0119
       277         0.0507      0.0000     -0.0000      0.0026      0.0038
       278        -0.0000     -0.0165     -0.0783      0.0064      0.0094
       279         0.0000     -0.0783      0.0165      0.0064      0.0094
       280        -0.0000      0.0001      0.0002      0.0000      0.0000
       281         0.0000      0.0143     -0.0245      0.0008      0.0012
       282        -0.0000     -0.0244     -0.0143      0.0008      0.0012
       283         0.1985     -0.0000      0.0000      0.0394      0.0594
       284        -0.0000     -0.0881      0.0932      0.0164      0.0250
       285        -0.0000      0.0932      0.0881      0.0164      0.0250
       286        -0.0000     -0.0000      0.0000      0.0000      0.0000
       287         0.0631     -0.0000      0.0000      0.0040      0.0062
       288         0.0000      0.0002      0.0003      0.0000      0.0000
       289        -0.0000     -0.0198      0.0540      0.0033      0.0052
       290        -0.0000     -0.0540     -0.0198      0.0033      0.0052
       291         0.0000      0.0574     -0.0309      0.0043      0.0067
       292         0.0000     -0.0309     -0.0574      0.0042      0.0067
       293        -0.0000     -0.0525      0.0523      0.0055      0.0087
       294         0.0000      0.0523      0.0525      0.0055      0.0087
       295         0.0793      0.0000     -0.0000      0.0063      0.0100
       296         0.0245     -0.0000      0.0000      0.0006      0.0010
       297        -0.0000     -0.0525      0.0004      0.0028      0.0044
       298         0.0000     -0.0004     -0.0525      0.0028      0.0044
       299        -0.0000     -0.0000     -0.0000      0.0000      0.0000
       300         0.0962     -0.0000     -0.0000      0.0093      0.0155
       301        -0.0000      0.0066     -0.1353      0.0184      0.0307
       302        -0.0000     -0.1353     -0.0066      0.0184      0.0307
       303        -0.0000      0.0491     -0.0125      0.0026      0.0044
       304        -0.0000     -0.0125     -0.0492      0.0026      0.0044
       305        -0.0000      0.0000      0.0000      0.0000      0.0000
       306        -0.0000     -0.0032     -0.1145      0.0131      0.0223
       307         0.0000     -0.1144      0.0030      0.0131      0.0223
       308        -0.0000     -0.0744      0.0485      0.0079      0.0134
       309        -0.0000      0.0484      0.0741      0.0078      0.0134
       310         0.0689      0.0000     -0.0000      0.0047      0.0081
       311        -0.0000      0.0056      0.1240      0.0154      0.0265
       312         0.0000      0.1240     -0.0056      0.0154      0.0265
       313        -0.0313     -0.0000      0.0000      0.0010      0.0017
       314         0.0000     -0.0189      0.0847      0.0075      0.0132
       315         0.0000     -0.0846     -0.0189      0.0075      0.0132
       316        -0.0000      0.0379     -0.1960      0.0399      0.0705
       317         0.0000     -0.1960     -0.0379      0.0399      0.0705
       318         0.0509      0.0000      0.0000      0.0026      0.0046
       319        -0.0000     -0.0098      0.0395      0.0017      0.0030
       320        -0.0000      0.0395      0.0098      0.0017      0.0030
       321         0.0024     -0.0000     -0.0000      0.0000      0.0000
       322        -0.0000     -0.0148     -0.0420      0.0020      0.0036
       323         0.0000     -0.0422      0.0149      0.0020      0.0037
       324         0.0000      0.1302     -0.1633      0.0436      0.0802
       325        -0.0000     -0.1633     -0.1302      0.0436      0.0802
       326        -0.0000      0.0000     -0.0000      0.0000      0.0000
       327         0.0000      0.0000     -0.0000      0.0000      0.0000
       328         0.0007     -0.0159     -0.0128      0.0004      0.0008
       329         0.0008      0.0128     -0.0159      0.0004      0.0008
       330        -0.1353      0.0000     -0.0002      0.0183      0.0341
       331        -0.1305      0.0000      0.0000      0.0170      0.0325
       332         0.0000     -0.0000     -0.0000      0.0000      0.0000
       333        -0.0209      0.0000      0.0000      0.0004      0.0009
       334         0.1998      0.0000      0.0000      0.0399      0.0778
       335        -0.0001      0.0056      0.0251      0.0007      0.0013
       336        -0.0000      0.0252     -0.0056      0.0007      0.0013
       337         0.0000     -0.0041      0.1384      0.0192      0.0376
       338        -0.0000     -0.1384     -0.0041      0.0192      0.0376
       339        -0.0980      0.0000      0.0000      0.0096      0.0189
       340        -0.0000     -0.0789      0.0455      0.0083      0.0168
       341        -0.0000      0.0455      0.0788      0.0083      0.0168
       342        -0.0000      0.0143     -0.0597      0.0038      0.0077
       343        -0.0000     -0.0597     -0.0143      0.0038      0.0077
       344         0.1073     -0.0000      0.0000      0.0115      0.0236
       345         0.0000      0.0012     -0.0595      0.0035      0.0074
       346        -0.0000      0.0595      0.0012      0.0035      0.0074
       347        -0.0000     -0.0124      0.0472      0.0024      0.0051
       348        -0.0000      0.0472      0.0124      0.0024      0.0051
       349         0.0041     -0.0000     -0.0000      0.0000      0.0000
       350         0.0000     -0.0299     -0.0717      0.0060      0.0130
       351        -0.0000     -0.0717      0.0299      0.0060      0.0130
       352         0.0971      0.0000     -0.0000      0.0094      0.0208
       353         0.0001      0.0167      0.0244      0.0009      0.0019
       354         0.0001     -0.0244      0.0167      0.0009      0.0019
       355         0.0000     -0.0000     -0.0000      0.0000      0.0000
       356         0.0256     -0.0000     -0.0000      0.0007      0.0015
       357         0.0330     -0.0000      0.0000      0.0011      0.0025
       358        -0.0614     -0.0000      0.0001      0.0038      0.0086
       359         0.0000      0.0038      0.0008      0.0000      0.0000
       360        -0.0000      0.1308     -0.0068      0.0172      0.0395
       361        -0.0001     -0.0068     -0.1309      0.0172      0.0395
       362        -0.0439     -0.0000      0.0001      0.0019      0.0044
       363        -0.0000     -0.0198      0.0031      0.0004      0.0009
       364         0.0000     -0.0031     -0.0197      0.0004      0.0009
       365         0.0000     -0.0001      0.0076      0.0001      0.0001
       366        -0.0000     -0.0076     -0.0001      0.0001      0.0001
       367         0.0033      0.0000     -0.0000      0.0000      0.0000
       368        -0.0000      0.0000      0.0000      0.0000      0.0000
       369        -0.0000     -0.0858      0.0118      0.0075      0.0183
       370        -0.0000     -0.0118     -0.0858      0.0075      0.0182
       371         0.0000      0.0216     -0.1226      0.0155      0.0386
       372        -0.0000      0.1226      0.0216      0.0155      0.0386
       373         0.0000     -0.1205      0.1302      0.0315      0.0784
       374        -0.0000     -0.1302     -0.1205      0.0315      0.0784
       375        -0.0000      0.0000     -0.0000      0.0000      0.0000
       376         0.0000     -0.0023      0.0003      0.0000      0.0000
       377        -0.0000      0.0003      0.0023      0.0000      0.0000
       378        -0.0068      0.0000      0.0000      0.0000      0.0001
       379         0.0000      0.0000     -0.0000      0.0000      0.0000
       380        -0.0000      0.0509     -0.1116      0.0151      0.0385
       381         0.0001      0.1116      0.0509      0.0151      0.0385
       382        -0.1681      0.0000      0.0000      0.0283      0.0723
       383        -0.0001     -0.0031     -0.0022      0.0000      0.0000
       384        -0.0001      0.0022     -0.0031      0.0000      0.0000
       385         0.0657     -0.0000     -0.0000      0.0043      0.0112
       386        -0.0000     -0.0000      0.0000      0.0000      0.0000
       387        -0.3071     -0.0000     -0.0000      0.0943      0.2498
       388        -0.0000     -0.1063      0.3310      0.1209      0.3236
       389         0.0000     -0.3310     -0.1063      0.1209      0.3236
       390         0.0000      0.0038     -0.0003      0.0000      0.0000
       391        -0.0000     -0.0003     -0.0038      0.0000      0.0000
       392         0.0000     -0.0067      0.0158      0.0003      0.0008
       393        -0.0000     -0.0158     -0.0067      0.0003      0.0008
       394         0.0000     -0.0503      0.0068      0.0026      0.0071
       395        -0.0000     -0.0068     -0.0503      0.0026      0.0071
       396        -0.0000      0.0786     -0.3513      0.1296      0.3633
       397        -0.0000     -0.3513     -0.0786      0.1296      0.3633
       398         0.0000      0.0886     -0.2682      0.0798      0.2288
       399         0.0000     -0.2682     -0.0886      0.0798      0.2288
       400         0.3922     -0.0000      0.0000      0.1538      0.4484
       401        -0.1282     -0.0000      0.0000      0.0164      0.0494
       402        -0.0000      0.0011     -0.0001      0.0000      0.0000
       403        -0.0000     -0.0001     -0.0011      0.0000      0.0000
       404         0.0000      0.0308     -0.0649      0.0052      0.0159
       405         0.0000      0.0649      0.0308      0.0052      0.0159
       406        -0.0298      0.0000      0.0000      0.0009      0.0029
 Ground to excited state transition velocity dipole moments (Au):
       state          X           Y           Z        Dip. S.      Osc.
         1         0.0000     -0.0027      0.1069      0.0114      0.0229
         2         0.0000      0.1069      0.0027      0.0114      0.0229
         3        -0.0000     -0.0031      0.0970      0.0094      0.0175
         4         0.0000      0.0970      0.0031      0.0094      0.0175
         5         0.0000      0.0535      0.1320      0.0203      0.0334
[...]
      2   0.164763D-05 -0.143013D-04  0.286404D-05  0.980346D-01  0.166684D-04
      3   0.252116D-01 -0.466730D-02 -0.138377D+00  0.000000D+00 -0.790516D-01
      4   0.545909D-02 -0.138394D+00  0.467185D-02 -0.251455D-04 -0.451860D-01
      5  -0.178814D-04  0.579536D-04 -0.116378D-04 -0.283829D+00 -0.514714D-04
      6  -0.757499D-01  0.121258D-01  0.359523D+00  0.000000D+00  0.237683D+00
      7  -0.164045D-01  0.359566D+00 -0.121385D-01  0.707618D-04  0.135859D+00
      8   0.106160D-03 -0.152340D-05 -0.247017D-04  0.000000D+00  0.000000D+00
      9  -0.175998D-01 -0.588500D-01  0.199028D-02  0.194961D-05 -0.186255D+00
     10   0.811392D-01  0.198273D-02  0.588900D-01  0.000000D+00  0.325854D+00
     11  -0.194541D-03  0.429437D-03 -0.444995D-04 -0.225998D+01 -0.167698D-03
     12   0.137221D-01  0.274066D+00  0.405442D-03 -0.875699D+00  0.262310D-02
     13  -0.138251D-01 -0.273726D+00 -0.440205D-03 -0.875776D+00 -0.258104D-02
     14   0.259997D+00  0.405899D-02  0.120477D+00  0.528459D-05  0.265510D+00
     15   0.563901D-01  0.120346D+00 -0.406740D-02 -0.308604D-04  0.151759D+00
     16   0.541339D-01 -0.409955D-03  0.273941D+00 -0.134703D-05  0.419721D-02
               341           342           343           344           345 
      1  -0.136611D+03 -0.136594D+03 -0.136594D+03 -0.136572D+03 -0.136518D+03
      2   0.883615D-05  0.000000D+00  0.851741D-05 -0.107348D+00 -0.151522D-05
      3   0.451871D-01  0.145096D-01 -0.596206D-01 -0.129939D-04  0.142891D-02
      4  -0.790409D-01  0.596255D-01  0.145179D-01 -0.107407D-04  0.594818D-01
      5  -0.245854D-04  0.000000D+00 -0.225598D-04  0.322571D+00  0.393001D-05
      6  -0.135866D+00 -0.383674D-01  0.157660D+00  0.403610D-04 -0.379383D-02
      7   0.237655D+00 -0.157669D+00 -0.383917D-01  0.322480D-04 -0.157948D+00
      8   0.000000D+00 -0.288493D-05  0.769282D-05  0.000000D+00  0.000000D+00
      9  -0.325840D+00 -0.385393D-01 -0.935520D-02 -0.430554D-04  0.123807D+00
     10  -0.186284D+00  0.941429D-02 -0.385668D-01  0.508607D-04 -0.297082D-02
     11  -0.590482D-04  0.113549D-04 -0.112423D-04  0.877650D+00 -0.123336D-04
     12   0.419628D-02 -0.921770D-01 -0.190230D-01 -0.174740D+00  0.181846D+00
     13  -0.418101D-02  0.921644D-01  0.190253D-01 -0.174742D+00 -0.181823D+00
     14  -0.151802D+00  0.546820D-01 -0.224549D+00  0.445697D-04 -0.304119D-03
     15   0.265519D+00  0.224540D+00  0.546374D-01  0.269405D-04 -0.127339D-01
     16  -0.259210D-02 -0.190249D-01  0.921862D-01  0.291705D-05 -0.203956D-02
               346           347           348           349           350 
      1  -0.136518D+03 -0.136459D+03 -0.136459D+03 -0.136435D+03 -0.136411D+03
      2   0.000000D+00  0.225618D-05  0.000000D+00 -0.409332D-02  0.000000D+00
      3   0.594796D-01 -0.126487D-01  0.471395D-01 -0.315924D-05 -0.296294D-01
      4  -0.143009D-02 -0.471318D-01 -0.126435D-01  0.743508D-05  0.718433D-01
      5   0.000000D+00 -0.440392D-05 -0.116122D-05  0.405474D-01  0.000000D+00
      6  -0.157942D+00  0.226148D-01 -0.842773D-01  0.894798D-05  0.110481D+00
      7   0.379796D-02  0.842543D-01  0.226008D-01 -0.207866D-04 -0.267884D+00
      8   0.000000D+00  0.199289D-05 -0.529392D-05  0.000000D+00  0.000000D+00
      9  -0.297997D-02  0.760536D-01  0.204013D-01  0.152519D-04  0.408570D+00
     10  -0.123803D+00 -0.204087D-01  0.760566D-01 -0.138563D-05  0.168503D+00
     11   0.000000D+00 -0.439239D-04 -0.395739D-04 -0.619297D+00  0.894770D-05
     12   0.204150D-02 -0.102722D+00 -0.237162D-01  0.166663D+00 -0.348548D-01
     13  -0.204211D-02  0.102716D+00  0.237082D-01  0.166684D+00  0.348327D-01
     14  -0.127266D-01 -0.428280D-01  0.159618D+00 -0.109983D-04  0.254015D+00
     15   0.307799D-03 -0.159608D+00 -0.428177D-01 -0.174773D-04 -0.615905D+00
     16   0.181836D+00 -0.237111D-01  0.102717D+00 -0.270228D-05  0.158277D-01
               351           352           353           354           355 
      1  -0.136411D+03 -0.136340D+03 -0.136333D+03 -0.136333D+03 -0.136324D+03
      2   0.339025D-05 -0.971054D-01 -0.645505D-04 -0.857283D-04  0.000000D+00
      3  -0.718438D-01  0.111875D-04  0.165994D-01 -0.244664D-01 -0.284837D-04
      4  -0.296305D-01  0.319352D-04 -0.244673D-01 -0.165989D-01  0.841444D-05
      5  -0.103042D-04  0.257998D+00  0.172647D-03  0.228109D-03  0.000000D+00
      6   0.267887D+00 -0.442649D-04 -0.645286D-01  0.951116D-01  0.114203D-03
      7   0.110484D+00 -0.123294D-03  0.951136D-01  0.645267D-01 -0.329234D-04
      8   0.130321D-05  0.000000D+00 -0.124989D-04  0.868629D-05 -0.151697D-01
      9  -0.168507D+00 -0.499901D-03  0.399208D+00  0.270835D+00 -0.142288D-03
     10   0.408576D+00  0.183835D-03  0.270837D+00 -0.399206D+00 -0.507802D-03
     11  -0.377715D-04 -0.603703D+00 -0.391324D-03 -0.567214D-03 -0.119299D-05
     12   0.158405D-01 -0.251504D-01  0.638561D-01  0.466813D-01 -0.178226D-04
     13  -0.158193D-01 -0.249699D-01 -0.638884D-01 -0.467272D-01  0.175382D-04
     14   0.615917D+00  0.888626D-04  0.139703D+00 -0.205916D+00 -0.266989D-03
     15   0.254017D+00  0.255501D-03 -0.205906D+00 -0.139690D+00  0.751182D-04
     16   0.348412D-01 -0.292268D-04 -0.466957D-01  0.638641D-01  0.830185D-04
               356           357           358           359           360 
      1  -0.136284D+03 -0.136244D+03 -0.136205D+03 -0.136195D+03 -0.136195D+03
      2  -0.255725D-01 -0.330104D-01  0.613945D-01  0.000000D+00  0.283598D-04
      3  -0.219754D-05  0.000000D+00 -0.333087D-04  0.376030D-02  0.130856D+00
      4   0.247002D-05 -0.483139D-05 -0.931053D-04 -0.839749D-03  0.622577D-02
      5   0.133517D+00  0.856866D-01 -0.225783D+00  0.000000D+00 -0.109373D-03
      6   0.683568D-05  0.157820D-05  0.940737D-04 -0.106506D-01 -0.370752D+00
      7  -0.910956D-05  0.132494D-04  0.262094D-03  0.237780D-02 -0.176401D-01
      8   0.000000D+00  0.000000D+00  0.000000D+00 -0.167926D-01  0.477456D-03
      9   0.682442D-05  0.791505D-05  0.133899D-03  0.108676D-02 -0.804505D-02
     10   0.704851D-05  0.000000D+00 -0.472257D-04  0.486194D-02  0.169092D+00
     11   0.416820D+00 -0.402630D+00  0.196216D+00  0.000000D+00 -0.176505D-03
     12  -0.664001D+00  0.107821D+00  0.317015D+00  0.211213D-03 -0.282004D-02
     13  -0.664004D+00  0.107828D+00  0.316931D+00 -0.212237D-03  0.334317D-02
     14   0.862918D-05 -0.787247D-05 -0.474671D-04  0.669393D-02  0.235742D+00
     15  -0.167439D-04 -0.842818D-05 -0.157511D-03 -0.149178D-02  0.112217D-01
     16   0.000000D+00  0.481398D-05  0.205947D-04 -0.112466D-02 -0.371260D-01
               361           362           363           364           365 
      1  -0.136195D+03 -0.136190D+03 -0.136184D+03 -0.136184D+03 -0.136025D+03
      2   0.634391D-04  0.438957D-01  0.000000D+00  0.000000D+00 -0.169816D-05
      3  -0.620148D-02 -0.229422D-04 -0.197864D-01 -0.296563D-02 -0.168290D-03
      4   0.130920D+00 -0.612622D-04 -0.296565D-02  0.197023D-01 -0.763176D-02
      5  -0.248027D-03 -0.189966D+00 -0.575142D-05  0.559108D-05  0.533446D-05
      6   0.175696D-01  0.649090D-04  0.519200D-01  0.778057D-02  0.130998D-02
      7  -0.370929D+00  0.172802D-03  0.778050D-02 -0.516809D-01  0.594518D-01
      8  -0.129621D-03  0.000000D+00 -0.366292D-05 -0.222100D-05  0.000000D+00
      9  -0.169184D+00  0.886420D-04  0.473978D-02 -0.314664D-01 -0.212379D+00
     10  -0.801394D-02 -0.312214D-04 -0.315845D-01 -0.473062D-02  0.467701D-02
     11  -0.324536D-03 -0.893163D+00 -0.154080D-03  0.120154D-03  0.122425D-04
     12  -0.366185D-01  0.799363D+00  0.256645D-01 -0.137239D+00 -0.342097D-01
     13   0.378435D-01  0.799369D+00 -0.255013D-01  0.137083D+00  0.341927D-01
     14  -0.111577D-01 -0.777537D-04  0.218535D+00  0.328419D-01  0.909481D-02
     15   0.235678D+00 -0.163595D-03  0.328302D-01 -0.218697D+00  0.412897D+00
     16   0.308101D-02 -0.105393D-04  0.137184D+00  0.255693D-01  0.450995D-03
               366           367           368           369           370 
      1  -0.136025D+03 -0.136016D+03 -0.136016D+03 -0.135997D+03 -0.135997D+03
      2   0.104954D-05 -0.331390D-02  0.000000D+00  0.000000D+00  0.000000D+00
      3  -0.764136D-02  0.000000D+00  0.286087D-05 -0.858439D-01 -0.114343D-01
      4   0.168488D-03  0.131603D-05  0.000000D+00 -0.114339D-01  0.858392D-01
      5  -0.334044D-05 -0.281390D-03  0.000000D+00  0.000000D+00 -0.182707D-05
      6   0.594766D-01  0.000000D+00 -0.881937D-05  0.214408D+00  0.285592D-01
      7  -0.131244D-02 -0.342073D-05  0.244541D-05  0.285577D-01 -0.214397D+00
      8   0.000000D+00  0.000000D+00  0.256908D-02  0.000000D+00  0.123717D-05
      9   0.468836D-02  0.355727D-05 -0.223926D-05  0.552811D-01 -0.415039D+00
     10   0.212345D+00  0.000000D+00 -0.103617D-04 -0.415051D+00 -0.552869D-01
     11  -0.110167D-04 -0.101028D+00  0.102116D-05  0.000000D+00  0.607449D-05
     12  -0.453518D-03  0.200696D-01  0.000000D+00 -0.203413D-01  0.120194D+00
     13   0.451301D-03  0.200729D-01  0.000000D+00  0.203465D-01 -0.120197D+00
     14   0.412871D+00  0.180845D-05 -0.631834D-05 -0.310611D+00 -0.413793D-01
     15  -0.911378D-02  0.000000D+00  0.105303D-05 -0.413639D-01  0.310584D+00
     16  -0.342155D-01  0.118616D-05  0.000000D+00 -0.120194D+00 -0.203444D-01
               371           372           373           374           375 
      1  -0.135914D+03 -0.135914D+03 -0.135909D+03 -0.135909D+03 -0.135890D+03
      2  -0.238606D-05  0.164971D-05  0.000000D+00  0.442869D-05  0.000000D+00
      3   0.221633D-01  0.122475D+00 -0.121042D+00 -0.129658D+00  0.239027D-05
      4   0.122478D+00 -0.221613D-01 -0.129655D+00  0.121043D+00  0.775982D-05
      5   0.763850D-05 -0.578637D-05  0.000000D+00 -0.144951D-04  0.000000D+00
      6  -0.736144D-01 -0.406793D+00  0.406415D+00  0.435341D+00 -0.820630D-05
      7  -0.406806D+00  0.736075D-01  0.435331D+00 -0.406416D+00 -0.271655D-04
      8  -0.137964D-05  0.000000D+00  0.210239D-05  0.000000D+00  0.103900D-01
      9   0.437600D+00 -0.791805D-01 -0.445574D+00  0.415979D+00  0.247220D-04
     10  -0.791862D-01 -0.437589D+00  0.415983D+00  0.445590D+00 -0.934012D-05
     11   0.366514D-04 -0.242036D-04 -0.708173D-05 -0.502288D-04  0.000000D+00
     12   0.239606D-01 -0.347358D-02  0.117170D-01 -0.101855D-01 -0.272449D-05
     13  -0.239593D-01  0.346880D-02 -0.117138D-01  0.101877D-01  0.272177D-05
     14  -0.832355D-01 -0.459980D+00  0.296937D+00  0.318074D+00 -0.168877D-05
     15  -0.459988D+00  0.832341D-01  0.318058D+00 -0.296935D+00 -0.135511D-04
     16   0.346646D-02  0.239641D-01  0.101906D-01  0.117155D-01  0.000000D+00
               376           377           378           379           380 
      1  -0.135850D+03 -0.135850D+03 -0.135845D+03 -0.135845D+03 -0.135810D+03
      2  -0.114570D-05  0.358727D-05  0.677038D-02  0.000000D+00  0.240291D-04
      3  -0.230584D-02  0.305884D-03  0.389822D-05  0.123314D-04  0.513679D-01
      4  -0.312430D-03 -0.231302D-02 -0.514422D-05  0.309948D-05  0.111408D+00
      5   0.340881D-05 -0.108339D-04 -0.164976D-01  0.000000D+00 -0.791036D-04
      6   0.134725D-02 -0.170690D-03 -0.131890D-04 -0.393667D-04 -0.160265D+00
      7   0.193087D-03  0.137037D-02  0.181046D-04 -0.999663D-05 -0.347585D+00
      8   0.000000D+00  0.000000D+00  0.000000D+00 -0.226756D-02  0.000000D+00
      9   0.537598D-02  0.402452D-01 -0.325374D-04  0.102669D-04  0.423952D+00
     10  -0.402652D-01  0.540192D-02 -0.175634D-04 -0.352131D-04 -0.195472D+00
     11   0.566503D-05 -0.198070D-04  0.101887D+00  0.000000D+00 -0.324119D-03
     12  -0.187735D-01 -0.110471D+00  0.346422D-02  0.106420D-04  0.186258D-01
     13   0.187723D-01  0.110473D+00  0.343105D-02 -0.106545D-04 -0.186141D-01
     14  -0.480152D-01  0.643969D-02 -0.158495D-04 -0.237314D-04 -0.115880D+00
     15  -0.641439D-02 -0.480042D-01  0.267770D-04 -0.575860D-05 -0.251327D+00
     16  -0.110470D+00  0.187731D-01 -0.105080D-04  0.138674D-04  0.780376D-02
               381           382           383           384           385 
      1  -0.135810D+03 -0.135809D+03 -0.135750D+03 -0.135750D+03 -0.135750D+03
      2  -0.540340D-04  0.168094D+00  0.761766D-04  0.518930D-04 -0.657364D-01
      3   0.111414D+00  0.316616D-04 -0.304712D-02  0.222753D-02 -0.132672D-05
      4  -0.513698D-01 -0.347398D-04  0.222698D-02  0.304153D-02  0.521117D-05
      5   0.177772D-03 -0.554144D+00 -0.260098D-03 -0.176745D-03  0.223715D+00
      6  -0.347606D+00 -0.997345D-04  0.152179D-01 -0.111280D-01  0.912616D-05
      7   0.160271D+00  0.108504D-03 -0.111259D-01 -0.151999D-01 -0.283504D-04
      8   0.000000D+00  0.000000D+00  0.000000D+00  0.000000D+00  0.000000D+00
      9  -0.195487D+00 -0.130562D-03  0.164682D-01  0.225009D-01  0.530057D-04
     10  -0.423977D+00 -0.110871D-03  0.225243D-01 -0.164724D-01  0.191838D-04
     11   0.716379D-03 -0.224092D+01 -0.634468D-03 -0.438398D-03  0.579874D+00
     12  -0.781379D-02  0.377193D-01 -0.168962D-01 -0.250107D-01 -0.939310D-01
     13   0.778745D-02  0.377269D-01  0.171673D-01  0.251747D-01 -0.938503D-01
     14  -0.251358D+00 -0.696064D-04 -0.901590D-01  0.659633D-01 -0.617146D-04
     15   0.115897D+00  0.881446D-04  0.659718D-01  0.901775D-01  0.150536D-03
     16   0.186222D-01  0.547975D-05  0.250949D-01 -0.170369D-01  0.236193D-04
               386           387           388           389           390 
      1  -0.135741D+03 -0.135675D+03 -0.135632D+03 -0.135632D+03 -0.135616D+03
      2   0.000000D+00  0.307101D+00  0.000000D+00 -0.246374D-05  0.000000D+00
      3  -0.249606D-05 -0.270550D-05 -0.107725D+00 -0.330565D+00  0.379071D-02
      4  -0.281617D-05  0.244877D-05 -0.330567D+00  0.107722D+00  0.239573D-03
      5   0.000000D+00 -0.107042D+01 -0.175882D-05  0.871227D-05  0.000000D+00
      6   0.826637D-05  0.897550D-05  0.368370D+00  0.113039D+01 -0.612015D-02
      7   0.105646D-04 -0.838256D-05  0.113039D+01 -0.368362D+00 -0.388808D-03
      8  -0.137806D-01  0.000000D+00  0.501280D-05  0.110888D-05  0.000000D+00
      9  -0.897312D-05  0.140669D-04 -0.167195D+01  0.544843D+00 -0.624565D-02
     10   0.122883D-04  0.160199D-04  0.544852D+00  0.167194D+01  0.993599D-01
     11   0.000000D+00 -0.304321D+01 -0.330486D-05  0.307111D-04 -0.370430D-05
     12   0.656428D-05 -0.842634D-01  0.151388D-03 -0.343071D-04  0.230082D-01
     13  -0.656081D-05 -0.842620D-01 -0.156351D-03  0.439956D-04 -0.230083D-01
     14   0.121558D-04  0.636023D-05  0.578076D+00  0.177389D+01  0.917597D-01
     15  -0.140303D-05 -0.757539D-05  0.177390D+01 -0.578064D+00  0.576494D-02
     16  -0.179158D-05  0.000000D+00  0.447134D-04  0.138109D-03  0.233803D+00
               391           392           393           394           395 
      1  -0.135616D+03 -0.135529D+03 -0.135529D+03 -0.135495D+03 -0.135495D+03
      2   0.000000D+00  0.000000D+00  0.148773D-05  0.000000D+00  0.000000D+00
      3  -0.237927D-03 -0.680530D-02 -0.157462D-01 -0.503646D-01 -0.661829D-02
      4   0.379798D-02 -0.157407D-01  0.680950D-02 -0.661891D-02  0.503612D-01
      5   0.000000D+00  0.000000D+00 -0.544277D-05  0.272206D-05  0.000000D+00
      6   0.382838D-03  0.312113D-01  0.722108D-01  0.164030D+00  0.215551D-01
      7  -0.614420D-02  0.721908D-01 -0.312272D-01  0.215565D-01 -0.164019D+00
      8   0.000000D+00  0.000000D+00  0.000000D+00  0.000000D+00  0.000000D+00
      9  -0.993316D-01 -0.838543D-01  0.362798D-01  0.730589D-02 -0.556032D-01
     10  -0.625748D-02  0.362500D-01  0.838854D-01 -0.555928D-01 -0.730744D-02
     11   0.000000D+00 -0.405195D-05 -0.620732D-05  0.748631D-05  0.244372D-05
     12   0.233805D+00 -0.288404D-01  0.112786D-01 -0.317434D-01  0.189573D+00
     13  -0.233806D+00  0.288393D-01 -0.112814D-01  0.317444D-01 -0.189574D+00
     14  -0.578148D-02 -0.263666D-01 -0.609273D-01 -0.994226D-01 -0.130624D-01
     15   0.917279D-01 -0.609592D-01  0.263364D-01 -0.130702D-01  0.994271D-01
     16  -0.230092D-01 -0.112821D-01 -0.288396D-01 -0.189560D+00 -0.317458D-01
               396           397           398           399           400 
      1  -0.135442D+03 -0.135442D+03 -0.135345D+03 -0.135345D+03 -0.135275D+03
      2   0.266560D-05  0.373277D-05 -0.373479D-05 -0.121245D-05 -0.392230D+00
      3   0.801283D-01 -0.350984D+00  0.897820D-01 -0.267819D+00 -0.187675D-05
      4   0.350981D+00  0.801288D-01  0.267824D+00  0.897829D-01  0.000000D+00
      5  -0.976951D-05 -0.137677D-04  0.142031D-04  0.455029D-05  0.154279D+01
      6  -0.289774D+00  0.126929D+01 -0.336208D+00  0.100291D+01  0.683518D-05
      7  -0.126928D+01 -0.289776D+00 -0.100293D+01 -0.336211D+00  0.117225D-05
      8  -0.421302D-05  0.158422D-05 -0.441863D-05  0.000000D+00  0.000000D+00
      9   0.155567D+01  0.355156D+00  0.151491D+01  0.507846D+00 -0.895797D-05
     10  -0.355160D+00  0.155569D+01 -0.507841D+00  0.151489D+01  0.251962D-05
     11  -0.196657D-04 -0.404695D-04  0.246760D-04  0.116010D-04  0.387982D+01
     12   0.423721D-01  0.812348D-02 -0.441140D-01 -0.130683D-01 -0.412417D-01
     13  -0.423706D-01 -0.811187D-02  0.441181D-01  0.130795D-01 -0.412409D-01
     14  -0.402264D+00  0.176203D+01 -0.610743D+00  0.182185D+01  0.131174D-04
     15  -0.176200D+01 -0.402265D+00 -0.182187D+01 -0.610748D+00  0.573832D-05
     16   0.811039D-02 -0.423744D-01 -0.130806D-01  0.441061D-01  0.000000D+00
               401           402           403           404           405 
      1  -0.135136D+03 -0.135130D+03 -0.135130D+03 -0.135034D+03 -0.135034D+03
      2   0.128157D+00  0.000000D+00  0.000000D+00  0.000000D+00  0.000000D+00
      3   0.000000D+00  0.111939D-02 -0.597409D-04  0.310801D-01  0.647223D-01
      4   0.000000D+00  0.606425D-04  0.111977D-02  0.647223D-01 -0.310806D-01
      5  -0.614195D+00 -0.197558D-05  0.000000D+00  0.000000D+00  0.000000D+00
      6   0.000000D+00 -0.174625D-02  0.921288D-04 -0.119643D+00 -0.249148D+00
      7   0.145341D-05 -0.956751D-04 -0.174754D-02 -0.249148D+00  0.119645D+00
      8   0.000000D+00  0.000000D+00  0.000000D+00 -0.102342D-05  0.000000D+00
      9  -0.267051D-05 -0.188995D-02 -0.352028D-01  0.336249D+00 -0.161470D+00
     10  -0.170132D-05  0.352014D-01 -0.189574D-02 -0.161471D+00 -0.336249D+00
     11  -0.311115D+01 -0.879331D-05 -0.207106D-05  0.154838D-05  0.000000D+00
     12   0.148870D+00 -0.662248D-01 -0.742389D+00 -0.264361D-01  0.115726D-01
     13   0.148867D+00  0.662244D-01  0.742387D+00  0.264366D-01 -0.115697D-01
     14  -0.941123D-05  0.177654D-01 -0.952939D-03  0.816573D-01  0.170044D+00
     15   0.938405D-05  0.957744D-03  0.177686D-01  0.170046D+00 -0.816578D-01
     16   0.000000D+00 -0.742391D+00  0.662236D-01 -0.115643D-01 -0.264401D-01
               406 
      1  -0.134672D+03
      2   0.298179D-01
      3   0.000000D+00
      4   0.000000D+00
      5  -0.208649D+00
      6   0.000000D+00
      7   0.000000D+00
      8   0.000000D+00
      9   0.000000D+00
     10  -0.170175D-05
     11  -0.125132D+00
     12  -0.212303D+00
     13  -0.212303D+00
     14  -0.152646D-05
     15   0.000000D+00
     16   0.000000D+00
 Unable to Open any file for archive entry.
 1\1\GINC-HEL24\SP\RTPSSh TD-FC\Gen\C1H3F1\SABYASACHI\21-Mar-2022\0\\#P
  TD(Nstates=10000) tpssh/Gen SCF(maxcycles=100) Int(Grid=ultrafine)\\x
 GDB7_00001_tier4.com\\0,1\C,0,-0.630149,-0.000001,0.000003\F,0,0.74851
 2,0.000002,-0.000001\H,0,-0.98525,0.899676,0.505416\H,0,-0.985222,-0.8
 87557,0.526417\H,0,-0.985245,-0.012128,-1.03184\\Version=EM64L-G16RevC
 .01\State=1-A\HF=-139.6471358\RMSD=5.089e-09\PG=C01 [X(C1H3F1)]\\@
 The archive entry for this job was punched.


 SCIENCE AT ITS BEST PROVIDES US WITH BETTER QUESTIONS, 
 NOT ABSOLUTE ANSWERS

                                    -- NORMAN COUSINS, 1976
 Job cpu time:       0 days  0 hours  5 minutes 59.5 seconds.
 Elapsed time:       0 days  0 hours  0 minutes 45.2 seconds.
 File lengths (MBytes):  RWF=    214 Int=      0 D2E=      0 Chk=     46 Scr=      1
 Normal termination of Gaussian 16 at Mon Mar 21 20:09:23 2022.
