 Entering Gaussian System, Link 0=g16
 Input=000023.com
 Output=000023.log
 Initial command:
 /home/sabyasachi/g16/l1.exe "/scratch/sabyasachi/PBS_7976091.helios/Gau-142373.inp" -scrdir="/scratch/sabyasachi/PBS_7976091.helios/"
 Entering Link 1 = /home/sabyasachi/g16/l1.exe PID=    142374.
  
 Copyright (c) 1988-2019, Gaussian, Inc.  All Rights Reserved.
  
 This is part of the Gaussian(R) 16 program.  It is based on
 the Gaussian(R) 09 system (copyright 2009, Gaussian, Inc.),
 the Gaussian(R) 03 system (copyright 2003, Gaussian, Inc.),
 the Gaussian(R) 98 system (copyright 1998, Gaussian, Inc.),
 the Gaussian(R) 94 system (copyright 1995, Gaussian, Inc.),
 the Gaussian 92(TM) system (copyright 1992, Gaussian, Inc.),
 the Gaussian 90(TM) system (copyright 1990, Gaussian, Inc.),
 the Gaussian 88(TM) system (copyright 1988, Gaussian, Inc.),
 the Gaussian 86(TM) system (copyright 1986, Carnegie Mellon
 University), and the Gaussian 82(TM) system (copyright 1983,
 Carnegie Mellon University). Gaussian is a federally registered
 trademark of Gaussian, Inc.
  
 This software contains proprietary and confidential information,
 including trade secrets, belonging to Gaussian, Inc.
  
 This software is provided under written license and may be
 used, copied, transmitted, or stored only in accord with that
 written license.
  
 The following legend is applicable only to US Government
 contracts under FAR:
  
                    RESTRICTED RIGHTS LEGEND
  
 Use, reproduction and disclosure by the US Government is
 subject to restrictions as set forth in subparagraphs (a)
 and (c) of the Commercial Computer Software - Restricted
 Rights clause in FAR 52.227-19.
  
 Gaussian, Inc.
 340 Quinnipiac St., Bldg. 40, Wallingford CT 06492
  
  
 ---------------------------------------------------------------
 Warning -- This program may not be used in any manner that
 competes with the business of Gaussian, Inc. or will provide
 assistance to any competitor of Gaussian, Inc.  The licensee
 of this program is prohibited from giving any competitor of
 Gaussian, Inc. access to this program.  By using this program,
 the user acknowledges that Gaussian, Inc. is engaged in the
 business of creating and licensing software in the field of
 computational chemistry and represents and warrants to the
 licensee that it is not a competitor of Gaussian, Inc. and that
 it will not use this program in any manner prohibited above.
 ---------------------------------------------------------------
  

 Cite this work as:
 Gaussian 16, Revision C.01,
 M. J. Frisch, G. W. Trucks, H. B. Schlegel, G. E. Scuseria, 
 M. A. Robb, J. R. Cheeseman, G. Scalmani, V. Barone, 
 G. A. Petersson, H. Nakatsuji, X. Li, M. Caricato, A. V. Marenich, 
 J. Bloino, B. G. Janesko, R. Gomperts, B. Mennucci, H. P. Hratchian, 
 J. V. Ortiz, A. F. Izmaylov, J. L. Sonnenberg, D. Williams-Young, 
 F. Ding, F. Lipparini, F. Egidi, J. Goings, B. Peng, A. Petrone, 
 T. Henderson, D. Ranasinghe, V. G. Zakrzewski, J. Gao, N. Rega, 
 G. Zheng, W. Liang, M. Hada, M. Ehara, K. Toyota, R. Fukuda, 
 J. Hasegawa, M. Ishida, T. Nakajima, Y. Honda, O. Kitao, H. Nakai, 
 T. Vreven, K. Throssell, J. A. Montgomery, Jr., J. E. Peralta, 
 F. Ogliaro, M. J. Bearpark, J. J. Heyd, E. N. Brothers, K. N. Kudin, 
 V. N. Staroverov, T. A. Keith, R. Kobayashi, J. Normand, 
 K. Raghavachari, A. P. Rendell, J. C. Burant, S. S. Iyengar, 
 J. Tomasi, M. Cossi, J. M. Millam, M. Klene, C. Adamo, R. Cammi, 
 J. W. Ochterski, R. L. Martin, K. Morokuma, O. Farkas, 
 J. B. Foresman, and D. J. Fox, Gaussian, Inc., Wallingford CT, 2019.
 
 ******************************************
 Gaussian 16:  EM64L-G16RevC.01  3-Jul-2019
                21-Mar-2022 
 ******************************************
 %mem=64gb
 %nproc=8
 Will use up to    8 processors via shared memory.
 ---------------------------------------------------------------------
 #P TD(Nstates=10000) tpssh/Gen SCF(maxcycles=100) Int(Grid=ultrafine)
 ---------------------------------------------------------------------
 1/38=1,172=1/1;
 2/12=2,17=6,18=5,40=1/2;
 3/5=7,11=9,25=1,30=1,74=-35,75=-5/1,2,3,8;
 4//1;
 5/5=2,7=100,38=5/2;
 8/6=1,10=1,108=10000/1;
 9/41=10000,42=1,70=2/14;
 6/7=2,8=2,9=2,10=2/1;
 99/5=1,9=1/99;
 Leave Link    1 at Mon Mar 21 19:58:19 2022, MaxMem=  8589934592 cpu:               0.4 elap:               0.1
 (Enter /home/sabyasachi/g16/l101.exe)
 ---------------------
 xGDB7_00001_tier4.com
 ---------------------
 Symbolic Z-matrix:
 Charge =  0 Multiplicity = 1
 6                     0.        0.       -1.17365 
 6                     0.        0.        0.28099 
 7                     0.        0.        1.42744 
 1                     0.        1.02409  -1.54537 
 1                    -0.88689  -0.51204  -1.54537 
 1                     0.88689  -0.51204  -1.54537 
 
 ITRead=  0  0  0  0  0  0
 MicOpt= -1 -1 -1 -1 -1 -1
 NAtoms=      6 NQM=        6 NQMF=       0 NMMI=      0 NMMIF=      0
                NMic=       0 NMicF=      0.
                    Isotopes and Nuclear Properties:
 (Nuclear quadrupole moments (NQMom) in fm**2, nuclear magnetic moments (NMagM)
  in nuclear magnetons)

  Atom         1           2           3           4           5           6
 IAtWgt=          12          12          14           1           1           1
 AtmWgt=  12.0000000  12.0000000  14.0030740   1.0078250   1.0078250   1.0078250
 NucSpn=           0           0           2           1           1           1
 AtZEff=  -0.0000000  -0.0000000  -0.0000000  -0.0000000  -0.0000000  -0.0000000
 NQMom=    0.0000000   0.0000000   2.0440000   0.0000000   0.0000000   0.0000000
 NMagM=    0.0000000   0.0000000   0.4037610   2.7928460   2.7928460   2.7928460
 AtZNuc=   6.0000000   6.0000000   7.0000000   1.0000000   1.0000000   1.0000000
 Leave Link  101 at Mon Mar 21 19:58:19 2022, MaxMem=  8589934592 cpu:               0.6 elap:               0.1
 (Enter /home/sabyasachi/g16/l202.exe)
                          Input orientation:                          
 ---------------------------------------------------------------------
 Center     Atomic      Atomic             Coordinates (Angstroms)
 Number     Number       Type             X           Y           Z
 ---------------------------------------------------------------------
      1          6           0        0.000000    0.000000   -1.173653
      2          6           0        0.000000    0.000000    0.280989
      3          7           0        0.000000    0.000000    1.427442
      4          1           0        0.000000    1.024088   -1.545371
      5          1           0       -0.886886   -0.512044   -1.545371
      6          1           0        0.886886   -0.512044   -1.545371
 ---------------------------------------------------------------------
                    Distance matrix (angstroms):
                    1          2          3          4          5
     1  C    0.000000
     2  C    1.454642   0.000000
     3  N    2.601095   1.146453   0.000000
     4  H    1.089463   2.093883   3.144260   0.000000
     5  H    1.089463   2.093883   3.144260   1.773772   0.000000
     6  H    1.089463   2.093883   3.144260   1.773772   1.773772
                    6
     6  H    0.000000
 Stoichiometry    C2H3N
 Framework group  C3V[C3(CCN),3SGV(H)]
 Deg. of freedom     4
 Full point group                 C3V     NOp   6
 Largest Abelian subgroup         CS      NOp   2
 Largest concise Abelian subgroup CS      NOp   2
                         Standard orientation:                         
 ---------------------------------------------------------------------
 Center     Atomic      Atomic             Coordinates (Angstroms)
 Number     Number       Type             X           Y           Z
 ---------------------------------------------------------------------
      1          6           0        0.000000    0.000000   -1.173653
      2          6           0        0.000000    0.000000    0.280989
      3          7           0        0.000000    0.000000    1.427442
      4          1           0        0.000000    1.024088   -1.545371
      5          1           0       -0.886886   -0.512044   -1.545371
      6          1           0        0.886886   -0.512044   -1.545371
 ---------------------------------------------------------------------
 Rotational constants (GHZ):         159.3808899           9.3073631           9.3073631
 Leave Link  202 at Mon Mar 21 19:58:19 2022, MaxMem=  8589934592 cpu:               0.1 elap:               0.0
 (Enter /home/sabyasachi/g16/l301.exe)
 General basis read from cards:  (5D, 7F)
 Centers:       4      5      6
 S 3 1.00
     Exponent=  1.3010701000D+01 Coefficients=  1.9682158000D-02
     Exponent=  1.9622572000D+00 Coefficients=  1.3796524000D-01
     Exponent=  4.4453796000D-01 Coefficients=  4.7831935000D-01
 S 1 1.00
     Exponent=  1.2194962000D-01 Coefficients=  1.0000000000D+00
 P 1 1.00
     Exponent=  8.0000000000D-01 Coefficients=  1.0000000000D+00
 P 1 1.00
     Exponent=  1.1704099050D-01 Coefficients=  1.0000000000D+00
 ****
 Centers:       1      2
 S 5 1.00
     Exponent=  1.2384016938D+03 Coefficients=  5.4568832082D-03
     Exponent=  1.8629004992D+02 Coefficients=  4.0638409211D-02
     Exponent=  4.2251176346D+01 Coefficients=  1.8025593888D-01
     Exponent=  1.1676557932D+01 Coefficients=  4.6315121755D-01
     Exponent=  3.5930506482D+00 Coefficients=  4.4087173314D-01
 S 1 1.00
     Exponent=  4.0245147363D-01 Coefficients=  1.0000000000D+00
 S 1 1.00
     Exponent=  1.3090182668D-01 Coefficients=  1.0000000000D+00
 S 1 1.00
     Exponent=  6.7053540256D-02 Coefficients=  1.0000000000D+00
 P 3 1.00
     Exponent=  9.4680970621D+00 Coefficients=  3.8387871728D-02
     Exponent=  2.0103545142D+00 Coefficients=  2.1117025112D-01
     Exponent=  5.4771004707D-01 Coefficients=  5.1328172114D-01
 P 1 1.00
     Exponent=  1.5268613795D-01 Coefficients=  1.0000000000D+00
 D 1 1.00
     Exponent=  8.0000000000D-01 Coefficients=  1.0000000000D+00
 D 1 1.00
     Exponent=  1.1713185140D-01 Coefficients=  1.0000000000D+00
 ****
 Centers:       3
 S 5 1.00
     Exponent=  1.7128415853D+03 Coefficients= -5.3934125305D-03
     Exponent=  2.5764812677D+02 Coefficients= -4.0221581118D-02
     Exponent=  5.8458245853D+01 Coefficients= -1.7931144990D-01
     Exponent=  1.6198367905D+01 Coefficients= -4.6376317823D-01
     Exponent=  5.0052600809D+00 Coefficients= -4.4171422662D-01
 S 1 1.00
     Exponent=  5.8731856571D-01 Coefficients=  1.0000000000D+00
 S 1 1.00
     Exponent=  1.8764592253D-01 Coefficients=  1.0000000000D+00
 S 1 1.00
     Exponent=  9.6171241529D-02 Coefficients=  1.0000000000D+00
 P 3 1.00
     Exponent=  1.3571470233D+01 Coefficients= -4.0072398852D-02
     Exponent=  2.9257372874D+00 Coefficients= -2.1807045028D-01
     Exponent=  7.9927750754D-01 Coefficients= -5.1294466049D-01
 P 1 1.00
     Exponent=  2.1954348034D-01 Coefficients=  1.0000000000D+00
 D 1 1.00
     Exponent=  1.0000000000D+00 Coefficients=  1.0000000000D+00
 D 1 1.00
     Exponent=  1.6697708112D-01 Coefficients=  1.0000000000D+00
 ****
 Ernie: Thresh=  0.10000D-02 Tol=  0.10000D-05 Strict=F.
 There are    62 symmetry adapted cartesian basis functions of A'  symmetry.
 There are    28 symmetry adapted cartesian basis functions of A"  symmetry.
 There are    56 symmetry adapted basis functions of A'  symmetry.
 There are    28 symmetry adapted basis functions of A"  symmetry.
    84 basis functions,   126 primitive gaussians,    90 cartesian basis functions
    11 alpha electrons       11 beta electrons
       nuclear repulsion energy        58.7485374816 Hartrees.
 IExCor= 2523 DFT=T Ex+Corr=TPSSh ExCW=0 ScaHFX=  0.100000
 ScaDFX=  0.900000  0.900000  1.000000  1.000000 ScalE2=  1.000000  1.000000
 IRadAn=      5 IRanWt=     -1 IRanGd=            0 ICorTp=0 IEmpDi=  4
 NAtoms=    6 NActive=    6 NUniq=    4 SFac= 2.25D+00 NAtFMM=   60 NAOKFM=F Big=F
 Integral buffers will be    131072 words long.
 Regular integral format.
 Two-electron integral symmetry is turned on.
 Leave Link  301 at Mon Mar 21 19:58:19 2022, MaxMem=  8589934592 cpu:               0.6 elap:               0.1
 (Enter /home/sabyasachi/g16/l302.exe)
 NPDir=0 NMtPBC=     1 NCelOv=     1 NCel=       1 NClECP=     1 NCelD=      1
         NCelK=      1 NCelE2=     1 NClLst=     1 CellRange=     0.0.
 One-electron integrals computed using PRISM.
 One-electron integral symmetry used in STVInt
 NBasis=    84 RedAO= T EigKep=  2.41D-04  NBF=    56    28
 NBsUse=    84 1.00D-06 EigRej= -1.00D+00 NBFU=    56    28
 Precomputing XC quadrature grid using
 IXCGrd= 4 IRadAn=           5 IRanWt=          -1 IRanGd=           0 AccXCQ= 0.00D+00.
 Generated NRdTot=       0 NPtTot=           0 NUsed=           0 NTot=          32
 NSgBfM=    90    90    90    90    90 MxSgAt=     6 MxSgA2=     6.
 Leave Link  302 at Mon Mar 21 19:58:19 2022, MaxMem=  8589934592 cpu:               0.9 elap:               0.1
 (Enter /home/sabyasachi/g16/l303.exe)
 DipDrv:  MaxL=1.
 Leave Link  303 at Mon Mar 21 19:58:20 2022, MaxMem=  8589934592 cpu:               0.3 elap:               0.1
 (Enter /home/sabyasachi/g16/l308.exe)
 Leave Link  308 at Mon Mar 21 19:58:20 2022, MaxMem=  8589934592 cpu:               0.2 elap:               0.0
 (Enter /home/sabyasachi/g16/l401.exe)
 ExpMin= 6.71D-02 ExpMax= 1.71D+03 ExpMxC= 2.58D+02 IAcc=3 IRadAn=         5 AccDes= 0.00D+00
 Harris functional with IExCor= 1009 and IRadAn=       5 diagonalized for initial guess.
 HarFok:  IExCor= 1009 AccDes= 0.00D+00 IRadAn=         5 IDoV= 1 UseB2=F ITyADJ=14
 ICtDFT=  3500011 ScaDFX=  1.000000  1.000000  1.000000  1.000000
 FoFCou: FMM=F IPFlag=           0 FMFlag=      100000 FMFlg1=           0
         NFxFlg=           0 DoJE=T BraDBF=F KetDBF=T FulRan=T
         wScrn=  0.000000 ICntrl=       500 IOpCl=  0 I1Cent=   200000004 NGrid=           0
         NMat0=    1 NMatS0=      1 NMatT0=    0 NMatD0=    1 NMtDS0=    0 NMtDT0=    0
 Petite list used in FoFCou.
 Harris En= -132.543775350913    
 JPrj=0 DoOrth=F DoCkMO=F.
 Initial guess orbital symmetries:
       Occupied  (A1) (A1) (A1) (A1) (A1) (A1) (E) (E) (A1) (E)
                 (E)
       Virtual   (E) (E) (A1) (A1) (E) (E) (A1) (E) (E) (A1) (E)
                 (E) (A1) (E) (E) (A1) (E) (E) (A1) (E) (E) (A2)
                 (A1) (A1) (E) (E) (E) (E) (E) (E) (A1) (E) (E)
                 (A1) (E) (E) (A1) (A1) (E) (E) (A1) (E) (E) (A1)
                 (A1) (E) (E) (A1) (E) (E) (A1) (A2) (E) (E) (E)
                 (E) (E) (E) (A1) (E) (E) (A1) (E) (E) (E) (E)
                 (A1) (E) (E) (A1) (E) (E) (A1)
 The electronic state of the initial guess is 1-A1.
 Leave Link  401 at Mon Mar 21 19:58:20 2022, MaxMem=  8589934592 cpu:               1.7 elap:               0.2
 (Enter /home/sabyasachi/g16/l502.exe)
 Keep R1 ints in memory in symmetry-blocked form, NReq=13703489.
 FoFCou: FMM=F IPFlag=           0 FMFlag=           0 FMFlg1=           0
         NFxFlg=           0 DoJE=F BraDBF=F KetDBF=F FulRan=T
         wScrn=  0.000000 ICntrl=       600 IOpCl=  0 I1Cent=           0 NGrid=           0
         NMat0=    1 NMatS0=   3570 NMatT0=    0 NMatD0=    1 NMtDS0=    0 NMtDT0=    0
 Petite list used in FoFCou.
 Closed shell SCF:
 Using DIIS extrapolation, IDIIS=  1040.
 NGot=  8589934592 LenX=  8586672929 LenY=  8586664388
 Requested convergence on RMS density matrix=1.00D-08 within 100 cycles.
 Requested convergence on MAX density matrix=1.00D-06.
 Requested convergence on             energy=1.00D-06.
 No special actions if energy rises.
 Integral accuracy reduced to 1.0D-05 until final iterations.

 Cycle   1  Pass 0  IDiag  1:
 E= -132.597529185614    
 DIIS: error= 2.94D-02 at cycle   1 NSaved=   1.
 NSaved= 1 IEnMin= 1 EnMin= -132.597529185614     IErMin= 1 ErrMin= 2.94D-02
 ErrMax= 2.94D-02  0.00D+00 EMaxC= 1.00D-01 BMatC= 7.06D-02 BMatP= 7.06D-02
 IDIUse=3 WtCom= 7.06D-01 WtEn= 2.94D-01
 Coeff-Com:  0.100D+01
 Coeff-En:   0.100D+01
 Coeff:      0.100D+01
 Gap=     0.313 Goal=   None    Shift=    0.000
 GapD=    0.313 DampG=1.000 DampE=0.500 DampFc=0.5000 IDamp=-1.
 Damping current iteration by 5.00D-01
 RMSDP=1.02D-02 MaxDP=2.03D-01              OVMax= 1.96D-01

 Cycle   2  Pass 0  IDiag  1:
 E= -132.616663217840     Delta-E=       -0.019134032226 Rises=F Damp=T
 DIIS: error= 1.16D-02 at cycle   2 NSaved=   2.
 NSaved= 2 IEnMin= 2 EnMin= -132.616663217840     IErMin= 2 ErrMin= 1.16D-02
 ErrMax= 1.16D-02  0.00D+00 EMaxC= 1.00D-01 BMatC= 1.46D-02 BMatP= 7.06D-02
 IDIUse=3 WtCom= 8.84D-01 WtEn= 1.16D-01
 Coeff-Com:  0.227D+00 0.773D+00
 Coeff-En:   0.340D+00 0.660D+00
 Coeff:      0.240D+00 0.760D+00
 Gap=     0.316 Goal=   None    Shift=    0.000
 RMSDP=3.83D-03 MaxDP=7.28D-02 DE=-1.91D-02 OVMax= 1.73D-01

 Cycle   3  Pass 0  IDiag  1:
 E= -132.645874469318     Delta-E=       -0.029211251478 Rises=F Damp=F
 DIIS: error= 1.59D-02 at cycle   3 NSaved=   3.
 NSaved= 3 IEnMin= 3 EnMin= -132.645874469318     IErMin= 2 ErrMin= 1.16D-02
 ErrMax= 1.59D-02  0.00D+00 EMaxC= 1.00D-01 BMatC= 2.31D-02 BMatP= 1.46D-02
 IDIUse=2 WtCom= 0.00D+00 WtEn= 1.00D+00
 Coeff-En:   0.000D+00 0.162D+00 0.838D+00
 Coeff:      0.000D+00 0.162D+00 0.838D+00
 Gap=     0.312 Goal=   None    Shift=    0.000
 RMSDP=4.79D-03 MaxDP=8.33D-02 DE=-2.92D-02 OVMax= 1.50D-01

 Cycle   4  Pass 0  IDiag  1:
 E= -132.587384091294     Delta-E=        0.058490378023 Rises=F Damp=F
 DIIS: error= 3.19D-02 at cycle   4 NSaved=   4.
 NSaved= 4 IEnMin= 3 EnMin= -132.645874469318     IErMin= 2 ErrMin= 1.16D-02
 ErrMax= 3.19D-02  0.00D+00 EMaxC= 1.00D-01 BMatC= 8.76D-02 BMatP= 1.46D-02
 IDIUse=2 WtCom= 0.00D+00 WtEn= 1.00D+00
 Coeff-En:   0.000D+00 0.000D+00 0.720D+00 0.280D+00
 Coeff:      0.000D+00 0.000D+00 0.720D+00 0.280D+00
 Gap=     0.327 Goal=   None    Shift=    0.000
 RMSDP=2.58D-03 MaxDP=4.83D-02 DE= 5.85D-02 OVMax= 7.98D-02

 Cycle   5  Pass 0  IDiag  1:
 E= -132.663650866867     Delta-E=       -0.076266775573 Rises=F Damp=F
 DIIS: error= 6.32D-03 at cycle   5 NSaved=   5.
 NSaved= 5 IEnMin= 5 EnMin= -132.663650866867     IErMin= 5 ErrMin= 6.32D-03
 ErrMax= 6.32D-03  0.00D+00 EMaxC= 1.00D-01 BMatC= 4.17D-03 BMatP= 1.46D-02
 IDIUse=3 WtCom= 9.37D-01 WtEn= 6.32D-02
 Coeff-Com: -0.211D-01 0.443D-01 0.226D+00-0.871D-01 0.838D+00
 Coeff-En:   0.000D+00 0.000D+00 0.212D+00 0.000D+00 0.788D+00
 Coeff:     -0.197D-01 0.415D-01 0.225D+00-0.816D-01 0.835D+00
 Gap=     0.329 Goal=   None    Shift=    0.000
 RMSDP=7.40D-04 MaxDP=1.20D-02 DE=-7.63D-02 OVMax= 2.09D-02

 Cycle   6  Pass 0  IDiag  1:
 E= -132.667535291012     Delta-E=       -0.003884424145 Rises=F Damp=F
 DIIS: error= 2.79D-04 at cycle   6 NSaved=   6.
 NSaved= 6 IEnMin= 6 EnMin= -132.667535291012     IErMin= 6 ErrMin= 2.79D-04
 ErrMax= 2.79D-04  0.00D+00 EMaxC= 1.00D-01 BMatC= 4.97D-06 BMatP= 4.17D-03
 IDIUse=3 WtCom= 9.97D-01 WtEn= 2.79D-03
 Coeff-Com: -0.584D-02 0.969D-02 0.566D-01-0.199D-01 0.228D+00 0.732D+00
 Coeff-En:   0.000D+00 0.000D+00 0.000D+00 0.000D+00 0.000D+00 0.100D+01
 Coeff:     -0.582D-02 0.967D-02 0.564D-01-0.198D-01 0.227D+00 0.733D+00
 Gap=     0.328 Goal=   None    Shift=    0.000
 RMSDP=2.90D-05 MaxDP=5.96D-04 DE=-3.88D-03 OVMax= 7.54D-04

 Cycle   7  Pass 0  IDiag  1:
 E= -132.667539652768     Delta-E=       -0.000004361756 Rises=F Damp=F
 DIIS: error= 3.53D-05 at cycle   7 NSaved=   7.
 NSaved= 7 IEnMin= 7 EnMin= -132.667539652768     IErMin= 7 ErrMin= 3.53D-05
 ErrMax= 3.53D-05  0.00D+00 EMaxC= 1.00D-01 BMatC= 8.06D-08 BMatP= 4.97D-06
 IDIUse=1 WtCom= 1.00D+00 WtEn= 0.00D+00
 Coeff-Com: -0.125D-02 0.214D-02 0.913D-02-0.460D-02 0.448D-01 0.268D+00
 Coeff-Com:  0.681D+00
 Coeff:     -0.125D-02 0.214D-02 0.913D-02-0.460D-02 0.448D-01 0.268D+00
 Coeff:      0.681D+00
 Gap=     0.328 Goal=   None    Shift=    0.000
 RMSDP=4.66D-06 MaxDP=8.99D-05 DE=-4.36D-06 OVMax= 9.32D-05

 Initial convergence to 1.0D-05 achieved.  Increase integral accuracy.
 Cycle   8  Pass 1  IDiag  1:
 E= -132.667537516999     Delta-E=        0.000002135769 Rises=F Damp=F
 DIIS: error= 5.86D-06 at cycle   1 NSaved=   1.
 NSaved= 1 IEnMin= 1 EnMin= -132.667537516999     IErMin= 1 ErrMin= 5.86D-06
 ErrMax= 5.86D-06  0.00D+00 EMaxC= 1.00D-01 BMatC= 2.28D-09 BMatP= 2.28D-09
 IDIUse=1 WtCom= 1.00D+00 WtEn= 0.00D+00
 Coeff-Com:  0.100D+01
 Coeff:      0.100D+01
 Gap=     0.328 Goal=   None    Shift=    0.000
 RMSDP=4.66D-06 MaxDP=8.99D-05 DE= 2.14D-06 OVMax= 3.28D-05

 Cycle   9  Pass 1  IDiag  1:
 E= -132.667537515096     Delta-E=        0.000000001903 Rises=F Damp=F
 DIIS: error= 6.80D-06 at cycle   2 NSaved=   2.
 NSaved= 2 IEnMin= 1 EnMin= -132.667537516999     IErMin= 1 ErrMin= 5.86D-06
 ErrMax= 6.80D-06  0.00D+00 EMaxC= 1.00D-01 BMatC= 4.90D-09 BMatP= 2.28D-09
 IDIUse=1 WtCom= 1.00D+00 WtEn= 0.00D+00
 Coeff-Com:  0.602D+00 0.398D+00
 Coeff:      0.602D+00 0.398D+00
 Gap=     0.328 Goal=   None    Shift=    0.000
 RMSDP=1.01D-06 MaxDP=2.02D-05 DE= 1.90D-09 OVMax= 2.69D-05

 Cycle  10  Pass 1  IDiag  1:
 E= -132.667537518919     Delta-E=       -0.000000003823 Rises=F Damp=F
 DIIS: error= 3.95D-06 at cycle   3 NSaved=   3.
 NSaved= 3 IEnMin= 3 EnMin= -132.667537518919     IErMin= 3 ErrMin= 3.95D-06
 ErrMax= 3.95D-06  0.00D+00 EMaxC= 1.00D-01 BMatC= 8.09D-10 BMatP= 2.28D-09
 IDIUse=1 WtCom= 1.00D+00 WtEn= 0.00D+00
 Coeff-Com:  0.340D+00 0.291D+00 0.369D+00
 Coeff:      0.340D+00 0.291D+00 0.369D+00
 Gap=     0.328 Goal=   None    Shift=    0.000
 RMSDP=3.83D-07 MaxDP=6.63D-06 DE=-3.82D-09 OVMax= 1.14D-05

 Cycle  11  Pass 1  IDiag  1:
 E= -132.667537519666     Delta-E=       -0.000000000748 Rises=F Damp=F
 DIIS: error= 4.67D-07 at cycle   4 NSaved=   4.
 NSaved= 4 IEnMin= 4 EnMin= -132.667537519666     IErMin= 4 ErrMin= 4.67D-07
 ErrMax= 4.67D-07  0.00D+00 EMaxC= 1.00D-01 BMatC= 1.61D-11 BMatP= 8.09D-10
 IDIUse=1 WtCom= 1.00D+00 WtEn= 0.00D+00
 Coeff-Com:  0.758D-01 0.676D-01 0.162D+00 0.694D+00
 Coeff:      0.758D-01 0.676D-01 0.162D+00 0.694D+00
 Gap=     0.328 Goal=   None    Shift=    0.000
 RMSDP=5.77D-08 MaxDP=8.45D-07 DE=-7.48D-10 OVMax= 9.55D-07

 Cycle  12  Pass 1  IDiag  1:
 E= -132.667537519679     Delta-E=       -0.000000000013 Rises=F Damp=F
 DIIS: error= 7.27D-08 at cycle   5 NSaved=   5.
 NSaved= 5 IEnMin= 5 EnMin= -132.667537519679     IErMin= 5 ErrMin= 7.27D-08
 ErrMax= 7.27D-08  0.00D+00 EMaxC= 1.00D-01 BMatC= 6.04D-13 BMatP= 1.61D-11
 IDIUse=1 WtCom= 1.00D+00 WtEn= 0.00D+00
 Coeff-Com:  0.265D-02 0.119D-02 0.341D-01 0.226D+00 0.736D+00
 Coeff:      0.265D-02 0.119D-02 0.341D-01 0.226D+00 0.736D+00
 Gap=     0.328 Goal=   None    Shift=    0.000
 RMSDP=1.79D-08 MaxDP=4.06D-07 DE=-1.33D-11 OVMax= 2.74D-07

 Cycle  13  Pass 1  IDiag  1:
 E= -132.667537519680     Delta-E=       -0.000000000001 Rises=F Damp=F
 DIIS: error= 2.56D-08 at cycle   6 NSaved=   6.
 NSaved= 6 IEnMin= 6 EnMin= -132.667537519680     IErMin= 6 ErrMin= 2.56D-08
 ErrMax= 2.56D-08  0.00D+00 EMaxC= 1.00D-01 BMatC= 5.08D-14 BMatP= 6.04D-13
 IDIUse=1 WtCom= 1.00D+00 WtEn= 0.00D+00
 Coeff-Com: -0.291D-02-0.330D-02 0.696D-02 0.613D-01 0.322D+00 0.616D+00
 Coeff:     -0.291D-02-0.330D-02 0.696D-02 0.613D-01 0.322D+00 0.616D+00
 Gap=     0.328 Goal=   None    Shift=    0.000
 RMSDP=3.83D-09 MaxDP=6.37D-08 DE=-5.68D-13 OVMax= 5.98D-08

 SCF Done:  E(RTPSSh) =  -132.667537520     A.U. after   13 cycles
            NFock= 13  Conv=0.38D-08     -V/T= 2.0098
 KE= 1.313797340941D+02 PE=-4.252658814673D+02 EE= 1.024700723719D+02
 Leave Link  502 at Mon Mar 21 19:58:21 2022, MaxMem=  8589934592 cpu:              12.3 elap:               1.6
 (Enter /home/sabyasachi/g16/l801.exe)
 DoSCS=F DFT=T ScalE2(SS,OS)=  1.000000  1.000000
 ExpMin= 6.71D-02 ExpMax= 1.71D+03 ExpMxC= 2.58D+02 IAcc=3 IRadAn=         5 AccDes= 0.00D+00
 HarFok:  IExCor=  205 AccDes= 0.00D+00 IRadAn=         5 IDoV=-2 UseB2=F ITyADJ=14
 ICtDFT= 12500011 ScaDFX=  1.000000  1.000000  1.000000  1.000000
 Largest valence mixing into a core orbital is  8.17D-05
 Largest core mixing into a valence orbital is  2.65D-05
 Range of M.O.s used for correlation:     4    84
 NBasis=    84 NAE=    11 NBE=    11 NFC=     3 NFV=     0
 NROrb=     81 NOA=     8 NOB=     8 NVA=    73 NVB=    73

 **** Warning!!: The largest alpha MO coefficient is  0.39499880D+02

 Leave Link  801 at Mon Mar 21 19:58:21 2022, MaxMem=  8589934592 cpu:               0.5 elap:               0.1
 (Enter /home/sabyasachi/g16/l914.exe)
 RHF ground state
 Keep R1, R2, and R3 ints in memory in symmetry-blocked form, NReq=412692931.
 FoFCou: FMM=F IPFlag=           0 FMFlag=           0 FMFlg1=           0
         NFxFlg=           0 DoJE=F BraDBF=F KetDBF=F FulRan=T
         wScrn=  0.000000 ICntrl=       600 IOpCl=  0 I1Cent=           0 NGrid=           0
         NMat0=    1 NMatS0=   3570 NMatT0=    0 NMatD0=    1 NMtDS0=    0 NMtDT0=    0
 Petite list used in FoFCou.
 MDV=  8589934592 DFT=T DoStab=F Mixed=T DoRPA=T DoScal=F NonHer=T
 Making orbital integer symmetry assigments:
 Orbital symmetries:
       Occupied  (A1) (A1) (A1) (A1) (A1) (A1) (E) (E) (A1) (E)
                 (E)
       Virtual   (A1) (E) (E) (A1) (E) (E) (E) (E) (A1) (E) (E)
                 (A1) (A1) (E) (E) (A1) (E) (E) (A1) (A2) (E) (E)
                 (A1) (A1) (E) (E) (E) (E) (A1) (E) (E) (E) (E)
                 (A1) (E) (E) (A1) (A1) (E) (E) (A1) (E) (E) (A1)
                 (A1) (E) (E) (A1) (E) (E) (A1) (A2) (E) (E) (E)
                 (E) (E) (E) (A1) (E) (E) (A1) (E) (E) (E) (E)
                 (A1) (E) (E) (A1) (E) (E) (A1)
   584 initial guesses have been made.
 Convergence on wavefunction:    0.001000000000000
 Davidson Disk Diagonalization:  ConvIn= 1.00D-03 SkipCon=T Conv= 1.00D-03.
 Max sub-space:  3504 roots to seek:  1168 dimension of matrix:         1168
 *** WARNING: Number of orthogonal guesses is          584
 Iteration     1 Dimension   584 NMult     0 NNew    584
 CISAX will form   584 AO SS matrices at one time.
 NMat=   584 NSing=   584 JSym2X=-1.
 New state      1 was old state      3
 New state      2 was old state      6
 New state      3 was old state      5
 New state      4 was old state      2
 New state      5 was old state      1
 New state      6 was old state      7
 New state      7 was old state      8
 New state      8 was old state      9
 New state      9 was old state     10
 New state     10 was old state     11
 New state     11 was old state     14
 New state     14 was old state     15
 New state     15 was old state     16
 New state     16 was old state     19
 New state     19 was old state     20
 New state     20 was old state     24
 New state     21 was old state     23
 New state     22 was old state     21
 New state     23 was old state     22
 New state     24 was old state     25
 New state     25 was old state     26
 New state     26 was old state     30
 New state     27 was old state     28
 New state     28 was old state     29
 New state     29 was old state     27
 New state     30 was old state     32
 New state     32 was old state     33
 New state     33 was old state     41
 New state     35 was old state     36
 New state     36 was old state     35
 New state     37 was old state     40
 New state     38 was old state     39
 New state     39 was old state     38
 New state     40 was old state     37
 New state     41 was old state     42
 New state     42 was old state     43
 New state     43 was old state     44
 New state     44 was old state     48
 New state     45 was old state     47
 New state     46 was old state     50
 New state     47 was old state     53
 New state     48 was old state     45
 New state     49 was old state     46
 New state     50 was old state     52
 New state     52 was old state     49
 New state     53 was old state     59
 New state     54 was old state     58
 New state     55 was old state     60
 New state     56 was old state     61
 New state     57 was old state     55
 New state     58 was old state     54
 New state     59 was old state     63
 New state     60 was old state     62
 New state     61 was old state     56
 New state     62 was old state     57
 New state     63 was old state     64
 New state     64 was old state     65
 New state     65 was old state     66
 New state     66 was old state     67
 New state     67 was old state     68
 New state     68 was old state     73
 New state     72 was old state     74
 New state     73 was old state     76
 New state     74 was old state     75
 New state     75 was old state     77
 New state     76 was old state     78
 New state     77 was old state     79
 New state     78 was old state     80
 New state     79 was old state     81
 New state     80 was old state     82
 New state     81 was old state     83
 New state     82 was old state     72
 New state     83 was old state     84
 New state     84 was old state     85
 New state     85 was old state     86
 New state     86 was old state     87
 New state     87 was old state     89
 New state     89 was old state     91
 New state     91 was old state     93
 New state     92 was old state     94
 New state     93 was old state     92
 New state     94 was old state     95
 New state     95 was old state     97
 New state     97 was old state     99
 New state     99 was old state    110
 New state    104 was old state    105
 New state    105 was old state    104
 New state    106 was old state    107
 New state    107 was old state    106
 New state    109 was old state    111
 New state    110 was old state    109
 New state    111 was old state    113
 New state    113 was old state    123
 New state    116 was old state    117
 New state    117 was old state    116
 New state    118 was old state    119
 New state    119 was old state    120
 New state    120 was old state    121
 New state    121 was old state    122
 New state    122 was old state    118
 New state    123 was old state    128
 New state    124 was old state    130
 New state    125 was old state    129
 New state    127 was old state    125
 New state    128 was old state    127
 New state    129 was old state    131
 New state    130 was old state    132
 New state    131 was old state    124
 New state    132 was old state    135
 No map to state    135
 New state    138 was old state    145
 New state    139 was old state    143
 New state    140 was old state    144
 New state    141 was old state    142
 New state    142 was old state    139
 New state    143 was old state    140
 New state    144 was old state    141
 New state    145 was old state    147
 New state    147 was old state    150
 New state    148 was old state    149
 New state    149 was old state    152
 New state    150 was old state    151
 New state    151 was old state    148
 New state    152 was old state    153
 New state    153 was old state    154
 New state    154 was old state    156
 New state    156 was old state    138
 New state    157 was old state    159
 New state    158 was old state    160
 New state    159 was old state    158
 New state    160 was old state    157
 New state    161 was old state    171
 New state    162 was old state    170
 New state    163 was old state    166
 New state    164 was old state    167
 New state    165 was old state    163
 New state    166 was old state    162
 New state    167 was old state    161
 New state    168 was old state    173
 New state    169 was old state    164
 New state    170 was old state    177
 New state    171 was old state    169
 New state    172 was old state    168
 New state    173 was old state    165
 New state    174 was old state    178
 New state    175 was old state    181
 New state    176 was old state    180
 New state    177 was old state    176
 New state    178 was old state    174
 New state    179 was old state    175
 New state    180 was old state    182
 New state    181 was old state    183
 New state    182 was old state    179
 New state    183 was old state    193
 New state    184 was old state    192
 New state    185 was old state    187
 New state    186 was old state    188
 New state    187 was old state    186
 New state    188 was old state    189
 New state    189 was old state    191
 New state    191 was old state    184
 No map to state    192
 New state    193 was old state    185
 New state    197 was old state    199
 New state    198 was old state    200
 New state    199 was old state    198
 New state    200 was old state    197
 New state    202 was old state    204
 New state    204 was old state    205
 New state    205 was old state    206
 New state    206 was old state    207
 New state    207 was old state    208
 New state    208 was old state    209
 New state    209 was old state    212
 New state    210 was old state    213
 New state    211 was old state    202
 New state    212 was old state    210
 New state    213 was old state    211
 New state    214 was old state    215
 New state    215 was old state    216
 New state    216 was old state    214
 New state    219 was old state    220
 New state    220 was old state    219
 New state    222 was old state    226
 New state    223 was old state    225
 New state    224 was old state    222
 New state    225 was old state    224
 New state    226 was old state    223
 New state    227 was old state    228
 New state    228 was old state    227
 New state    231 was old state    233
 New state    232 was old state    234
 New state    233 was old state    232
 New state    234 was old state    231
 New state    237 was old state    240
 New state    238 was old state    241
 New state    239 was old state    242
 New state    240 was old state    237
 New state    241 was old state    238
 New state    242 was old state    239
 New state    243 was old state    244
 New state    244 was old state    245
 New state    245 was old state    246
 New state    246 was old state    243
 New state    250 was old state    251
 New state    251 was old state    250
 New state    252 was old state    254
 New state    254 was old state    252
 New state    255 was old state    257
 New state    256 was old state    258
 New state    257 was old state    255
 New state    258 was old state    260
 New state    260 was old state    256
 New state    266 was old state    268
 New state    268 was old state    270
 New state    269 was old state    266
 New state    270 was old state    273
 New state    273 was old state    277
 New state    274 was old state    276
 New state    275 was old state    274
 New state    276 was old state    275
 New state    277 was old state    278
 New state    278 was old state    283
 New state    281 was old state    286
 New state    282 was old state    287
 New state    283 was old state    281
 New state    284 was old state    282
 New state    285 was old state    288
 New state    286 was old state    284
 New state    287 was old state    285
 New state    288 was old state    291
 New state    289 was old state    292
 New state    290 was old state    305
 New state    291 was old state    289
 New state    292 was old state    290
 New state    295 was old state    301
 New state    296 was old state    302
 New state    297 was old state    296
 New state    298 was old state    295
 New state    299 was old state    304
 New state    300 was old state    298
 New state    301 was old state    297
 New state    302 was old state    299
 New state    303 was old state    308
 New state    304 was old state    300
 New state    305 was old state    306
 New state    306 was old state    307
 New state    307 was old state    319
 New state    308 was old state    310
 New state    310 was old state    311
 New state    311 was old state    312
 New state    312 was old state    313
 New state    313 was old state    314
 New state    314 was old state    318
 New state    315 was old state    321
 New state    316 was old state    320
 New state    317 was old state    315
 New state    318 was old state    317
 New state    319 was old state    316
 New state    320 was old state    325
 New state    321 was old state    322
 New state    322 was old state    323
 New state    323 was old state    324
 New state    324 was old state    328
 New state    325 was old state    329
 New state    326 was old state    327
 New state    327 was old state    326
 New state    328 was old state    303
 New state    329 was old state    333
 New state    330 was old state    335
 New state    331 was old state    350
 New state    332 was old state    334
 New state    333 was old state    330
 New state    334 was old state    331
 New state    335 was old state    340
 New state    336 was old state    339
 New state    337 was old state    336
 New state    338 was old state    337
 New state    339 was old state    338
 New state    340 was old state    342
 New state    342 was old state    344
 New state    344 was old state    345
 New state    345 was old state    347
 New state    347 was old state    349
 New state    348 was old state    351
 New state    349 was old state    348
 New state    350 was old state    353
 New state    351 was old state    352
 New state    352 was old state    332
 New state    353 was old state    354
 New state    354 was old state    356
 New state    355 was old state    357
 New state    356 was old state    355
 New state    357 was old state    358
 New state    358 was old state    359
 New state    359 was old state    365
 New state    360 was old state    363
 New state    361 was old state    364
 New state    362 was old state    360
 New state    363 was old state    361
 New state    364 was old state    362
 New state    365 was old state    366
 New state    366 was old state    367
 New state    367 was old state    368
 New state    368 was old state    369
 New state    369 was old state    370
 New state    370 was old state    371
 New state    371 was old state    374
 New state    374 was old state    375
 New state    375 was old state    379
 New state    378 was old state    381
 New state    379 was old state    380
 New state    380 was old state    378
 No map to state    381
 New state    382 was old state    383
 New state    383 was old state    382
 New state    387 was old state    388
 New state    388 was old state    389
 New state    389 was old state    390
 New state    390 was old state    391
 New state    391 was old state    387
 New state    393 was old state    400
 New state    394 was old state    401
 New state    396 was old state    394
 New state    397 was old state    396
 New state    398 was old state    397
 New state    399 was old state    404
 New state    400 was old state    403
 New state    401 was old state    399
 New state    402 was old state    398
 New state    403 was old state    411
 New state    404 was old state    412
 New state    405 was old state    402
 New state    406 was old state    405
 New state    407 was old state    406
 New state    409 was old state    407
 New state    410 was old state    393
 New state    411 was old state    415
 New state    412 was old state    416
 New state    415 was old state    418
 New state    416 was old state    417
 New state    417 was old state    410
 New state    418 was old state    409
 New state    420 was old state    423
 New state    422 was old state    420
 New state    423 was old state    422
 New state    424 was old state    426
 New state    426 was old state    424
 New state    427 was old state    428
 New state    428 was old state    430
 New state    430 was old state    427
 New state    431 was old state    432
 New state    432 was old state    431
 New state    435 was old state    437
 New state    436 was old state    438
 New state    437 was old state    435
 New state    438 was old state    436
 New state    442 was old state    448
 New state    443 was old state    449
 New state    444 was old state    447
 New state    446 was old state    444
 New state    447 was old state    446
 New state    448 was old state    443
 New state    449 was old state    442
 New state    452 was old state    454
 New state    454 was old state    455
 New state    455 was old state    456
 New state    456 was old state    458
 New state    457 was old state    460
 New state    458 was old state    459
 New state    459 was old state    452
 New state    460 was old state    461
 New state    461 was old state    462
 New state    462 was old state    457
 New state    465 was old state    466
 New state    466 was old state    467
 New state    467 was old state    465
 New state    469 was old state    471
 New state    470 was old state    474
 New state    471 was old state    473
 New state    472 was old state    476
 New state    473 was old state    475
 New state    474 was old state    472
 New state    475 was old state    469
 New state    476 was old state    470
 New state    477 was old state    478
 New state    478 was old state    479
 New state    479 was old state    477
 New state    480 was old state    481
 New state    481 was old state    480
 New state    484 was old state    485
 New state    485 was old state    484
 New state    486 was old state    487
 New state    487 was old state    489
 New state    488 was old state    486
 New state    489 was old state    492
 New state    490 was old state    491
 New state    491 was old state    490
 New state    492 was old state    488
 New state    493 was old state    495
 New state    494 was old state    496
 New state    495 was old state    494
 New state    496 was old state    493
 New state    497 was old state    498
 New state    498 was old state    499
 New state    499 was old state    497
 New state    500 was old state    502
 New state    501 was old state    503
 New state    502 was old state    501
 New state    503 was old state    500
 New state    505 was old state    506
 New state    506 was old state    507
 New state    507 was old state    505
 New state    508 was old state    511
 New state    509 was old state    513
 New state    510 was old state    514
 New state    511 was old state    512
 New state    512 was old state    509
 New state    513 was old state    510
 New state    514 was old state    508
 New state    515 was old state    517
 New state    516 was old state    518
 New state    517 was old state    519
 New state    518 was old state    515
 New state    519 was old state    516
 New state    523 was old state    524
 New state    524 was old state    525
 New state    525 was old state    523
 New state    526 was old state    528
 New state    527 was old state    526
 New state    528 was old state    527
 New state    531 was old state    535
 New state    532 was old state    536
 New state    533 was old state    532
 New state    535 was old state    533
 New state    536 was old state    531
 New state    537 was old state    538
 New state    538 was old state    537
 New state    541 was old state    542
 New state    542 was old state    541
 New state    543 was old state    547
 New state    544 was old state    545
 New state    545 was old state    543
 New state    546 was old state    549
 New state    547 was old state    546
 New state    548 was old state    550
 New state    549 was old state    551
 New state    550 was old state    548
 New state    551 was old state    554
 New state    554 was old state    544
 New state    555 was old state    556
 New state    556 was old state    555
 New state    557 was old state    558
 New state    558 was old state    557
 New state    561 was old state    562
 New state    562 was old state    561
 New state    567 was old state    568
 New state    568 was old state    567
 New state    574 was old state    576
 New state    576 was old state    574
 New state    580 was old state    581
 New state    581 was old state    580
 Excitation Energies [eV] at current iteration:
 Root      1 :     8.189876038864734
 Root      2 :     8.323707937378865
 Root      3 :     8.323708033877915
 Root      4 :     8.445337838665521
 Root      5 :     8.445338962476507
 Root      6 :     9.084927943164644
 Root      7 :     9.380729289365469
 Root      8 :     9.380729317127155
 Root      9 :    10.243839978574830
 Root     10 :    10.243840271695570
 Root     11 :    10.507689335974150
 Root     12 :    10.932530823255180
 Root     13 :    11.014191753518070
 Root     14 :    11.014519186044510
 Root     15 :    11.014519742304580
 Root     16 :    11.709684044619030
 Root     17 :    11.720520691142130
 Root     18 :    11.720520772495960
 Root     19 :    11.754048195511110
 Root     20 :    11.793633015349530
 Root     21 :    11.793633530436180
 Root     22 :    11.842896362732630
 Root     23 :    11.842896661651820
 Root     24 :    12.026125742083020
 Root     25 :    12.026126597586470
 Root     26 :    12.051795585342120
 Root     27 :    12.097387417079770
 Root     28 :    12.236734251802320
 Root     29 :    12.236734416580900
 Root     30 :    12.440776317059040
 Root     31 :    12.440776369603330
 Root     32 :    12.470539644216830
 Root     33 :    13.168562901991730
 Root     34 :    13.287788153361100
 Root     35 :    13.675601908423460
 Root     36 :    13.675602101648420
 Root     37 :    13.782372017341360
 Root     38 :    13.782375885300880
 Root     39 :    13.842895738946170
 Root     40 :    13.842896217559250
 Root     41 :    13.924386933693960
 Root     42 :    14.377907358638880
 Root     43 :    14.377907418429500
 Root     44 :    14.465819291229160
 Root     45 :    14.465820271123470
 Root     46 :    14.471352369143640
 Root     47 :    14.474363631750720
 Root     48 :    14.588629503735400
 Root     49 :    14.588630063225030
 Root     50 :    14.743544067921190
 Root     51 :    14.743548973462540
 Root     52 :    14.967942227763750
 Root     53 :    15.051143062220020
 Root     54 :    15.170006216364470
 Root     55 :    15.251569905418270
 Root     56 :    15.251570314273710
 Root     57 :    15.251788268143250
 Root     58 :    15.533216437916710
 Root     59 :    15.675596847450610
 Root     60 :    15.675597423268080
 Root     61 :    15.796870955426360
 Root     62 :    15.796872041631220
 Root     63 :    15.858036128193520
 Root     64 :    15.920273717764090
 Root     65 :    16.012881811637570
 Root     66 :    16.435953524190190
 Root     67 :    16.435957181081960
 Root     68 :    16.502243508515610
 Root     69 :    16.502243805768890
 Root     70 :    16.672144451202160
 Root     71 :    16.672144565007350
 Root     72 :    16.684662645933120
 Root     73 :    16.684664211564920
 Root     74 :    16.789542769958960
 Root     75 :    16.935381833728460
 Root     76 :    16.935386178603050
 Root     77 :    17.144042229318400
 Root     78 :    17.144042358023760
 Root     79 :    17.285197868662800
 Root     80 :    17.290434565102990
 Root     81 :    17.290435286361770
 Root     82 :    17.383955971189280
 Root     83 :    17.422127402048100
 Root     84 :    17.422127476002060
 Root     85 :    17.486649072514110
 Root     86 :    17.486649826563500
 Root     87 :    17.565977530190760
 Root     88 :    17.609467849091880
 Root     89 :    17.643546793349270
 Root     90 :    17.714575426484010
 Root     91 :    17.716416101673570
 Root     92 :    17.716420312468350
 Root     93 :    17.880552520679090
 Root     94 :    17.967359241913890
 Root     95 :    18.185458087623690
 Root     96 :    18.185458280930290
 Root     97 :    18.272133180762260
 Root     98 :    18.272133419190470
 Root     99 :    18.388088031479580
 Root    100 :    18.425813860547610
 Root    101 :    18.425817025536960
 Root    102 :    18.783443119989380
 Root    103 :    18.783443757564400
 Root    104 :    18.849460681405450
 Root    105 :    18.849466016322780
 Root    106 :    19.341576255482720
 Root    107 :    19.341580159331560
 Root    108 :    19.580757841731860
 Root    109 :    19.599641369546890
 Root    110 :    19.638350804907350
 Root    111 :    19.657371735953110
 Root    112 :    19.768157520787970
 Root    113 :    19.816584826589070
 Root    114 :    19.816585505501830
 Root    115 :    20.066233897361640
 Root    116 :    20.117887983225630
 Root    117 :    20.117889800950750
 Root    118 :    20.277948977725770
 Root    119 :    20.323484317673460
 Root    120 :    20.331797386627870
 Root    121 :    20.331801551432330
 Root    122 :    20.402739931172710
 Root    123 :    20.409744013084240
 Root    124 :    20.482933446902110
 Root    125 :    20.482934626563250
 Root    126 :    20.509053784338750
 Root    127 :    20.509054549527600
 Root    128 :    20.563849020779430
 Root    129 :    20.650415692877340
 Root    130 :    20.650416098998620
 Root    131 :    20.737748875817140
 Root    132 :    20.737750140962170
 Root    133 :    20.932790495286090
 Root    134 :    20.932791420043030
 Root    135 :    21.006891797372140
 Root    136 :    21.006892400679940
 Root    137 :    21.113078129763340
 Root    138 :    21.235749379629610
 Root    139 :    21.277075726617700
 Root    140 :    21.324596592768350
 Root    141 :    21.324599771110590
 Root    142 :    21.462962154943270
 Root    143 :    21.462962407519140
 Root    144 :    21.616857327049550
 Root    145 :    21.729980698148540
 Root    146 :    21.729981410489200
 Root    147 :    21.917481285639230
 Root    148 :    21.917481416935620
 Root    149 :    21.983681822869820
 Root    150 :    22.028826188688780
 Root    151 :    22.266803955736630
 Root    152 :    22.354022232949790
 Root    153 :    22.354024772478130
 Root    154 :    22.463468927669890
 Root    155 :    22.463469966879330
 Root    156 :    22.797407976650210
 Root    157 :    22.886452861545240
 Root    158 :    22.886453237991490
 Root    159 :    22.984020405471860
 Root    160 :    22.984020948109220
 Root    161 :    23.430915474415070
 Root    162 :    23.430917007306410
 Root    163 :    23.538696868850060
 Root    164 :    23.538710138718370
 Root    165 :    23.555003997724660
 Root    166 :    23.555004570929110
 Root    167 :    23.629865348484180
 Root    168 :    23.677175017208540
 Root    169 :    23.688075188141070
 Root    170 :    23.739947981351360
 Root    171 :    23.773695356723920
 Root    172 :    23.773695687844690
 Root    173 :    23.794037281721050
 Root    174 :    23.886294381205940
 Root    175 :    24.104365406866990
 Root    176 :    24.104365696197620
 Root    177 :    24.138344277530110
 Root    178 :    24.168915581987920
 Root    179 :    24.168918306763660
 Root    180 :    24.216416116925220
 Root    181 :    24.228835004833660
 Root    182 :    24.494142658265170
 Root    183 :    24.760162850249700
 Root    184 :    24.760165164919500
 Root    185 :    24.776908880027460
 Root    186 :    24.961535841992230
 Root    187 :    24.961536417939500
 Root    188 :    25.031658697898930
 Root    189 :    25.056437476508850
 Root    190 :    25.056439361751660
 Root    191 :    25.081247450966190
 Root    192 :    25.131846578510990
 Root    193 :    25.131846866557910
 Root    194 :    25.497060225239840
 Root    195 :    25.759850285287620
 Root    196 :    25.759850334731880
 Root    197 :    26.125967313914800
 Root    198 :    26.125967703177980
 Root    199 :    26.258633830695650
 Root    200 :    26.258634088248030
 Root    201 :    26.553532218120920
 Root    202 :    26.976848693951850
 Root    203 :    26.976848724682250
 Root    204 :    27.175031098212450
 Root    205 :    27.235853312611560
 Root    206 :    27.235859107814810
 Root    207 :    27.333966832165590
 Root    208 :    27.333967447687620
 Root    209 :    27.361199746120620
 Root    210 :    27.361199921967350
 Root    211 :    27.364132953579230
 Root    212 :    27.441764528500820
 Root    213 :    27.852404335742030
 Root    214 :    27.949206745895460
 Root    215 :    27.949207552964930
 Root    216 :    28.131286297432360
 Root    217 :    28.199662672916260
 Root    218 :    28.289493151021950
 Root    219 :    28.289493738656390
 Root    220 :    28.401849640727420
 Root    221 :    28.540117235979100
 Root    222 :    28.730289447365990
 Root    223 :    28.730289667912560
 Root    224 :    28.762537757776610
 Root    225 :    28.823813463541190
 Root    226 :    28.823813638661490
 Root    227 :    28.962432131997700
 Root    228 :    28.981406399448170
 Root    229 :    29.231842830477830
 Root    230 :    29.231843069803200
 Root    231 :    29.461077378529350
 Root    232 :    29.461077747455730
 Root    233 :    29.674963522202360
 Root    234 :    29.674964002265140
 Root    235 :    29.739487440718640
 Root    236 :    30.162017637028350
 Root    237 :    30.552869097772050
 Root    238 :    30.552870493619780
 Root    239 :    30.701051370031680
 Root    240 :    30.743724092565150
 Root    241 :    30.910426730049380
 Root    242 :    30.910427685998070
 Root    243 :    31.230990365064800
 Root    244 :    31.253599587597980
 Root    245 :    31.253599591056220
 Root    246 :    31.290217548503690
 Root    247 :    31.399647240950900
 Root    248 :    31.399647479448230
 Root    249 :    31.902995642302370
 Root    250 :    32.053235833014540
 Root    251 :    32.053236185332000
 Root    252 :    32.167501105862610
 Root    253 :    32.167501552397830
 Root    254 :    32.302722594688900
 Root    255 :    32.330232348230450
 Root    256 :    32.330235075030900
 Root    257 :    32.370729215003030
 Root    258 :    32.486137700046410
 Root    259 :    32.486138249075260
 Root    260 :    32.498539815761450
 Root    261 :    32.892530659491980
 Root    262 :    32.892530804612530
 Root    263 :    32.979165807592580
 Root    264 :    33.128260118990550
 Root    265 :    33.128260873409260
 Root    266 :    33.188239092596220
 Root    267 :    33.188251479930090
 Root    268 :    33.338014064976550
 Root    269 :    33.349527599855170
 Root    270 :    33.767122629525370
 Root    271 :    34.044912439820550
 Root    272 :    34.044912847689960
 Root    273 :    34.229084021380700
 Root    274 :    34.243118736276150
 Root    275 :    34.312134024074960
 Root    276 :    34.312135619783940
 Root    277 :    34.584515556086800
 Root    278 :    34.967339784788760
 Root    279 :    35.024470487380310
 Root    280 :    35.024471131510270
 Root    281 :    35.495806447400120
 Root    282 :    35.495807363996840
 Root    283 :    35.543180869950910
 Root    284 :    35.543181018229090
 Root    285 :    35.680890840534650
 Root    286 :    35.724954796332170
 Root    287 :    35.724955859473890
 Root    288 :    35.833693778505140
 Root    289 :    35.833694061173490
 Root    290 :    35.876683859399630
 Root    291 :    36.055953758416710
 Root    292 :    36.055954805048840
 Root    293 :    36.425227714806550
 Root    294 :    36.425229340128300
 Root    295 :    36.502325061361770
 Root    296 :    36.502326151339400
 Root    297 :    36.559662692888150
 Root    298 :    36.559662760560040
 Root    299 :    36.710480201528540
 Root    300 :    36.796087295037130
 Root    301 :    36.796088267417140
 Root    302 :    36.806792875616720
 Root    303 :    36.809931667188780
 Root    304 :    36.900031487838530
 Root    305 :    37.377206989957150
 Root    306 :    37.377207381508200
 Root    307 :    37.644642749016580
 Root    308 :    37.814007927279210
 Root    309 :    37.814009774504100
 Root    310 :    38.286851946452510
 Root    311 :    38.286856011329550
 Root    312 :    38.399978628247330
 Root    313 :    38.399982072338420
 Root    314 :    38.593220398609780
 Root    315 :    38.803159652791390
 Root    316 :    38.803160240447060
 Root    317 :    38.806947114319930
 Root    318 :    38.885113848680150
 Root    319 :    38.885113938237030
 Root    320 :    39.377647680909160
 Root    321 :    39.605698448378660
 Root    322 :    39.605698497327770
 Root    323 :    39.827458281668490
 Root    324 :    40.160121951906510
 Root    325 :    40.188576274295580
 Root    326 :    40.560795964953360
 Root    327 :    40.560797249111790
 Root    328 :    40.661310633994950
 Root    329 :    41.145092527300860
 Root    330 :    41.145101289586950
 Root    331 :    41.192185796321520
 Root    332 :    41.642624913808690
 Root    333 :    41.672062917206410
 Root    334 :    41.672065002472110
 Root    335 :    41.805666069365860
 Root    336 :    41.805666323061640
 Root    337 :    42.230048512768890
 Root    338 :    42.230049955699310
 Root    339 :    42.427273696137560
 Root    340 :    42.530140142975330
 Root    341 :    42.530140218915950
 Root    342 :    42.908884777455200
 Root    343 :    42.908885777917410
 Root    344 :    43.411514965336700
 Root    345 :    43.480303187793660
 Root    346 :    43.480306189220900
 Root    347 :    43.971020182367050
 Root    348 :    44.148844745634490
 Root    349 :    44.227385594520190
 Root    350 :    44.898249656260870
 Root    351 :    44.898249675795800
 Root    352 :    45.027600126237590
 Root    353 :    45.601928643529480
 Root    354 :    45.654616824432220
 Root    355 :    45.654617728241090
 Root    356 :    45.698555399411450
 Root    357 :    45.864817306060760
 Root    358 :    45.864817839656550
 Root    359 :    46.057113502788040
 Root    360 :    46.757819326783970
 Root    361 :    46.757821176507630
 Root    362 :    46.919947302758280
 Root    363 :    46.919947801886740
 Root    364 :    47.392872348731520
 Root    365 :    47.679355262351270
 Root    366 :    48.284885815734040
 Root    367 :    48.501314615601310
 Root    368 :    48.501314637898190
 Root    369 :    48.643008149734340
 Root    370 :    48.643008792454590
 Root    371 :    48.760027043522630
 Root    372 :    48.947989178966000
 Root    373 :    49.042572119226330
 Root    374 :    49.042576033374130
 Root    375 :    49.435883879856850
 Root    376 :    49.750621621483650
 Root    377 :    49.750622408173140
 Root    378 :    49.988217289483190
 Root    379 :    49.988234780228340
 Root    380 :    50.301651619301910
 Root    381 :    50.471603818954200
 Root    382 :    50.892126399547660
 Root    383 :    51.353310037537340
 Root    384 :    51.948397431178850
 Root    385 :    51.948397742248040
 Root    386 :    52.089281894623440
 Root    387 :    52.517555284354360
 Root    388 :    52.517563289532060
 Root    389 :    52.838977367220970
 Root    390 :    52.838981435812590
 Root    391 :    52.879974120036730
 Root    392 :    53.545452561217310
 Root    393 :    53.740575258869070
 Root    394 :    53.740575419374670
 Root    395 :    53.849681266562630
 Root    396 :    53.849681935790620
 Root    397 :    53.887201713346590
 Root    398 :    53.887202495499590
 Root    399 :    53.976435949110890
 Root    400 :    53.988989923145080
 Root    401 :    54.175257642560900
 Root    402 :    54.175265353102470
 Root    403 :    54.680511366116560
 Root    404 :    54.690354256651320
 Root    405 :    54.717379481076440
 Root    406 :    54.766243258648250
 Root    407 :    54.766243334629020
 Root    408 :    55.184672526319660
 Root    409 :    55.559126298356880
 Root    410 :    55.984772333321250
 Root    411 :    56.027915952790030
 Root    412 :    56.027921119418910
 Root    413 :    56.064116921115660
 Root    414 :    56.064135098031790
 Root    415 :    56.644715606981030
 Root    416 :    56.644716190462560
 Root    417 :    56.953796131813310
 Root    418 :    56.953796430711120
 Root    419 :    57.193662846221900
 Root    420 :    57.530356884091150
 Root    421 :    57.530359022521910
 Root    422 :    57.610436666752650
 Root    423 :    57.827184188799630
 Root    424 :    58.803148976162770
 Root    425 :    58.803150126088770
 Root    426 :    58.900229569280800
 Root    427 :    58.939393063127940
 Root    428 :    58.999380221597210
 Root    429 :    60.027778937160660
 Root    430 :    60.027781621145020
 Root    431 :    60.203046441047670
 Root    432 :    60.203050785052220
 Root    433 :    60.902194583514460
 Root    434 :    60.902196755415920
 Root    435 :    60.981192097949880
 Root    436 :    61.024141149567620
 Root    437 :    61.291925052969270
 Root    438 :    61.291926095896090
 Root    439 :    61.775837592735990
 Root    440 :    61.775837950943050
 Root    441 :    62.540309203347360
 Root    442 :    63.851145417886540
 Root    443 :    63.906505412568080
 Root    444 :    63.906509737578030
 Root    445 :    64.224629239928600
 Root    446 :    64.224629472172890
 Root    447 :    64.230627197692240
 Root    448 :    64.307172769055370
 Root    449 :    64.307172864507760
 Root    450 :    64.373252570024630
 Root    451 :    65.052316991693220
 Root    452 :    65.468903486327260
 Root    453 :    65.468904089420120
 Root    454 :    65.672755856317480
 Root    455 :    65.672757252031740
 Root    456 :    65.790415828356260
 Root    457 :    66.047128163348520
 Root    458 :    66.047129348304820
 Root    459 :    66.332334795031670
 Root    460 :    66.810482153933980
 Root    461 :    66.810482483466460
 Root    462 :    67.010670326035760
 Root    463 :    67.251612341052310
 Root    464 :    67.251614268123670
 Root    465 :    67.482353151517900
 Root    466 :    67.482357445563110
 Root    467 :    68.053883340636970
 Root    468 :    68.673056824213560
 Root    469 :    68.982980866202950
 Root    470 :    69.231816512134870
 Root    471 :    69.231821203679220
 Root    472 :    69.556074187845270
 Root    473 :    69.556074585686290
 Root    474 :    69.675607614759130
 Root    475 :    69.737186790731070
 Root    476 :    69.737186888525880
 Root    477 :    70.505662985159620
 Root    478 :    70.505669142034280
 Root    479 :    70.506139778395010
 Root    480 :    70.622054772497120
 Root    481 :    70.622057924771130
 Root    482 :    72.361379031315080
 Root    483 :    72.361379677942070
 Root    484 :    72.647890545900510
 Root    485 :    72.647893601702010
 Root    486 :    73.330308266787160
 Root    487 :    73.340707348897520
 Root    488 :    74.189088399287360
 Root    489 :    74.316192131895080
 Root    490 :    74.316197470571440
 Root    491 :    75.636761327617780
 Root    492 :    75.636761898440550
 Root    493 :    75.869884208900330
 Root    494 :    76.030595851614990
 Root    495 :    76.242448087497390
 Root    496 :    76.242448123150280
 Root    497 :    76.335368807215740
 Root    498 :    76.335368980600070
 Root    499 :    76.410363987213120
 Root    500 :    77.448808172335400
 Root    501 :    77.448808962983760
 Root    502 :    77.552737985895380
 Root    503 :    77.552738034860410
 Root    504 :    78.213377647290330
 Root    505 :    78.322883929571130
 Root    506 :    78.557588837350690
 Root    507 :    78.557589436825520
 Root    508 :    79.149655493733390
 Root    509 :    79.411903481527060
 Root    510 :    79.476209682229010
 Root    511 :    79.476211783699700
 Root    512 :    79.571219866778320
 Root    513 :    79.571220751570550
 Root    514 :    79.626050799323650
 Root    515 :    80.694921387571500
 Root    516 :    80.694923361945750
 Root    517 :    81.145942652491470
 Root    518 :    81.486594467558430
 Root    519 :    81.486594611289430
 Root    520 :    81.920505334915630
 Root    521 :    81.920505986456380
 Root    522 :    82.873938429845820
 Root    523 :    84.860893332219860
 Root    524 :    84.860897000615750
 Root    525 :    84.946856612992310
 Root    526 :    86.471302252332190
 Root    527 :    86.551590829854590
 Root    528 :    86.551591861187490
 Root    529 :    87.688955897369350
 Root    530 :    87.688957779979500
 Root    531 :    89.384094695133540
 Root    532 :    89.384096386835200
 Root    533 :    89.508021115051290
 Root    534 :    89.508024863511140
 Root    535 :    89.583856377189960
 Root    536 :    89.677789479553770
 Root    537 :    90.430726709948430
 Root    538 :    90.430726868954840
 Root    539 :    91.434373942270060
 Root    540 :    91.434375597984910
 Root    541 :    91.673269967369510
 Root    542 :    91.673271400907030
 Root    543 :    92.061673488454770
 Root    544 :    92.061675961396820
 Root    545 :    92.087743368503910
 Root    546 :    92.463317393474010
 Root    547 :    92.540993642765770
 Root    548 :    92.819210115226770
 Root    549 :    92.819211646202730
 Root    550 :    92.912412498651630
 Root    551 :    93.540830219818090
 Root    552 :    93.595753807236520
 Root    553 :    93.595755756723040
 Root    554 :    93.640781017863080
 Root    555 :    93.935867884409120
 Root    556 :    93.935872122035800
 Root    557 :    95.381570917748060
 Root    558 :    95.381573728771970
 Root    559 :    96.117050730929360
 Root    560 :    96.117051141491400
 Root    561 :    96.130862934984930
 Root    562 :    96.386342090818100
 Root    563 :    96.875066902788160
 Root    564 :    97.349896048668840
 Root    565 :    97.405024083598960
 Root    566 :    97.405027068086670
 Root    567 :   100.903437071329300
 Root    568 :   100.903450404047100
 Root    569 :   103.612342957823100
 Root    570 :   104.353042707534000
 Root    571 :   104.353049179429100
 Root    572 :   104.868390850673600
 Root    573 :   104.868390901567000
 Root    574 :   106.791801170906400
 Root    575 :   106.791803083594400
 Root    576 :   107.212180139015800
 Root    577 :   107.764845972574500
 Root    578 :   107.764846284428900
 Root    579 :   108.259799234473900
 Root    580 :   111.176603416665300
 Root    581 :   111.176605710381800
 Root    582 :   112.304628193168900
 Root    583 :   119.350954064717700
 Root    584 :   122.421845336114300
 Convergence achieved for final wavefunctions.
 ***********************************************************************
 Excited states from <AA,BB:AA,BB> singles matrix:
 ***********************************************************************
 
 1PDM for each excited state written to RWF  633
 Ground to excited state transition densities written to RWF  633
 Ground to excited state transition electric dipole moments (Au):
       state          X           Y           Z        Dip. S.      Osc.
         1         0.0000     -0.0000      0.0000      0.0000      0.0000
         2        -0.1019      0.0000      0.0000      0.0104      0.0021
         3         0.0000      0.1019      0.0000      0.0104      0.0021
         4        -0.0000      0.0518      0.0000      0.0027      0.0006
         5         0.0518      0.0000      0.0000      0.0027      0.0006
         6         0.0000     -0.0000     -0.2484      0.0617      0.0137
         7         0.0000      0.2508     -0.0000      0.0629      0.0145
         8         0.2508     -0.0000      0.0000      0.0629      0.0145
         9         0.4709     -0.0000      0.0000      0.2218      0.0557
        10         0.0000      0.4709      0.0000      0.2218      0.0557
        11        -0.0000      0.0000     -1.2702      1.6134      0.4153
        12        -0.0000      0.0000      0.1510      0.0228      0.0061
        13         0.0002      0.0000     -0.0000      0.0000      0.0000
        14         0.0000     -0.1740     -0.0000      0.0303      0.0082
        15         0.1740      0.0000      0.0000      0.0303      0.0082
        16        -0.0000      0.0000      0.0000      0.0000      0.0000
        17        -0.0000      0.1283     -0.0000      0.0165      0.0047
        18         0.1283      0.0000      0.0000      0.0165      0.0047
        19         0.0000     -0.0000     -0.1080      0.0117      0.0034
        20         0.0000     -0.1145     -0.0000      0.0131      0.0038
        21        -0.1145     -0.0000      0.0000      0.0131      0.0038
        22        -0.0000     -0.1634      0.0000      0.0267      0.0077
        23        -0.1634      0.0000     -0.0000      0.0267      0.0077
        24        -0.7090     -0.0000      0.0000      0.5026      0.1481
        25         0.0000     -0.7090      0.0000      0.5026      0.1481
        26        -0.0000     -0.0000      0.0000      0.0000      0.0000
        27         0.0000     -0.0000     -1.3318      1.7737      0.5257
        28        -0.0000     -0.3319      0.0000      0.1102      0.0330
        29        -0.3319      0.0000      0.0000      0.1102      0.0330
        30        -0.0159      0.0000      0.0000      0.0003      0.0001
        31        -0.0000     -0.0159      0.0000      0.0003      0.0001
        32         0.0000      0.0000      1.1318      1.2809      0.3913
        33         0.0000     -0.0000      0.4216      0.1777      0.0573
        34         0.0000     -0.0000     -0.6026      0.3631      0.1182
        35        -0.2426      0.0000      0.0000      0.0588      0.0197
        36        -0.0000     -0.2426      0.0000      0.0588      0.0197
        37        -0.0000     -0.0450     -0.0000      0.0020      0.0007
        38         0.0450     -0.0000      0.0000      0.0020      0.0007
        39         0.0000     -0.2175      0.0000      0.0473      0.0160
        40        -0.2175     -0.0000     -0.0000      0.0473      0.0160
        41         0.0000     -0.0000      0.0000      0.0000      0.0000
        42         0.2332     -0.0000      0.0000      0.0544      0.0192
        43         0.0000      0.2332      0.0000      0.0544      0.0192
        44         0.0000     -0.3248      0.0000      0.1055      0.0374
        45         0.3248      0.0000      0.0000      0.1055      0.0374
        46         0.0000      0.0000     -0.0000      0.0000      0.0000
        47         0.0000     -0.0000     -0.2517      0.0634      0.0225
        48        -0.0000     -0.3314     -0.0000      0.1098      0.0393
        49         0.3314     -0.0000      0.0000      0.1098      0.0393
        50         0.0000     -0.0127      0.0000      0.0002      0.0001
        51        -0.0126     -0.0000     -0.0000      0.0002      0.0001
        52        -0.0000     -0.0000      0.1995      0.0398      0.0146
        53         0.0000      0.0000     -0.0000      0.0000      0.0000
        54        -0.0000     -0.0000      0.1545      0.0239      0.0089
        55         0.1236      0.0000      0.0000      0.0153      0.0057
        56        -0.0000      0.1236      0.0012      0.0153      0.0057
        57         0.0000     -0.0002      0.7893      0.6230      0.2328
        58         0.0000     -0.0000      0.2790      0.0778      0.0296
        59         0.6628     -0.0000     -0.0000      0.4394      0.1687
        60         0.0000      0.6628      0.0000      0.4394      0.1687
        61        -0.1810      0.0000     -0.0000      0.0327      0.0127
        62        -0.0000     -0.1810     -0.0000      0.0327      0.0127
        63        -0.0000     -0.0000      0.0000      0.0000      0.0000
        64         0.0000      0.0000      0.0434      0.0019      0.0007
        65        -0.0000     -0.0000     -0.0466      0.0022      0.0009
        66         0.8043     -0.0000     -0.0000      0.6470      0.2605
        67        -0.0000     -0.8043     -0.0000      0.6469      0.2605
        68        -0.0000      0.3116      0.0000      0.0971      0.0393
        69         0.3116      0.0000      0.0000      0.0971      0.0393
        70         0.1337     -0.0000      0.0000      0.0179      0.0073
        71         0.0000      0.1337      0.0000      0.0179      0.0073
        72        -0.3734     -0.0000      0.0000      0.1394      0.0570
        73        -0.0000      0.3734      0.0000      0.1394      0.0570
        74        -0.0000     -0.0000      0.0000      0.0000      0.0000
        75        -0.0000      0.7953     -0.0000      0.6326      0.2625
        76         0.7953      0.0000     -0.0000      0.6326      0.2625
        77         0.3417     -0.0000      0.0000      0.1168      0.0490
        78         0.0000      0.3417     -0.0000      0.1168      0.0490
        79         0.0000      0.0000     -0.3341      0.1116      0.0473
        80        -0.0000      0.0949      0.0000      0.0090      0.0038
        81        -0.0949     -0.0000      0.0000      0.0090      0.0038
        82        -0.0000     -0.0000      0.8162      0.6661      0.2837
        83        -0.0000     -0.1046     -0.0000      0.0109      0.0047
        84         0.1046     -0.0000      0.0000      0.0109      0.0047
        85         0.1075      0.0000     -0.0000      0.0116      0.0049
        86         0.0000     -0.1075     -0.0000      0.0116      0.0049
        87         0.0000     -0.0000      0.0000      0.0000      0.0000
        88         0.0000     -0.0000     -0.3913      0.1531      0.0661
        89         0.0000      0.0000      0.0000      0.0000      0.0000
        90         0.0000      0.0001     -0.2018      0.0407      0.0177
        91        -0.0000     -0.4150     -0.0001      0.1722      0.0748
        92        -0.4150      0.0000     -0.0000      0.1722      0.0748
        93        -0.0000      0.0000     -0.3783      0.1431      0.0627
        94        -0.0000      0.0000     -0.0000      0.0000      0.0000
        95        -0.0000      0.1593     -0.0000      0.0254      0.0113
        96         0.1593      0.0000      0.0000      0.0254      0.0113
        97        -0.2553      0.0000     -0.0000      0.0652      0.0292
        98         0.0000      0.2553     -0.0000      0.0652      0.0292
        99         0.0000      0.0000     -0.2040      0.0416      0.0187
       100         0.6977     -0.0000      0.0000      0.4868      0.2197
       101         0.0000      0.6977      0.0000      0.4868      0.2197
       102         0.0000     -0.0129     -0.0000      0.0002      0.0001
       103         0.0129      0.0000      0.0000      0.0002      0.0001
       104         0.0000      0.4212     -0.0000      0.1774      0.0819
       105         0.4212     -0.0000      0.0000      0.1774      0.0819
       106        -0.0000      0.3928     -0.0000      0.1543      0.0731
       107         0.3928      0.0000     -0.0000      0.1543      0.0731
       108         0.0000     -0.0000      0.5442      0.2962      0.1421
       109         0.0000      0.0000      0.0000      0.0000      0.0000
       110        -0.0000     -0.0000      0.0852      0.0073      0.0035
       111         0.0000     -0.0000      0.2684      0.0720      0.0347
       112         0.0000      0.0000      0.5870      0.3445      0.1669
       113         0.0000      0.0288     -0.0000      0.0008      0.0004
       114         0.0288     -0.0000      0.0000      0.0008      0.0004
       115         0.0000     -0.0000      0.3653      0.1335      0.0656
       116         0.0000      0.1356     -0.0000      0.0184      0.0091
       117         0.1356     -0.0000      0.0000      0.0184      0.0091
       118        -0.0000     -0.0000     -0.0000      0.0000      0.0000
       119         0.0000      0.0000     -0.2150      0.0462      0.0230
       120         0.0000      0.0696      0.0000      0.0048      0.0024
       121         0.0696     -0.0000      0.0000      0.0048      0.0024
       122        -0.0000      0.0000     -0.4310      0.1858      0.0929
       123        -0.0000     -0.0000      0.0000      0.0000      0.0000
       124        -0.0000      0.2945      0.0000      0.0867      0.0435
       125         0.2944      0.0000      0.0000      0.0867      0.0435
       126        -0.0000     -0.1777      0.0000      0.0316      0.0159
       127         0.1777     -0.0000      0.0000      0.0316      0.0159
       128         0.0000     -0.0000     -0.3167      0.1003      0.0505
       129         0.0000     -0.1321      0.0000      0.0175      0.0088
       130         0.1321      0.0000      0.0000      0.0175      0.0088
       131        -0.4552     -0.0000      0.0000      0.2072      0.1053
       132         0.0000     -0.4552     -0.0000      0.2072      0.1053
       133         0.0000      0.0643     -0.0000      0.0041      0.0021
       134        -0.0643      0.0000      0.0000      0.0041      0.0021
       135        -0.0000      0.1675      0.0000      0.0280      0.0144
       136        -0.1675     -0.0000     -0.0000      0.0280      0.0144
       137         0.0000     -0.0000      0.0000      0.0000      0.0000
       138        -0.0000      0.0000      0.0360      0.0013      0.0007
       139        -0.0000      0.0000     -0.0000      0.0000      0.0000
       140         0.0000     -0.5702     -0.0000      0.3252      0.1699
       141        -0.5703     -0.0000      0.0000      0.3252      0.1699
       142        -0.0000     -0.2405     -0.0000      0.0578      0.0304
       143        -0.2405      0.0000      0.0000      0.0578      0.0304
       144        -0.0000      0.0000      0.0508      0.0026      0.0014
       145        -0.2911      0.0000     -0.0000      0.0847      0.0451
       146         0.0000      0.2911     -0.0000      0.0847      0.0451
       147        -0.0000     -0.0841     -0.0000      0.0071      0.0038
       148        -0.0841      0.0000     -0.0000      0.0071      0.0038
       149        -0.0000      0.0000      0.0000      0.0000      0.0000
       150         0.0000      0.0000     -0.3493      0.1220      0.0658
       151        -0.0000     -0.0000      0.0633      0.0040      0.0022
       152         0.0586     -0.0000      0.0000      0.0034      0.0019
       153         0.0000      0.0586      0.0000      0.0034      0.0019
       154        -0.1897     -0.0000      0.0000      0.0360      0.0198
       155        -0.0000      0.1897     -0.0000      0.0360      0.0198
       156        -0.0000     -0.0000     -0.2031      0.0413      0.0230
       157        -0.1784      0.0000      0.0000      0.0318      0.0178
       158        -0.0000     -0.1784     -0.0000      0.0318      0.0178
       159        -0.0772      0.0000     -0.0000      0.0060      0.0034
       160        -0.0000     -0.0772      0.0000      0.0060      0.0034
       161        -0.0000     -0.0580      0.0000      0.0034      0.0019
       162         0.0580     -0.0000      0.0000      0.0034      0.0019
       163        -0.1088      0.0000      0.0000      0.0118      0.0068
       164        -0.0000     -0.1088      0.0000      0.0118      0.0068
       165        -0.1403      0.0000     -0.0000      0.0197      0.0114
       166        -0.0000     -0.1403     -0.0000      0.0197      0.0114
       167         0.0000     -0.0000     -0.1390      0.0193      0.0112
       168         0.0000     -0.0000     -0.0000      0.0000      0.0000
       169         0.0000      0.0000     -0.1024      0.0105      0.0061
       170         0.0000     -0.0000     -0.0000      0.0000      0.0000
       171        -0.0984     -0.0000      0.0000      0.0097      0.0056
       172         0.0000     -0.0984     -0.0000      0.0097      0.0056
       173         0.0000     -0.0000      0.0725      0.0053      0.0031
       174         0.0000      0.0000      0.4077      0.1662      0.0973
       175        -0.0274     -0.0000     -0.0000      0.0007      0.0004
       176         0.0000     -0.0274      0.0000      0.0007      0.0004
       177         0.0000     -0.0000      0.1871      0.0350      0.0207
       178         0.5198      0.0000      0.0000      0.2702      0.1600
       179        -0.0000      0.5198      0.0000      0.2702      0.1600
       180         0.0000      0.0000      0.0000      0.0000      0.0000
       181         0.0000     -0.0000     -0.1342      0.0180      0.0107
       182        -0.0000     -0.0000     -0.3871      0.1498      0.0899
       183        -0.3862      0.0000      0.0000      0.1491      0.0905
       184         0.0000      0.3862      0.0000      0.1491      0.0905
       185         0.0000      0.0000     -0.0000      0.0000      0.0000
       186         0.3195      0.0000     -0.0000      0.1021      0.0624
       187        -0.0000      0.3195     -0.0000      0.1021      0.0624
       188         0.0000     -0.0000      0.3806      0.1449      0.0888
[...]
     11   0.102261D-01 -0.388303D+00  0.000000D+00 -0.121250D+00 -0.107571D+00
     12  -0.102384D-01  0.388302D+00  0.000000D+00 -0.121250D+00  0.107572D+00
     13  -0.979522D-05 -0.118998D-05  0.000000D+00  0.106947D+01  0.233113D-05
     14   0.000000D+00  0.000000D+00 -0.388302D+00  0.000000D+00  0.000000D+00
     15   0.000000D+00  0.000000D+00  0.462240D-01  0.000000D+00  0.000000D+00
     16   0.119968D+00  0.462252D-01  0.000000D+00  0.000000D+00 -0.459004D-01
               516           517           518           519           520 
      1  -0.129702D+03 -0.129685D+03 -0.129673D+03 -0.129673D+03 -0.129657D+03
      2   0.721706D-01  0.000000D+00  0.000000D+00 -0.178980D+00  0.898643D-01
      3   0.000000D+00  0.000000D+00  0.178980D+00  0.000000D+00  0.000000D+00
      4   0.000000D+00  0.740579D-01  0.000000D+00  0.000000D+00  0.000000D+00
      5  -0.190987D+00  0.000000D+00  0.000000D+00  0.452574D+00 -0.224063D+00
      6   0.000000D+00 -0.111768D-05 -0.452574D+00  0.000000D+00  0.000000D+00
      7   0.000000D+00 -0.185720D+00  0.000000D+00  0.000000D+00  0.000000D+00
      8   0.000000D+00  0.000000D+00  0.888671D+00  0.000000D+00  0.000000D+00
      9   0.205903D+00  0.000000D+00  0.000000D+00  0.888672D+00 -0.617762D+00
     10   0.000000D+00  0.000000D+00  0.000000D+00  0.000000D+00  0.000000D+00
     11   0.000000D+00  0.164091D-01  0.539891D-01  0.000000D+00  0.000000D+00
     12   0.000000D+00  0.164076D-01 -0.539891D-01  0.000000D+00  0.000000D+00
     13   0.000000D+00  0.615071D+00  0.000000D+00  0.000000D+00  0.000000D+00
     14   0.107572D+00  0.000000D+00  0.000000D+00 -0.539891D-01 -0.947824D-01
     15   0.459024D-01  0.000000D+00  0.000000D+00  0.794434D+00 -0.656663D+00
     16   0.000000D+00  0.000000D+00 -0.794433D+00  0.000000D+00  0.000000D+00
               521           522           523           524           525 
      1  -0.129657D+03 -0.129622D+03 -0.129549D+03 -0.129549D+03 -0.129546D+03
      2   0.000000D+00  0.000000D+00 -0.825937D-01  0.000000D+00  0.000000D+00
      3   0.898645D-01  0.000000D+00  0.000000D+00 -0.825937D-01  0.000000D+00
      4   0.000000D+00  0.345315D-01  0.000000D+00  0.000000D+00 -0.423724D-01
      5   0.000000D+00  0.000000D+00  0.172929D+00  0.000000D+00  0.000000D+00
      6  -0.224064D+00  0.000000D+00  0.000000D+00  0.172929D+00  0.000000D+00
      7   0.000000D+00 -0.103302D+00  0.000000D+00  0.000000D+00  0.131257D+00
      8   0.617763D+00  0.000000D+00  0.000000D+00  0.964049D-01  0.000000D+00
      9   0.000000D+00  0.000000D+00 -0.964045D-01  0.000000D+00  0.000000D+00
     10   0.000000D+00  0.000000D+00  0.000000D+00  0.000000D+00  0.000000D+00
     11  -0.947821D-01  0.251595D-01  0.000000D+00 -0.230549D-01 -0.797253D-01
     12   0.947820D-01  0.251595D-01  0.000000D+00  0.230544D-01 -0.797252D-01
     13   0.000000D+00 -0.577653D+00  0.000000D+00 -0.177464D-05  0.103962D+01
     14   0.000000D+00  0.000000D+00 -0.230554D-01  0.000000D+00  0.000000D+00
     15   0.000000D+00  0.000000D+00 -0.186510D+00  0.000000D+00  0.000000D+00
     16  -0.656664D+00  0.000000D+00  0.000000D+00 -0.186509D+00  0.000000D+00
               526           527           528           529           530 
      1  -0.129490D+03 -0.129487D+03 -0.129487D+03 -0.129445D+03 -0.129445D+03
      2   0.000000D+00  0.000000D+00 -0.677936D-02  0.000000D+00  0.253455D-01
      3   0.000000D+00 -0.677940D-02  0.000000D+00 -0.253455D-01  0.000000D+00
      4   0.414127D-01  0.000000D+00  0.000000D+00  0.000000D+00  0.000000D+00
      5   0.000000D+00  0.000000D+00  0.147706D-01  0.000000D+00 -0.562212D-01
      6   0.000000D+00  0.147707D-01  0.000000D+00  0.562212D-01  0.000000D+00
      7  -0.148703D+00  0.000000D+00  0.000000D+00  0.000000D+00  0.000000D+00
      8   0.169733D-05  0.117859D+00  0.000000D+00  0.275829D+00  0.000000D+00
      9   0.000000D+00  0.000000D+00 -0.117859D+00  0.000000D+00  0.275829D+00
     10   0.000000D+00  0.000000D+00  0.000000D+00  0.000000D+00  0.000000D+00
     11  -0.659626D-01 -0.182898D+00  0.000000D+00  0.227794D+00  0.000000D+00
     12  -0.659611D-01  0.182899D+00  0.000000D+00 -0.227794D+00  0.000000D+00
     13   0.516167D+00 -0.167467D-05  0.000000D+00 -0.123848D-05  0.000000D+00
     14   0.000000D+00  0.000000D+00 -0.182898D+00  0.000000D+00 -0.227794D+00
     15   0.000000D+00  0.000000D+00 -0.187995D+00  0.000000D+00  0.405062D+00
     16  -0.263601D-05 -0.187995D+00  0.000000D+00 -0.405062D+00  0.000000D+00
               531           532           533           534           535 
      1  -0.129383D+03 -0.129383D+03 -0.129378D+03 -0.129378D+03 -0.129375D+03
      2   0.000000D+00  0.320985D-01  0.000000D+00 -0.514552D-01  0.000000D+00
      3   0.320984D-01  0.000000D+00 -0.514554D-01  0.000000D+00  0.000000D+00
      4   0.000000D+00  0.000000D+00  0.146679D-05  0.000000D+00  0.128506D+00
      5   0.000000D+00 -0.953992D-01  0.000000D+00  0.147674D+00  0.000000D+00
      6  -0.953988D-01  0.000000D+00  0.147674D+00  0.000000D+00 -0.195003D-05
      7   0.200656D-05  0.000000D+00 -0.452400D-05  0.000000D+00 -0.399541D+00
      8  -0.292680D+00  0.000000D+00  0.898088D-01  0.000000D+00 -0.219272D-05
      9   0.000000D+00  0.292680D+00  0.000000D+00 -0.898065D-01  0.000000D+00
     10   0.000000D+00  0.000000D+00  0.000000D+00  0.000000D+00  0.000000D+00
     11   0.290936D+00  0.000000D+00  0.262890D+00  0.000000D+00  0.174180D-01
     12  -0.290937D+00  0.000000D+00 -0.262890D+00  0.000000D+00  0.174222D-01
     13   0.378872D-05  0.000000D+00 -0.794657D-05  0.000000D+00 -0.715370D+00
     14   0.000000D+00  0.290935D+00  0.000000D+00  0.262892D+00  0.000000D+00
     15   0.000000D+00  0.294621D+00  0.000000D+00 -0.747386D-01  0.000000D+00
     16   0.294622D+00  0.000000D+00 -0.747408D-01  0.000000D+00  0.304633D-05
               536           537           538           539           540 
      1  -0.129372D+03 -0.129344D+03 -0.129344D+03 -0.129307D+03 -0.129307D+03
      2   0.000000D+00 -0.379774D-01  0.000000D+00  0.000000D+00 -0.570475D-02
      3   0.000000D+00  0.000000D+00  0.379773D-01  0.570587D-02  0.000000D+00
      4   0.000000D+00  0.000000D+00  0.000000D+00  0.000000D+00  0.000000D+00
      5   0.000000D+00  0.119052D+00  0.000000D+00  0.000000D+00  0.109151D-01
      6   0.000000D+00  0.000000D+00 -0.119052D+00 -0.109183D-01  0.000000D+00
      7   0.000000D+00  0.000000D+00  0.000000D+00  0.000000D+00  0.000000D+00
      8   0.000000D+00  0.000000D+00  0.751673D+00 -0.382130D-01  0.000000D+00
      9   0.000000D+00  0.751673D+00  0.000000D+00  0.000000D+00 -0.382162D-01
     10   0.307357D-02  0.000000D+00  0.000000D+00  0.000000D+00  0.000000D+00
     11   0.000000D+00  0.000000D+00  0.914596D-01  0.126721D-01  0.000000D+00
     12   0.000000D+00  0.000000D+00 -0.914596D-01 -0.126721D-01  0.000000D+00
     13   0.000000D+00  0.000000D+00 -0.280908D-05 -0.557474D-05  0.000000D+00
     14   0.000000D+00 -0.914598D-01  0.000000D+00  0.000000D+00 -0.126716D-01
     15  -0.110356D-05  0.115011D+01  0.000000D+00  0.000000D+00  0.552781D-02
     16   0.000000D+00  0.000000D+00 -0.115011D+01 -0.553199D-02  0.000000D+00
               541           542           543           544           545 
      1  -0.129299D+03 -0.129299D+03 -0.129284D+03 -0.129284D+03 -0.129283D+03
      2   0.000000D+00 -0.144106D+00  0.000000D+00 -0.747443D-01  0.000000D+00
      3  -0.144107D+00  0.000000D+00  0.747441D-01  0.000000D+00 -0.697201D-05
      4   0.000000D+00  0.000000D+00  0.166274D-05  0.000000D+00  0.185456D-01
      5   0.000000D+00  0.394169D+00  0.000000D+00  0.228013D+00  0.000000D+00
      6   0.394170D+00  0.000000D+00 -0.228013D+00  0.000000D+00  0.210814D-04
      7   0.000000D+00  0.000000D+00 -0.918007D-05  0.000000D+00 -0.103701D+00
      8  -0.605955D+00  0.000000D+00 -0.487008D+00  0.000000D+00  0.369717D-04
      9   0.000000D+00  0.605955D+00  0.000000D+00 -0.487004D+00  0.000000D+00
     10   0.000000D+00  0.000000D+00  0.000000D+00  0.000000D+00  0.000000D+00
     11  -0.414308D-01  0.000000D+00  0.437215D-01  0.000000D+00 -0.291762D-01
     12   0.414308D-01  0.000000D+00 -0.437254D-01  0.000000D+00 -0.291700D-01
     13   0.607150D-05  0.000000D+00 -0.120705D-03  0.000000D+00 -0.138742D+01
     14   0.000000D+00 -0.414309D-01  0.000000D+00 -0.437227D-01  0.000000D+00
     15   0.000000D+00  0.641826D+00  0.000000D+00 -0.403455D+00  0.000000D+00
     16   0.641827D+00  0.000000D+00  0.403459D+00  0.000000D+00 -0.297466D-04
               546           547           548           549           550 
      1  -0.129270D+03 -0.129267D+03 -0.129256D+03 -0.129256D+03 -0.129253D+03
      2   0.000000D+00  0.000000D+00  0.000000D+00  0.822416D-01 -0.227748D-05
      3   0.000000D+00  0.000000D+00  0.822414D-01  0.000000D+00  0.000000D+00
      4   0.476113D-01  0.000000D+00  0.000000D+00  0.000000D+00  0.000000D+00
      5   0.000000D+00 -0.145193D-05  0.000000D+00 -0.243280D+00  0.675581D-05
      6   0.000000D+00  0.000000D+00 -0.243280D+00  0.000000D+00  0.000000D+00
      7  -0.128917D+00  0.000000D+00  0.000000D+00  0.000000D+00  0.000000D+00
      8   0.177952D-05  0.000000D+00 -0.530308D+00  0.000000D+00  0.000000D+00
      9   0.000000D+00  0.389072D-05  0.000000D+00  0.530309D+00 -0.139360D-04
     10   0.000000D+00  0.108469D-01  0.000000D+00  0.000000D+00  0.375408D-03
     11   0.344549D-01  0.000000D+00  0.853800D-01  0.000000D+00  0.000000D+00
     12   0.344556D-01  0.000000D+00 -0.853779D-01  0.000000D+00  0.000000D+00
     13   0.948942D+00  0.000000D+00 -0.142403D-05  0.000000D+00  0.000000D+00
     14   0.000000D+00  0.103223D-05  0.000000D+00  0.853785D-01 -0.199026D-05
     15   0.000000D+00  0.452126D-05  0.000000D+00  0.580916D+00 -0.152407D-04
     16  -0.188931D-05  0.000000D+00  0.580915D+00  0.000000D+00  0.000000D+00
               551           552           553           554           555 
      1  -0.129230D+03 -0.129228D+03 -0.129228D+03 -0.129226D+03 -0.129215D+03
      2   0.000000D+00 -0.166215D+00  0.000000D+00  0.000000D+00 -0.231717D-01
      3   0.000000D+00  0.000000D+00 -0.166215D+00 -0.102111D-05  0.000000D+00
      4   0.409135D-01  0.000000D+00  0.000000D+00 -0.146289D+00  0.000000D+00
      5   0.000000D+00  0.483901D+00  0.000000D+00  0.000000D+00  0.612111D-01
      6   0.000000D+00  0.000000D+00  0.483901D+00  0.298805D-05  0.000000D+00
      7  -0.152913D+00  0.000000D+00 -0.271748D-05  0.479267D+00  0.000000D+00
      8   0.950881D-05  0.000000D+00 -0.102189D+01 -0.283234D-05  0.000000D+00
      9   0.000000D+00  0.102189D+01  0.000000D+00  0.000000D+00  0.157481D+00
     10   0.000000D+00  0.000000D+00  0.000000D+00  0.000000D+00  0.000000D+00
     11   0.159138D+00  0.000000D+00  0.569235D-01  0.550699D-02  0.000000D+00
     12   0.159140D+00  0.000000D+00 -0.569218D-01  0.550719D-02  0.000000D+00
     13  -0.205909D+01  0.000000D+00 -0.227264D-04  0.319460D+01  0.000000D+00
     14   0.000000D+00  0.569235D-01  0.000000D+00  0.000000D+00 -0.775514D-01
     15   0.000000D+00  0.144403D+01  0.000000D+00  0.000000D+00  0.467729D+00
     16  -0.110889D-04  0.000000D+00  0.144403D+01  0.512110D-05  0.000000D+00
               556           557           558           559           560 
      1  -0.129215D+03 -0.129162D+03 -0.129162D+03 -0.129135D+03 -0.129135D+03
      2   0.000000D+00  0.000000D+00  0.617670D-03  0.000000D+00 -0.256627D-01
      3   0.231699D-01  0.617485D-03  0.000000D+00 -0.256624D-01  0.000000D+00
      4   0.000000D+00  0.000000D+00  0.000000D+00 -0.517117D-05  0.000000D+00
      5   0.000000D+00  0.000000D+00  0.580998D-02  0.000000D+00  0.795225D-01
      6  -0.612062D-01  0.581041D-02  0.000000D+00  0.795218D-01  0.000000D+00
      7   0.000000D+00  0.000000D+00  0.000000D+00  0.235339D-04  0.000000D+00
      8   0.157474D+00  0.298321D+00  0.000000D+00  0.243690D+00  0.000000D+00
      9   0.000000D+00  0.000000D+00 -0.298320D+00  0.000000D+00 -0.243692D+00
     10   0.000000D+00  0.000000D+00  0.000000D+00  0.000000D+00  0.000000D+00
     11   0.775523D-01  0.700675D-01  0.000000D+00 -0.106638D-01  0.000000D+00
     12  -0.775514D-01 -0.700675D-01  0.000000D+00  0.106617D-01  0.000000D+00
     13   0.273664D-05  0.000000D+00  0.000000D+00  0.142896D-04  0.000000D+00
     14   0.000000D+00  0.000000D+00  0.700672D-01  0.000000D+00 -0.106619D-01
     15   0.000000D+00  0.000000D+00 -0.415784D+00  0.000000D+00 -0.497621D-01
     16  -0.467717D+00 -0.415785D+00  0.000000D+00 -0.497597D-01  0.000000D+00
               561           562           563           564           565 
      1  -0.129135D+03 -0.129125D+03 -0.129107D+03 -0.129090D+03 -0.129088D+03
      2   0.000000D+00  0.000000D+00  0.000000D+00  0.000000D+00  0.417984D-01
      3   0.328030D-05  0.000000D+00  0.000000D+00  0.000000D+00  0.000000D+00
      4  -0.437182D-01  0.000000D+00  0.122395D+00 -0.246695D-01  0.000000D+00
      5   0.000000D+00  0.000000D+00  0.000000D+00  0.000000D+00 -0.101867D+00
      6  -0.101551D-04  0.000000D+00  0.000000D+00  0.000000D+00  0.000000D+00
      7   0.196799D+00  0.000000D+00 -0.432571D+00  0.840556D-01  0.000000D+00
      8  -0.293288D-04  0.000000D+00  0.000000D+00  0.154080D-05  0.000000D+00
      9   0.000000D+00  0.000000D+00  0.000000D+00  0.000000D+00 -0.457590D+00
     10   0.000000D+00 -0.165267D-01  0.000000D+00  0.000000D+00  0.000000D+00
     11  -0.960508D-02  0.000000D+00 -0.632086D-01 -0.395081D-01  0.000000D+00
     12  -0.960823D-02  0.000000D+00 -0.632082D-01 -0.395083D-01  0.000000D+00
     13   0.115705D+00  0.000000D+00  0.967490D+00  0.114780D+01  0.000000D+00
     14   0.000000D+00  0.000000D+00  0.000000D+00  0.000000D+00  0.192179D-01
     15   0.000000D+00  0.000000D+00  0.000000D+00  0.000000D+00 -0.566368D+00
     16   0.480976D-05  0.000000D+00  0.000000D+00 -0.186761D-05  0.000000D+00
               566           567           568           569           570 
      1  -0.129088D+03 -0.128959D+03 -0.128959D+03 -0.128860D+03 -0.128833D+03
      2   0.000000D+00  0.117160D+00  0.000000D+00  0.000000D+00 -0.133486D-01
      3   0.417982D-01  0.000000D+00 -0.117159D+00  0.000000D+00  0.000000D+00
      4   0.000000D+00  0.000000D+00  0.000000D+00 -0.634221D-01  0.000000D+00
      5   0.000000D+00 -0.326997D+00  0.000000D+00  0.000000D+00  0.502228D-01
      6  -0.101866D+00  0.000000D+00  0.326997D+00  0.000000D+00  0.000000D+00
      7   0.000000D+00  0.000000D+00  0.000000D+00  0.158696D+00  0.000000D+00
      8   0.457590D+00  0.000000D+00  0.669327D+00  0.000000D+00  0.000000D+00
      9   0.000000D+00  0.669329D+00  0.000000D+00  0.000000D+00 -0.246206D+00
     10   0.000000D+00  0.000000D+00  0.000000D+00  0.000000D+00  0.000000D+00
     11   0.192183D-01  0.000000D+00  0.142051D+00  0.259344D-01  0.000000D+00
     12  -0.192175D-01  0.000000D+00 -0.142050D+00  0.259339D-01  0.000000D+00
     13  -0.621821D-05  0.000000D+00  0.000000D+00 -0.457914D+00  0.000000D+00
     14   0.000000D+00 -0.142051D+00  0.000000D+00  0.000000D+00  0.909287D-01
     15   0.000000D+00  0.595044D+00  0.000000D+00  0.000000D+00 -0.180795D+00
     16  -0.566369D+00  0.000000D+00 -0.595042D+00  0.000000D+00  0.000000D+00
               571           572           573           574           575 
      1  -0.128833D+03 -0.128814D+03 -0.128814D+03 -0.128743D+03 -0.128743D+03
      2   0.000000D+00  0.000000D+00  0.301931D-01  0.000000D+00 -0.292016D-01
      3  -0.133489D-01 -0.301931D-01  0.000000D+00 -0.292016D-01  0.000000D+00
      4   0.000000D+00  0.000000D+00  0.000000D+00  0.000000D+00  0.000000D+00
      5   0.000000D+00  0.000000D+00 -0.940766D-01  0.000000D+00  0.875703D-01
      6   0.502238D-01  0.940765D-01  0.000000D+00  0.875705D-01  0.000000D+00
      7   0.000000D+00  0.000000D+00  0.000000D+00  0.000000D+00  0.000000D+00
      8   0.246208D+00 -0.106416D+00  0.000000D+00 -0.507692D+00  0.000000D+00
      9   0.000000D+00  0.000000D+00 -0.106416D+00  0.000000D+00  0.507693D+00
     10   0.000000D+00  0.000000D+00  0.000000D+00  0.000000D+00  0.000000D+00
     11   0.909290D-01 -0.195489D-01  0.000000D+00 -0.152562D-01  0.000000D+00
     12  -0.909290D-01  0.195490D-01  0.000000D+00  0.152560D-01  0.000000D+00
     13   0.137458D-05  0.000000D+00  0.000000D+00  0.155593D-05  0.000000D+00
     14   0.000000D+00  0.000000D+00  0.195488D-01  0.000000D+00 -0.152564D-01
     15   0.000000D+00  0.000000D+00 -0.189955D+00  0.000000D+00  0.729915D+00
     16  -0.180796D+00  0.189955D+00  0.000000D+00  0.729915D+00  0.000000D+00
               576           577           578           579           580 
      1  -0.128728D+03 -0.128707D+03 -0.128707D+03 -0.128689D+03 -0.128582D+03
      2   0.000000D+00  0.170181D-01  0.000000D+00  0.000000D+00  0.000000D+00
      3   0.000000D+00  0.000000D+00  0.170181D-01  0.000000D+00  0.117757D-01
      4   0.163443D-01  0.000000D+00  0.000000D+00 -0.161636D+00  0.000000D+00
      5   0.000000D+00 -0.552063D-01  0.000000D+00  0.000000D+00  0.000000D+00
      6   0.000000D+00  0.000000D+00 -0.552061D-01  0.000000D+00 -0.360168D-01
      7  -0.102018D+00  0.000000D+00  0.000000D+00  0.557375D+00  0.000000D+00
      8   0.000000D+00  0.000000D+00  0.359503D+00  0.000000D+00 -0.806120D-01
      9   0.000000D+00 -0.359503D+00  0.000000D+00  0.000000D+00  0.000000D+00
     10   0.000000D+00  0.000000D+00  0.000000D+00  0.000000D+00  0.000000D+00
     11   0.123948D-02  0.000000D+00  0.190412D-01 -0.146797D+00 -0.591681D-01
     12   0.123952D-02  0.000000D+00 -0.190412D-01 -0.146797D+00  0.591680D-01
     13  -0.157872D+01  0.000000D+00  0.000000D+00  0.356192D+01  0.000000D+00
     14   0.000000D+00  0.190412D-01  0.000000D+00  0.000000D+00  0.000000D+00
     15   0.000000D+00 -0.506497D+00  0.000000D+00  0.000000D+00  0.000000D+00
     16   0.000000D+00  0.000000D+00 -0.506497D+00  0.000000D+00  0.114584D+00
               581           582           583           584 
      1  -0.128582D+03 -0.128540D+03 -0.128281D+03 -0.128169D+03
      2   0.117758D-01  0.000000D+00  0.000000D+00  0.000000D+00
      3   0.000000D+00  0.000000D+00  0.000000D+00  0.000000D+00
      4   0.000000D+00 -0.557510D-01  0.376171D-01 -0.665088D-01
      5  -0.360172D-01  0.000000D+00  0.000000D+00  0.000000D+00
      6   0.000000D+00  0.000000D+00  0.000000D+00  0.000000D+00
      7   0.000000D+00  0.196370D+00 -0.885311D-01  0.266923D+00
      8   0.000000D+00  0.000000D+00  0.000000D+00  0.000000D+00
      9   0.806127D-01  0.000000D+00  0.000000D+00  0.000000D+00
     10   0.000000D+00  0.000000D+00  0.000000D+00  0.000000D+00
     11   0.000000D+00  0.162107D+00  0.293514D-01  0.687403D-02
     12   0.000000D+00  0.162107D+00  0.293516D-01  0.687408D-02
     13   0.000000D+00 -0.955982D+00  0.369198D+00  0.971986D+00
     14  -0.591682D-01  0.000000D+00  0.000000D+00  0.000000D+00
     15   0.114585D+00  0.000000D+00  0.000000D+00  0.000000D+00
     16   0.000000D+00  0.000000D+00  0.000000D+00  0.000000D+00
 Unable to Open any file for archive entry.
 1\1\GINC-HEL12\SP\RTPSSh TD-FC\Gen\C2H3N1\SABYASACHI\21-Mar-2022\0\\#P
  TD(Nstates=10000) tpssh/Gen SCF(maxcycles=100) Int(Grid=ultrafine)\\x
 GDB7_00001_tier4.com\\0,1\C,0,0.,0.,-1.173653\C,0,0.,0.,0.280989\N,0,0
 .,0.,1.427442\H,0,0.,1.024088,-1.545371\H,0,-0.886886,-0.512044,-1.545
 371\H,0,0.886886,-0.512044,-1.545371\\Version=EM64L-G16RevC.01\State=1
 -A1\HF=-132.6675375\RMSD=3.827e-09\PG=C03V [C3(C1C1N1),3SGV(H1)]\\@
 The archive entry for this job was punched.


 DON'T WORRY CHARLIE BROWN...WE LEARN MORE FROM LOSING 
 THAN WE DO FROM WINNING.
 THEN THAT MAKES ME THE SMARTEST PERSON IN THE WORLD...
 CHARLES SCHULZ 'PEANUTS'
 Job cpu time:       0 days  0 hours  6 minutes  3.6 seconds.
 Elapsed time:       0 days  0 hours  0 minutes 45.8 seconds.
 File lengths (MBytes):  RWF=    441 Int=      0 D2E=      0 Chk=    101 Scr=      1
 Normal termination of Gaussian 16 at Mon Mar 21 19:59:05 2022.
