 Entering Gaussian System, Link 0=g16
 Input=000006.com
 Output=000006.log
 Initial command:
 /home/sabyasachi/g16/l1.exe "/scratch/sabyasachi/PBS_7975843.helios/Gau-105111.inp" -scrdir="/scratch/sabyasachi/PBS_7975843.helios/"
 Entering Link 1 = /home/sabyasachi/g16/l1.exe PID=    105115.
  
 Copyright (c) 1988-2019, Gaussian, Inc.  All Rights Reserved.
  
 This is part of the Gaussian(R) 16 program.  It is based on
 the Gaussian(R) 09 system (copyright 2009, Gaussian, Inc.),
 the Gaussian(R) 03 system (copyright 2003, Gaussian, Inc.),
 the Gaussian(R) 98 system (copyright 1998, Gaussian, Inc.),
 the Gaussian(R) 94 system (copyright 1995, Gaussian, Inc.),
 the Gaussian 92(TM) system (copyright 1992, Gaussian, Inc.),
 the Gaussian 90(TM) system (copyright 1990, Gaussian, Inc.),
 the Gaussian 88(TM) system (copyright 1988, Gaussian, Inc.),
 the Gaussian 86(TM) system (copyright 1986, Carnegie Mellon
 University), and the Gaussian 82(TM) system (copyright 1983,
 Carnegie Mellon University). Gaussian is a federally registered
 trademark of Gaussian, Inc.
  
 This software contains proprietary and confidential information,
 including trade secrets, belonging to Gaussian, Inc.
  
 This software is provided under written license and may be
 used, copied, transmitted, or stored only in accord with that
 written license.
  
 The following legend is applicable only to US Government
 contracts under FAR:
  
                    RESTRICTED RIGHTS LEGEND
  
 Use, reproduction and disclosure by the US Government is
 subject to restrictions as set forth in subparagraphs (a)
 and (c) of the Commercial Computer Software - Restricted
 Rights clause in FAR 52.227-19.
  
 Gaussian, Inc.
 340 Quinnipiac St., Bldg. 40, Wallingford CT 06492
  
  
 ---------------------------------------------------------------
 Warning -- This program may not be used in any manner that
 competes with the business of Gaussian, Inc. or will provide
 assistance to any competitor of Gaussian, Inc.  The licensee
 of this program is prohibited from giving any competitor of
 Gaussian, Inc. access to this program.  By using this program,
 the user acknowledges that Gaussian, Inc. is engaged in the
 business of creating and licensing software in the field of
 computational chemistry and represents and warrants to the
 licensee that it is not a competitor of Gaussian, Inc. and that
 it will not use this program in any manner prohibited above.
 ---------------------------------------------------------------
  

 Cite this work as:
 Gaussian 16, Revision C.01,
 M. J. Frisch, G. W. Trucks, H. B. Schlegel, G. E. Scuseria, 
 M. A. Robb, J. R. Cheeseman, G. Scalmani, V. Barone, 
 G. A. Petersson, H. Nakatsuji, X. Li, M. Caricato, A. V. Marenich, 
 J. Bloino, B. G. Janesko, R. Gomperts, B. Mennucci, H. P. Hratchian, 
 J. V. Ortiz, A. F. Izmaylov, J. L. Sonnenberg, D. Williams-Young, 
 F. Ding, F. Lipparini, F. Egidi, J. Goings, B. Peng, A. Petrone, 
 T. Henderson, D. Ranasinghe, V. G. Zakrzewski, J. Gao, N. Rega, 
 G. Zheng, W. Liang, M. Hada, M. Ehara, K. Toyota, R. Fukuda, 
 J. Hasegawa, M. Ishida, T. Nakajima, Y. Honda, O. Kitao, H. Nakai, 
 T. Vreven, K. Throssell, J. A. Montgomery, Jr., J. E. Peralta, 
 F. Ogliaro, M. J. Bearpark, J. J. Heyd, E. N. Brothers, K. N. Kudin, 
 V. N. Staroverov, T. A. Keith, R. Kobayashi, J. Normand, 
 K. Raghavachari, A. P. Rendell, J. C. Burant, S. S. Iyengar, 
 J. Tomasi, M. Cossi, J. M. Millam, M. Klene, C. Adamo, R. Cammi, 
 J. W. Ochterski, R. L. Martin, K. Morokuma, O. Farkas, 
 J. B. Foresman, and D. J. Fox, Gaussian, Inc., Wallingford CT, 2019.
 
 ******************************************
 Gaussian 16:  EM64L-G16RevC.01  3-Jul-2019
                21-Mar-2022 
 ******************************************
 %mem=64gb
 %nproc=8
 Will use up to    8 processors via shared memory.
 ---------------------------------------------------------------------
 #P TD(Nstates=10000) svwn5/Gen SCF(maxcycles=100) Int(Grid=ultrafine)
 ---------------------------------------------------------------------
 1/38=1,172=1/1;
 2/12=2,17=6,18=5,40=1/2;
 3/5=7,11=9,25=1,30=1,74=201,75=-5/1,2,3,8;
 4//1;
 5/5=2,7=100,38=5/2;
 8/6=1,10=1,108=10000/1;
 9/41=10000,42=1,70=2/14;
 6/7=2,8=2,9=2,10=2/1;
 99/5=1,9=1/99;
 Leave Link    1 at Mon Mar 21 19:57:55 2022, MaxMem=  8589934592 cpu:               0.4 elap:               0.1
 (Enter /home/sabyasachi/g16/l101.exe)
 ---------------------
 xGDB7_00001_tier4.com
 ---------------------
 Symbolic Z-matrix:
 Charge =  0 Multiplicity = 1
 6                    -0.04908   0.70204   0. 
 7                    -0.04908  -0.75424   0. 
 1                     0.94611   1.1666    0. 
 1                    -0.58757   1.0626    0.87777 
 1                    -0.58757   1.0626   -0.87777 
 1                     0.43353  -1.11218   0.8125 
 1                     0.43353  -1.11218  -0.8125 
 
 ITRead=  0  0  0  0  0  0  0
 MicOpt= -1 -1 -1 -1 -1 -1 -1
 NAtoms=      7 NQM=        7 NQMF=       0 NMMI=      0 NMMIF=      0
                NMic=       0 NMicF=      0.
                    Isotopes and Nuclear Properties:
 (Nuclear quadrupole moments (NQMom) in fm**2, nuclear magnetic moments (NMagM)
  in nuclear magnetons)

  Atom         1           2           3           4           5           6           7
 IAtWgt=          12          14           1           1           1           1           1
 AtmWgt=  12.0000000  14.0030740   1.0078250   1.0078250   1.0078250   1.0078250   1.0078250
 NucSpn=           0           2           1           1           1           1           1
 AtZEff=  -0.0000000  -0.0000000  -0.0000000  -0.0000000  -0.0000000  -0.0000000  -0.0000000
 NQMom=    0.0000000   2.0440000   0.0000000   0.0000000   0.0000000   0.0000000   0.0000000
 NMagM=    0.0000000   0.4037610   2.7928460   2.7928460   2.7928460   2.7928460   2.7928460
 AtZNuc=   6.0000000   7.0000000   1.0000000   1.0000000   1.0000000   1.0000000   1.0000000
 Leave Link  101 at Mon Mar 21 19:57:55 2022, MaxMem=  8589934592 cpu:               0.7 elap:               0.1
 (Enter /home/sabyasachi/g16/l202.exe)
                          Input orientation:                          
 ---------------------------------------------------------------------
 Center     Atomic      Atomic             Coordinates (Angstroms)
 Number     Number       Type             X           Y           Z
 ---------------------------------------------------------------------
      1          6           0       -0.049078    0.702042    0.000000
      2          7           0       -0.049078   -0.754243    0.000000
      3          1           0        0.946109    1.166603    0.000000
      4          1           0       -0.587574    1.062597    0.877770
      5          1           0       -0.587574    1.062597   -0.877770
      6          1           0        0.433525   -1.112175    0.812504
      7          1           0        0.433525   -1.112175   -0.812504
 ---------------------------------------------------------------------
                    Distance matrix (angstroms):
                    1          2          3          4          5
     1  C    0.000000
     2  N    1.456285   0.000000
     3  H    1.098278   2.163342   0.000000
     4  H    1.091081   2.088388   1.770164   0.000000
     5  H    1.091081   2.088388   1.770164   1.755540   0.000000
     6  H    2.045593   1.010536   2.473001   2.403443   2.937567
     7  H    2.045593   1.010536   2.473001   2.937567   2.403443
                    6          7
     6  H    0.000000
     7  H    1.625008   0.000000
 Stoichiometry    CH5N
 Framework group  CS[SG(CHN),X(H4)]
 Deg. of freedom     9
 Full point group                 CS      NOp   2
 Largest Abelian subgroup         CS      NOp   2
 Largest concise Abelian subgroup CS      NOp   2
                         Standard orientation:                         
 ---------------------------------------------------------------------
 Center     Atomic      Atomic             Coordinates (Angstroms)
 Number     Number       Type             X           Y           Z
 ---------------------------------------------------------------------
      1          6           0       -0.049078    0.702042   -0.000000
      2          7           0       -0.049078   -0.754243    0.000000
      3          1           0        0.946109    1.166603   -0.000000
      4          1           0       -0.587574    1.062597    0.877770
      5          1           0       -0.587574    1.062597   -0.877770
      6          1           0        0.433525   -1.112175    0.812504
      7          1           0        0.433525   -1.112175   -0.812504
 ---------------------------------------------------------------------
 Rotational constants (GHZ):         104.1843361          22.9598117          22.0420045
 Leave Link  202 at Mon Mar 21 19:57:55 2022, MaxMem=  8589934592 cpu:               0.1 elap:               0.0
 (Enter /home/sabyasachi/g16/l301.exe)
 General basis read from cards:  (5D, 7F)
 Centers:       3      4      5      6      7
 S 3 1.00
     Exponent=  1.3010701000D+01 Coefficients=  1.9682158000D-02
     Exponent=  1.9622572000D+00 Coefficients=  1.3796524000D-01
     Exponent=  4.4453796000D-01 Coefficients=  4.7831935000D-01
 S 1 1.00
     Exponent=  1.2194962000D-01 Coefficients=  1.0000000000D+00
 P 1 1.00
     Exponent=  8.0000000000D-01 Coefficients=  1.0000000000D+00
 P 1 1.00
     Exponent=  1.1704099050D-01 Coefficients=  1.0000000000D+00
 ****
 Centers:       1
 S 5 1.00
     Exponent=  1.2384016938D+03 Coefficients=  5.4568832082D-03
     Exponent=  1.8629004992D+02 Coefficients=  4.0638409211D-02
     Exponent=  4.2251176346D+01 Coefficients=  1.8025593888D-01
     Exponent=  1.1676557932D+01 Coefficients=  4.6315121755D-01
     Exponent=  3.5930506482D+00 Coefficients=  4.4087173314D-01
 S 1 1.00
     Exponent=  4.0245147363D-01 Coefficients=  1.0000000000D+00
 S 1 1.00
     Exponent=  1.3090182668D-01 Coefficients=  1.0000000000D+00
 S 1 1.00
     Exponent=  6.7053540256D-02 Coefficients=  1.0000000000D+00
 P 3 1.00
     Exponent=  9.4680970621D+00 Coefficients=  3.8387871728D-02
     Exponent=  2.0103545142D+00 Coefficients=  2.1117025112D-01
     Exponent=  5.4771004707D-01 Coefficients=  5.1328172114D-01
 P 1 1.00
     Exponent=  1.5268613795D-01 Coefficients=  1.0000000000D+00
 D 1 1.00
     Exponent=  8.0000000000D-01 Coefficients=  1.0000000000D+00
 D 1 1.00
     Exponent=  1.1713185140D-01 Coefficients=  1.0000000000D+00
 ****
 Centers:       2
 S 5 1.00
     Exponent=  1.7128415853D+03 Coefficients= -5.3934125305D-03
     Exponent=  2.5764812677D+02 Coefficients= -4.0221581118D-02
     Exponent=  5.8458245853D+01 Coefficients= -1.7931144990D-01
     Exponent=  1.6198367905D+01 Coefficients= -4.6376317823D-01
     Exponent=  5.0052600809D+00 Coefficients= -4.4171422662D-01
 S 1 1.00
     Exponent=  5.8731856571D-01 Coefficients=  1.0000000000D+00
 S 1 1.00
     Exponent=  1.8764592253D-01 Coefficients=  1.0000000000D+00
 S 1 1.00
     Exponent=  9.6171241529D-02 Coefficients=  1.0000000000D+00
 P 3 1.00
     Exponent=  1.3571470233D+01 Coefficients= -4.0072398852D-02
     Exponent=  2.9257372874D+00 Coefficients= -2.1807045028D-01
     Exponent=  7.9927750754D-01 Coefficients= -5.1294466049D-01
 P 1 1.00
     Exponent=  2.1954348034D-01 Coefficients=  1.0000000000D+00
 D 1 1.00
     Exponent=  1.0000000000D+00 Coefficients=  1.0000000000D+00
 D 1 1.00
     Exponent=  1.6697708112D-01 Coefficients=  1.0000000000D+00
 ****
 Ernie: Thresh=  0.10000D-02 Tol=  0.10000D-05 Strict=F.
 There are    54 symmetry adapted cartesian basis functions of A'  symmetry.
 There are    30 symmetry adapted cartesian basis functions of A"  symmetry.
 There are    50 symmetry adapted basis functions of A'  symmetry.
 There are    30 symmetry adapted basis functions of A"  symmetry.
    80 basis functions,   114 primitive gaussians,    84 cartesian basis functions
     9 alpha electrons        9 beta electrons
       nuclear repulsion energy        42.1215507304 Hartrees.
 IExCor=  201 DFT=T Ex=S Corr=VWN5 ExCW=0 ScaHFX=  0.000000
 ScaDFX=  1.000000  1.000000  1.000000  1.000000 ScalE2=  1.000000  1.000000
 IRadAn=      5 IRanWt=     -1 IRanGd=            0 ICorTp=0 IEmpDi=  4
 NAtoms=    7 NActive=    7 NUniq=    5 SFac= 1.96D+00 NAtFMM=   60 NAOKFM=F Big=F
 Integral buffers will be    131072 words long.
 Regular integral format.
 Two-electron integral symmetry is turned on.
 Leave Link  301 at Mon Mar 21 19:57:55 2022, MaxMem=  8589934592 cpu:               0.6 elap:               0.1
 (Enter /home/sabyasachi/g16/l302.exe)
 NPDir=0 NMtPBC=     1 NCelOv=     1 NCel=       1 NClECP=     1 NCelD=      1
         NCelK=      1 NCelE2=     1 NClLst=     1 CellRange=     0.0.
 One-electron integrals computed using PRISM.
 One-electron integral symmetry used in STVInt
 NBasis=    80 RedAO= T EigKep=  5.26D-04  NBF=    50    30
 NBsUse=    80 1.00D-06 EigRej= -1.00D+00 NBFU=    50    30
 Precomputing XC quadrature grid using
 IXCGrd= 4 IRadAn=           5 IRanWt=          -1 IRanGd=           0 AccXCQ= 0.00D+00.
 Generated NRdTot=       0 NPtTot=           0 NUsed=           0 NTot=          32
 NSgBfM=    84    84    84    84    84 MxSgAt=     7 MxSgA2=     7.
 Leave Link  302 at Mon Mar 21 19:57:55 2022, MaxMem=  8589934592 cpu:               1.0 elap:               0.2
 (Enter /home/sabyasachi/g16/l303.exe)
 DipDrv:  MaxL=1.
 Leave Link  303 at Mon Mar 21 19:57:55 2022, MaxMem=  8589934592 cpu:               0.2 elap:               0.0
 (Enter /home/sabyasachi/g16/l308.exe)
 Leave Link  308 at Mon Mar 21 19:57:55 2022, MaxMem=  8589934592 cpu:               0.2 elap:               0.1
 (Enter /home/sabyasachi/g16/l401.exe)
 ExpMin= 6.71D-02 ExpMax= 1.71D+03 ExpMxC= 2.58D+02 IAcc=3 IRadAn=         5 AccDes= 0.00D+00
 Harris functional with IExCor=  201 and IRadAn=       5 diagonalized for initial guess.
 HarFok:  IExCor=  201 AccDes= 0.00D+00 IRadAn=         5 IDoV= 1 UseB2=F ITyADJ=14
 ICtDFT=  3500011 ScaDFX=  1.000000  1.000000  1.000000  1.000000
 FoFCou: FMM=F IPFlag=           0 FMFlag=      100000 FMFlg1=           0
         NFxFlg=           0 DoJE=T BraDBF=F KetDBF=T FulRan=T
         wScrn=  0.000000 ICntrl=       500 IOpCl=  0 I1Cent=   200000004 NGrid=           0
         NMat0=    1 NMatS0=      1 NMatT0=    0 NMatD0=    1 NMtDS0=    0 NMtDT0=    0
 Petite list used in FoFCou.
 Harris En= -95.0240803929885    
 JPrj=0 DoOrth=F DoCkMO=F.
 Initial guess orbital symmetries:
       Occupied  (A') (A') (A') (A') (A") (A') (A') (A") (A')
       Virtual   (A') (A') (A") (A') (A") (A') (A') (A") (A') (A')
                 (A") (A') (A') (A") (A') (A') (A") (A') (A") (A")
                 (A') (A') (A") (A') (A') (A') (A") (A") (A') (A")
                 (A') (A") (A') (A') (A') (A") (A') (A') (A') (A")
                 (A') (A') (A") (A') (A") (A') (A') (A") (A") (A")
                 (A') (A") (A') (A') (A") (A') (A") (A') (A") (A')
                 (A') (A") (A') (A') (A') (A") (A') (A") (A') (A')
                 (A")
 The electronic state of the initial guess is 1-A'.
 Leave Link  401 at Mon Mar 21 19:57:55 2022, MaxMem=  8589934592 cpu:               1.4 elap:               0.2
 (Enter /home/sabyasachi/g16/l502.exe)
 Keep J ints in memory in symmetry-blocked form, NReq=12533096.
 FoFCou: FMM=F IPFlag=           0 FMFlag=           0 FMFlg1=           0
         NFxFlg=           0 DoJE=F BraDBF=F KetDBF=F FulRan=T
         wScrn=  0.000000 ICntrl=       600 IOpCl=  0 I1Cent=           0 NGrid=           0
         NMat0=    1 NMatS0=   3240 NMatT0=    0 NMatD0=    1 NMtDS0=    0 NMtDT0=    0
 Petite list used in FoFCou.
 Closed shell SCF:
 Using DIIS extrapolation, IDIIS=  1040.
 NGot=  8589934592 LenX=  8587270692 LenY=  8587263195
 Requested convergence on RMS density matrix=1.00D-08 within 100 cycles.
 Requested convergence on MAX density matrix=1.00D-06.
 Requested convergence on             energy=1.00D-06.
 No special actions if energy rises.
 Integral accuracy reduced to 1.0D-05 until final iterations.

 Cycle   1  Pass 0  IDiag  1:
 E= -94.8444958527627    
 DIIS: error= 3.80D-02 at cycle   1 NSaved=   1.
 NSaved= 1 IEnMin= 1 EnMin= -94.8444958527627     IErMin= 1 ErrMin= 3.80D-02
 ErrMax= 3.80D-02  0.00D+00 EMaxC= 1.00D-01 BMatC= 9.27D-02 BMatP= 9.27D-02
 IDIUse=3 WtCom= 6.20D-01 WtEn= 3.80D-01
 Coeff-Com:  0.100D+01
 Coeff-En:   0.100D+01
 Coeff:      0.100D+01
 Gap=     0.094 Goal=   None    Shift=    0.000
 GapD=    0.094 DampG=0.500 DampE=0.500 DampFc=0.2500 IDamp=-1.
 Damping current iteration by 2.50D-01
 RMSDP=2.75D-02 MaxDP=1.36D+00              OVMax= 2.66D-01

 Cycle   2  Pass 0  IDiag  1:
 E= -94.8800554459667     Delta-E=       -0.035559593204 Rises=F Damp=T
 DIIS: error= 1.33D-02 at cycle   2 NSaved=   2.
 NSaved= 2 IEnMin= 2 EnMin= -94.8800554459667     IErMin= 2 ErrMin= 1.33D-02
 ErrMax= 1.33D-02  0.00D+00 EMaxC= 1.00D-01 BMatC= 1.01D-02 BMatP= 9.27D-02
 IDIUse=3 WtCom= 8.67D-01 WtEn= 1.33D-01
 Coeff-Com: -0.414D+00 0.141D+01
 Coeff-En:   0.000D+00 0.100D+01
 Coeff:     -0.359D+00 0.136D+01
 Gap=     0.195 Goal=   None    Shift=    0.000
 RMSDP=3.29D-03 MaxDP=8.71D-02 DE=-3.56D-02 OVMax= 1.81D-01

 Cycle   3  Pass 0  IDiag  1:
 E= -94.9396289881798     Delta-E=       -0.059573542213 Rises=F Damp=F
 DIIS: error= 5.79D-03 at cycle   3 NSaved=   3.
 NSaved= 3 IEnMin= 3 EnMin= -94.9396289881798     IErMin= 3 ErrMin= 5.79D-03
 ErrMax= 5.79D-03  0.00D+00 EMaxC= 1.00D-01 BMatC= 2.24D-03 BMatP= 1.01D-02
 IDIUse=3 WtCom= 9.42D-01 WtEn= 5.79D-02
 Coeff-Com: -0.184D+00 0.670D+00 0.514D+00
 Coeff-En:   0.000D+00 0.000D+00 0.100D+01
 Coeff:     -0.173D+00 0.631D+00 0.542D+00
 Gap=     0.201 Goal=   None    Shift=    0.000
 RMSDP=7.96D-04 MaxDP=1.80D-02 DE=-5.96D-02 OVMax= 1.81D-02

 Cycle   4  Pass 0  IDiag  1:
 E= -94.9414658601942     Delta-E=       -0.001836872014 Rises=F Damp=F
 DIIS: error= 1.93D-03 at cycle   4 NSaved=   4.
 NSaved= 4 IEnMin= 4 EnMin= -94.9414658601942     IErMin= 4 ErrMin= 1.93D-03
 ErrMax= 1.93D-03  0.00D+00 EMaxC= 1.00D-01 BMatC= 4.13D-04 BMatP= 2.24D-03
 IDIUse=3 WtCom= 9.81D-01 WtEn= 1.93D-02
 Coeff-Com: -0.511D-01 0.193D+00 0.313D+00 0.545D+00
 Coeff-En:   0.000D+00 0.000D+00 0.129D+00 0.871D+00
 Coeff:     -0.501D-01 0.189D+00 0.309D+00 0.552D+00
 Gap=     0.203 Goal=   None    Shift=    0.000
 RMSDP=4.07D-04 MaxDP=1.56D-02 DE=-1.84D-03 OVMax= 5.71D-03

 Cycle   5  Pass 0  IDiag  1:
 E= -94.9418329287339     Delta-E=       -0.000367068540 Rises=F Damp=F
 DIIS: error= 2.88D-04 at cycle   5 NSaved=   5.
 NSaved= 5 IEnMin= 5 EnMin= -94.9418329287339     IErMin= 5 ErrMin= 2.88D-04
 ErrMax= 2.88D-04  0.00D+00 EMaxC= 1.00D-01 BMatC= 7.66D-06 BMatP= 4.13D-04
 IDIUse=3 WtCom= 9.97D-01 WtEn= 2.88D-03
 Coeff-Com: -0.149D-02 0.556D-02 0.529D-01 0.181D+00 0.762D+00
 Coeff-En:   0.000D+00 0.000D+00 0.000D+00 0.000D+00 0.100D+01
 Coeff:     -0.148D-02 0.554D-02 0.528D-01 0.181D+00 0.762D+00
 Gap=     0.202 Goal=   None    Shift=    0.000
 RMSDP=7.43D-05 MaxDP=2.78D-03 DE=-3.67D-04 OVMax= 7.24D-04

 Cycle   6  Pass 0  IDiag  1:
 E= -94.9418398299825     Delta-E=       -0.000006901249 Rises=F Damp=F
 DIIS: error= 1.13D-05 at cycle   6 NSaved=   6.
 NSaved= 6 IEnMin= 6 EnMin= -94.9418398299825     IErMin= 6 ErrMin= 1.13D-05
 ErrMax= 1.13D-05  0.00D+00 EMaxC= 1.00D-01 BMatC= 1.45D-08 BMatP= 7.66D-06
 IDIUse=1 WtCom= 1.00D+00 WtEn= 0.00D+00
 Coeff-Com:  0.282D-03-0.872D-03 0.482D-02 0.194D-01 0.111D+00 0.866D+00
 Coeff:      0.282D-03-0.872D-03 0.482D-02 0.194D-01 0.111D+00 0.866D+00
 Gap=     0.202 Goal=   None    Shift=    0.000
 RMSDP=4.47D-06 MaxDP=1.37D-04 DE=-6.90D-06 OVMax= 6.85D-05

 Initial convergence to 1.0D-05 achieved.  Increase integral accuracy.
 Cycle   7  Pass 1  IDiag  1:
 E= -94.9418364510687     Delta-E=        0.000003378914 Rises=F Damp=F
 DIIS: error= 3.70D-06 at cycle   1 NSaved=   1.
 NSaved= 1 IEnMin= 1 EnMin= -94.9418364510687     IErMin= 1 ErrMin= 3.70D-06
 ErrMax= 3.70D-06  0.00D+00 EMaxC= 1.00D-01 BMatC= 1.03D-09 BMatP= 1.03D-09
 IDIUse=1 WtCom= 1.00D+00 WtEn= 0.00D+00
 Coeff-Com:  0.100D+01
 Coeff:      0.100D+01
 Gap=     0.202 Goal=   None    Shift=    0.000
 RMSDP=4.47D-06 MaxDP=1.37D-04 DE= 3.38D-06 OVMax= 2.23D-05

 Cycle   8  Pass 1  IDiag  1:
 E= -94.9418364518514     Delta-E=       -0.000000000783 Rises=F Damp=F
 DIIS: error= 2.76D-06 at cycle   2 NSaved=   2.
 NSaved= 2 IEnMin= 2 EnMin= -94.9418364518514     IErMin= 2 ErrMin= 2.76D-06
 ErrMax= 2.76D-06  0.00D+00 EMaxC= 1.00D-01 BMatC= 4.99D-10 BMatP= 1.03D-09
 IDIUse=1 WtCom= 1.00D+00 WtEn= 0.00D+00
 Coeff-Com:  0.404D+00 0.596D+00
 Coeff:      0.404D+00 0.596D+00
 Gap=     0.202 Goal=   None    Shift=    0.000
 RMSDP=5.65D-07 MaxDP=1.18D-05 DE=-7.83D-10 OVMax= 8.82D-06

 Cycle   9  Pass 1  IDiag  1:
 E= -94.9418364524189     Delta-E=       -0.000000000567 Rises=F Damp=F
 DIIS: error= 4.83D-07 at cycle   3 NSaved=   3.
 NSaved= 3 IEnMin= 3 EnMin= -94.9418364524189     IErMin= 3 ErrMin= 4.83D-07
 ErrMax= 4.83D-07  0.00D+00 EMaxC= 1.00D-01 BMatC= 3.12D-11 BMatP= 4.99D-10
 IDIUse=1 WtCom= 1.00D+00 WtEn= 0.00D+00
 Coeff-Com:  0.152D+00 0.281D+00 0.567D+00
 Coeff:      0.152D+00 0.281D+00 0.567D+00
 Gap=     0.202 Goal=   None    Shift=    0.000
 RMSDP=1.23D-07 MaxDP=4.30D-06 DE=-5.67D-10 OVMax= 2.08D-06

 Cycle  10  Pass 1  IDiag  1:
 E= -94.9418364524458     Delta-E=       -0.000000000027 Rises=F Damp=F
 DIIS: error= 2.61D-07 at cycle   4 NSaved=   4.
 NSaved= 4 IEnMin= 4 EnMin= -94.9418364524458     IErMin= 4 ErrMin= 2.61D-07
 ErrMax= 2.61D-07  0.00D+00 EMaxC= 1.00D-01 BMatC= 5.00D-12 BMatP= 3.12D-11
 IDIUse=1 WtCom= 1.00D+00 WtEn= 0.00D+00
 Coeff-Com:  0.989D-02 0.513D-01 0.306D+00 0.632D+00
 Coeff:      0.989D-02 0.513D-01 0.306D+00 0.632D+00
 Gap=     0.202 Goal=   None    Shift=    0.000
 RMSDP=3.04D-08 MaxDP=5.67D-07 DE=-2.69D-11 OVMax= 6.98D-07

 Cycle  11  Pass 1  IDiag  1:
 E= -94.9418364524510     Delta-E=       -0.000000000005 Rises=F Damp=F
 DIIS: error= 5.21D-08 at cycle   5 NSaved=   5.
 NSaved= 5 IEnMin= 5 EnMin= -94.9418364524510     IErMin= 5 ErrMin= 5.21D-08
 ErrMax= 5.21D-08  0.00D+00 EMaxC= 1.00D-01 BMatC= 2.35D-13 BMatP= 5.00D-12
 IDIUse=1 WtCom= 1.00D+00 WtEn= 0.00D+00
 Coeff-Com:  0.372D-04 0.168D-01 0.136D+00 0.331D+00 0.516D+00
 Coeff:      0.372D-04 0.168D-01 0.136D+00 0.331D+00 0.516D+00
 Gap=     0.202 Goal=   None    Shift=    0.000
 RMSDP=1.75D-08 MaxDP=7.96D-07 DE=-5.20D-12 OVMax= 2.25D-07

 Cycle  12  Pass 1  IDiag  1:
 E= -94.9418364524512     Delta-E=       -0.000000000000 Rises=F Damp=F
 DIIS: error= 2.05D-08 at cycle   6 NSaved=   6.
 NSaved= 6 IEnMin= 6 EnMin= -94.9418364524512     IErMin= 6 ErrMin= 2.05D-08
 ErrMax= 2.05D-08  0.00D+00 EMaxC= 1.00D-01 BMatC= 3.91D-14 BMatP= 2.35D-13
 IDIUse=1 WtCom= 1.00D+00 WtEn= 0.00D+00
 Coeff-Com: -0.829D-03 0.601D-02 0.561D-01 0.148D+00 0.328D+00 0.462D+00
 Coeff:     -0.829D-03 0.601D-02 0.561D-01 0.148D+00 0.328D+00 0.462D+00
 Gap=     0.202 Goal=   None    Shift=    0.000
 RMSDP=4.85D-09 MaxDP=2.17D-07 DE=-1.99D-13 OVMax= 6.04D-08

 SCF Done:  E(RS-VWN5) =  -94.9418364525     A.U. after   12 cycles
            NFock= 12  Conv=0.48D-08     -V/T= 2.0067
 KE= 9.431384623097D+01 PE=-3.058445427217D+02 EE= 7.446730930783D+01
 Leave Link  502 at Mon Mar 21 19:57:56 2022, MaxMem=  8589934592 cpu:               5.0 elap:               0.7
 (Enter /home/sabyasachi/g16/l801.exe)
 DoSCS=F DFT=T ScalE2(SS,OS)=  1.000000  1.000000
 ExpMin= 6.71D-02 ExpMax= 1.71D+03 ExpMxC= 2.58D+02 IAcc=3 IRadAn=         5 AccDes= 0.00D+00
 HarFok:  IExCor=  205 AccDes= 0.00D+00 IRadAn=         5 IDoV=-2 UseB2=F ITyADJ=14
 ICtDFT= 12500011 ScaDFX=  1.000000  1.000000  1.000000  1.000000
 Largest valence mixing into a core orbital is  7.65D-05
 Largest core mixing into a valence orbital is  8.20D-07
 Range of M.O.s used for correlation:     3    80
 NBasis=    80 NAE=     9 NBE=     9 NFC=     2 NFV=     0
 NROrb=     78 NOA=     7 NOB=     7 NVA=    71 NVB=    71

 **** Warning!!: The largest alpha MO coefficient is  0.22258721D+02

 Leave Link  801 at Mon Mar 21 19:57:56 2022, MaxMem=  8589934592 cpu:               0.5 elap:               0.1
 (Enter /home/sabyasachi/g16/l914.exe)
 RHF ground state
 Keep J ints in memory in symmetry-blocked form, NReq=311414164.
 FoFCou: FMM=F IPFlag=           0 FMFlag=           0 FMFlg1=           0
         NFxFlg=           0 DoJE=F BraDBF=F KetDBF=F FulRan=T
         wScrn=  0.000000 ICntrl=       600 IOpCl=  0 I1Cent=           0 NGrid=           0
         NMat0=    1 NMatS0=   3240 NMatT0=    0 NMatD0=    1 NMtDS0=    0 NMtDT0=    0
 Petite list used in FoFCou.
 MDV=  8589934592 DFT=T DoStab=F Mixed=F DoRPA=T DoScal=T NonHer=F
 Making orbital integer symmetry assigments:
 Orbital symmetries:
       Occupied  (A') (A') (A') (A') (A") (A') (A') (A") (A')
       Virtual   (A') (A') (A") (A') (A") (A') (A') (A") (A') (A')
                 (A") (A') (A") (A') (A') (A') (A") (A") (A") (A')
                 (A') (A') (A") (A') (A') (A") (A') (A") (A') (A")
                 (A') (A") (A') (A') (A') (A") (A') (A') (A') (A")
                 (A') (A") (A') (A") (A') (A') (A') (A") (A") (A")
                 (A') (A") (A') (A') (A") (A') (A') (A") (A") (A')
                 (A') (A") (A') (A') (A') (A") (A') (A") (A') (A')
                 (A")
   497 initial guesses have been made.
 Convergence on wavefunction:    0.001000000000000
 Davidson Disk Diagonalization:  ConvIn= 1.00D-03 SkipCon=T Conv= 1.00D-03.
 Max sub-space:  1988 roots to seek:   994 dimension of matrix:          994
 *** WARNING: Number of orthogonal guesses is          497
 Iteration     1 Dimension   497 NMult     0 NNew    497
 CISAX will form   497 AO SS matrices at one time.
 NMat=   497 NSing=   497 JSym2X=-1.
 New state      7 was old state      8
 New state      8 was old state      7
 New state     13 was old state     14
 New state     14 was old state     15
 New state     15 was old state     13
 New state     19 was old state     20
 New state     20 was old state     19
 New state     21 was old state     22
 New state     22 was old state     21
 New state     23 was old state     26
 New state     25 was old state     27
 New state     26 was old state     25
 New state     27 was old state     23
 New state     31 was old state     32
 New state     32 was old state     31
 New state     33 was old state     35
 New state     35 was old state     36
 New state     36 was old state     37
 New state     37 was old state     38
 New state     38 was old state     33
 New state     40 was old state     41
 New state     41 was old state     40
 New state     42 was old state     43
 New state     43 was old state     45
 New state     44 was old state     46
 New state     45 was old state     48
 New state     46 was old state     47
 New state     47 was old state     51
 New state     48 was old state     49
 New state     49 was old state     44
 New state     50 was old state     54
 New state     51 was old state     52
 New state     52 was old state     50
 New state     53 was old state     42
 New state     54 was old state     53
 New state     59 was old state     60
 New state     60 was old state     59
 New state     63 was old state     64
 New state     64 was old state     65
 New state     65 was old state     66
 New state     66 was old state     68
 New state     68 was old state     70
 New state     70 was old state     71
 New state     71 was old state     73
 New state     72 was old state     78
 New state     73 was old state     72
 New state     75 was old state     77
 New state     76 was old state     75
 New state     77 was old state     79
 New state     78 was old state     76
 New state     79 was old state     80
 New state     80 was old state     81
 New state     81 was old state     82
 New state     82 was old state     83
 New state     83 was old state     85
 New state     84 was old state     91
 New state     85 was old state     84
 New state     86 was old state     87
 New state     87 was old state     86
 New state     88 was old state     92
 New state     89 was old state     94
 New state     91 was old state     89
 New state     92 was old state     95
 New state     94 was old state     98
 New state     95 was old state     88
 New state     97 was old state     99
 New state     98 was old state     97
 New state     99 was old state    105
 New state    101 was old state    103
 New state    102 was old state    106
 New state    103 was old state    109
 New state    104 was old state    107
 New state    105 was old state    102
 New state    106 was old state    108
 New state    107 was old state    101
 New state    108 was old state    104
 New state    109 was old state    112
 New state    110 was old state    118
 New state    112 was old state    110
 New state    114 was old state    116
 New state    116 was old state    114
 New state    117 was old state    122
 New state    118 was old state    120
 New state    119 was old state    123
 New state    120 was old state    121
 New state    121 was old state    119
 New state    122 was old state    124
 New state    123 was old state    117
 New state    124 was old state    138
 New state    125 was old state    126
 New state    126 was old state    130
 New state    127 was old state    125
 New state    128 was old state    129
 New state    129 was old state    127
 New state    130 was old state    128
 New state    132 was old state    137
 New state    133 was old state    132
 New state    134 was old state    139
 New state    135 was old state    136
 New state    136 was old state    135
 New state    137 was old state    140
 New state    138 was old state    134
 New state    139 was old state    133
 New state    140 was old state    141
 New state    141 was old state    145
 New state    142 was old state    143
 New state    143 was old state    146
 New state    144 was old state    142
 New state    145 was old state    149
 New state    146 was old state    148
 New state    147 was old state    152
 New state    148 was old state    147
 New state    149 was old state    150
 New state    150 was old state    151
 New state    151 was old state    153
 New state    152 was old state    154
 New state    153 was old state    157
 New state    154 was old state    158
 New state    157 was old state    160
 New state    158 was old state    159
 New state    159 was old state    164
 New state    160 was old state    162
 New state    162 was old state    163
 New state    163 was old state    166
 New state    164 was old state    165
 New state    165 was old state    167
 New state    166 was old state    175
 New state    167 was old state    168
 New state    168 was old state    169
 New state    169 was old state    171
 New state    170 was old state    172
 New state    171 was old state    170
 New state    172 was old state    173
 No map to state    173
 New state    175 was old state    178
 New state    176 was old state    179
 New state    178 was old state    180
 New state    179 was old state    182
 New state    180 was old state    176
 New state    181 was old state    183
 New state    182 was old state    181
 New state    183 was old state    184
 New state    184 was old state    188
 New state    185 was old state    186
 New state    186 was old state    185
 New state    187 was old state    192
 New state    188 was old state    191
 New state    189 was old state    187
 New state    190 was old state    189
 New state    191 was old state    190
 New state    192 was old state    193
 New state    193 was old state    194
 New state    194 was old state    201
 New state    195 was old state    197
 New state    197 was old state    195
 New state    198 was old state    199
 New state    199 was old state    200
 New state    200 was old state    198
 New state    201 was old state    205
 New state    202 was old state    203
 New state    203 was old state    202
 New state    205 was old state    206
 New state    206 was old state    210
 New state    207 was old state    208
 New state    208 was old state    207
 New state    209 was old state    211
 New state    210 was old state    209
 New state    211 was old state    213
 New state    213 was old state    214
 New state    214 was old state    215
 New state    215 was old state    216
 New state    216 was old state    217
 New state    217 was old state    223
 New state    220 was old state    221
 New state    221 was old state    222
 New state    222 was old state    220
 New state    223 was old state    225
 New state    224 was old state    226
 New state    225 was old state    224
 New state    226 was old state    228
 New state    228 was old state    229
 New state    229 was old state    230
 New state    230 was old state    231
 New state    231 was old state    233
 New state    232 was old state    239
 New state    233 was old state    234
 New state    234 was old state    235
 New state    235 was old state    236
 New state    236 was old state    238
 New state    238 was old state    241
 New state    239 was old state    240
 New state    240 was old state    242
 New state    241 was old state    232
 New state    242 was old state    243
 New state    243 was old state    245
 New state    245 was old state    249
 New state    249 was old state    251
 New state    251 was old state    252
 New state    252 was old state    254
 New state    254 was old state    255
 New state    255 was old state    256
 New state    256 was old state    257
 New state    257 was old state    258
 New state    258 was old state    259
 New state    259 was old state    260
 New state    260 was old state    261
 New state    261 was old state    262
 New state    262 was old state    263
 New state    263 was old state    264
 New state    264 was old state    272
 New state    265 was old state    266
 New state    266 was old state    265
 New state    267 was old state    269
 New state    269 was old state    271
 New state    271 was old state    273
 New state    272 was old state    274
 New state    273 was old state    276
 New state    274 was old state    267
 New state    276 was old state    277
 New state    277 was old state    280
 New state    278 was old state    279
 New state    279 was old state    278
 New state    280 was old state    285
 New state    285 was old state    287
 New state    287 was old state    288
 New state    288 was old state    289
 New state    289 was old state    292
 New state    291 was old state    293
 New state    292 was old state    291
 New state    293 was old state    294
 New state    294 was old state    295
 New state    295 was old state    297
 New state    297 was old state    298
 New state    298 was old state    300
 New state    300 was old state    301
 New state    301 was old state    303
 New state    303 was old state    306
 New state    306 was old state    307
 New state    307 was old state    309
 New state    309 was old state    310
 New state    310 was old state    311
 New state    311 was old state    312
 New state    312 was old state    313
 New state    313 was old state    314
 New state    314 was old state    316
 New state    316 was old state    321
 New state    318 was old state    319
 New state    319 was old state    320
 New state    320 was old state    318
 New state    321 was old state    322
 New state    322 was old state    323
 New state    323 was old state    326
 New state    326 was old state    327
 New state    327 was old state    328
 New state    328 was old state    330
 New state    330 was old state    332
 New state    332 was old state    333
 No map to state    333
 New state    334 was old state    335
 New state    335 was old state    334
 New state    343 was old state    344
 New state    344 was old state    343
 New state    346 was old state    347
 New state    347 was old state    346
 New state    350 was old state    351
 New state    351 was old state    350
 New state    354 was old state    357
 New state    355 was old state    354
 New state    357 was old state    355
 New state    361 was old state    362
 New state    362 was old state    361
 New state    366 was old state    367
 New state    367 was old state    368
 New state    368 was old state    371
 New state    369 was old state    372
 New state    371 was old state    366
 New state    372 was old state    373
 New state    373 was old state    375
 New state    374 was old state    369
 New state    375 was old state    374
 New state    378 was old state    381
 New state    380 was old state    378
 New state    381 was old state    380
 New state    383 was old state    384
 New state    384 was old state    383
 New state    385 was old state    386
 New state    386 was old state    387
 New state    387 was old state    385
 New state    391 was old state    392
 New state    392 was old state    391
 New state    393 was old state    395
 New state    394 was old state    393
 New state    395 was old state    394
 New state    396 was old state    397
 New state    397 was old state    398
 New state    398 was old state    396
 New state    399 was old state    400
 New state    400 was old state    399
 New state    402 was old state    403
 New state    403 was old state    402
 New state    404 was old state    405
 New state    405 was old state    404
 New state    414 was old state    415
 New state    415 was old state    416
 New state    416 was old state    414
 New state    418 was old state    419
 New state    419 was old state    418
 New state    428 was old state    429
 New state    429 was old state    428
 New state    434 was old state    435
 New state    435 was old state    434
 New state    436 was old state    437
 New state    437 was old state    436
 New state    439 was old state    440
 New state    440 was old state    439
 New state    445 was old state    448
 New state    446 was old state    447
 New state    447 was old state    449
 New state    448 was old state    446
 New state    449 was old state    450
 New state    450 was old state    445
 New state    458 was old state    459
 New state    459 was old state    460
 New state    460 was old state    458
 New state    462 was old state    463
 New state    463 was old state    462
 New state    464 was old state    465
 New state    465 was old state    464
 New state    466 was old state    467
 New state    467 was old state    466
 New state    479 was old state    480
 New state    480 was old state    479
 New state    485 was old state    486
 New state    486 was old state    485
 Excitation Energies [eV] at current iteration:
 Root      1 :     5.558048067944922
 Root      2 :     6.580234730661363
 Root      3 :     7.334138216387096
 Root      4 :     7.791607068165979
 Root      5 :     8.195392771202787
 Root      6 :     8.824555660837246
 Root      7 :     8.939034549808806
 Root      8 :     8.954966892623785
 Root      9 :     9.459237928945312
 Root     10 :    10.001304459408970
 Root     11 :    10.056009804229220
 Root     12 :    10.450205928662940
 Root     13 :    10.710579577817840
 Root     14 :    10.716986806915350
 Root     15 :    10.870173155498450
 Root     16 :    11.073444973855470
 Root     17 :    11.190586460035330
 Root     18 :    11.202616088945970
 Root     19 :    11.747842531404520
 Root     20 :    11.816345396200890
 Root     21 :    12.090215421541050
 Root     22 :    12.120980348603640
 Root     23 :    12.210899956236560
 Root     24 :    12.257994425665250
 Root     25 :    12.317120232800370
 Root     26 :    12.403895583142800
 Root     27 :    12.497884958064560
 Root     28 :    12.619711761553490
 Root     29 :    12.746152495249740
 Root     30 :    12.892654615505340
 Root     31 :    12.987405583038890
 Root     32 :    13.037743279155350
 Root     33 :    13.285692689557310
 Root     34 :    13.341535646829420
 Root     35 :    13.529974479554650
 Root     36 :    13.547008156845090
 Root     37 :    13.669571705545170
 Root     38 :    13.682700742724760
 Root     39 :    13.866804250080790
 Root     40 :    13.885929312491170
 Root     41 :    14.211770212495740
 Root     42 :    14.241923911785410
 Root     43 :    14.261705683537290
 Root     44 :    14.356900764672680
 Root     45 :    14.529881985037310
 Root     46 :    14.564524820768660
 Root     47 :    14.674773602048750
 Root     48 :    14.781598704494690
 Root     49 :    14.851638894836380
 Root     50 :    14.923660437667880
 Root     51 :    15.002491232238160
 Root     52 :    15.019077263154760
 Root     53 :    15.085453028561340
 Root     54 :    15.129560657794920
 Root     55 :    15.243509815760310
 Root     56 :    15.267479753132340
 Root     57 :    15.376349673464000
 Root     58 :    15.622664908850560
 Root     59 :    15.660878268494460
 Root     60 :    15.765315167783080
 Root     61 :    15.793616428895430
 Root     62 :    15.827355027604010
 Root     63 :    16.042454066872640
 Root     64 :    16.085183754684440
 Root     65 :    16.091738301652420
 Root     66 :    16.290688433296520
 Root     67 :    16.347084079164610
 Root     68 :    16.400661356860620
 Root     69 :    16.568350998307300
 Root     70 :    16.670511649955150
 Root     71 :    16.770238265867190
 Root     72 :    16.862103015716990
 Root     73 :    16.892548260958030
 Root     74 :    17.002584262039780
 Root     75 :    17.193816492380990
 Root     76 :    17.248358903493340
 Root     77 :    17.298273040026810
 Root     78 :    17.392110212254180
 Root     79 :    17.555519938587700
 Root     80 :    17.593853805304260
 Root     81 :    17.638891533418970
 Root     82 :    17.693088537435480
 Root     83 :    17.799884795235770
 Root     84 :    17.823330642839380
 Root     85 :    17.937976488776780
 Root     86 :    17.974461325742420
 Root     87 :    18.210960863640310
 Root     88 :    18.250488415346750
 Root     89 :    18.365613008150560
 Root     90 :    18.373546449092970
 Root     91 :    18.445969916188770
 Root     92 :    18.481681897142160
 Root     93 :    18.574207764734670
 Root     94 :    18.693056920549400
 Root     95 :    18.700485141990010
 Root     96 :    18.780540541913180
 Root     97 :    18.929806951781870
 Root     98 :    18.936245023032250
 Root     99 :    19.035359569178740
 Root    100 :    19.183421973736610
 Root    101 :    19.280470010686060
 Root    102 :    19.400434584426310
 Root    103 :    19.428443222491620
 Root    104 :    19.506977264115160
 Root    105 :    19.544663000687460
 Root    106 :    19.574920761844550
 Root    107 :    19.603549722229680
 Root    108 :    19.682560118818830
 Root    109 :    19.744824965555350
 Root    110 :    19.766458987354520
 Root    111 :    19.793695086921630
 Root    112 :    19.819689453567320
 Root    113 :    20.136884913881960
 Root    114 :    20.238635653037320
 Root    115 :    20.278666329942570
 Root    116 :    20.320601747083930
 Root    117 :    20.527129691410830
 Root    118 :    20.544905303442240
 Root    119 :    20.552786159093370
 Root    120 :    20.649051571767410
 Root    121 :    20.671975423256480
 Root    122 :    20.747677800991210
 Root    123 :    20.807489082970090
 Root    124 :    20.823666273977380
 Root    125 :    21.015899250350550
 Root    126 :    21.248972957750270
 Root    127 :    21.317231768071880
 Root    128 :    21.344188640402230
 Root    129 :    21.392475507828620
 Root    130 :    21.424946194323790
 Root    131 :    21.543770946462440
 Root    132 :    21.572211163578250
 Root    133 :    21.601171268570960
 Root    134 :    21.676855199406110
 Root    135 :    21.745771805499900
 Root    136 :    21.749926902863970
 Root    137 :    21.875140648573400
 Root    138 :    21.935516742930400
 Root    139 :    22.059948447274970
 Root    140 :    22.151904157150920
 Root    141 :    22.312238659191880
 Root    142 :    22.386562912488770
 Root    143 :    22.489652072580650
 Root    144 :    22.550314640211860
 Root    145 :    22.621833901832790
 Root    146 :    22.695386588898120
 Root    147 :    22.743858776226360
 Root    148 :    22.768246527169140
 Root    149 :    22.785043567622770
 Root    150 :    22.841888201829800
 Root    151 :    23.018638933539860
 Root    152 :    23.019141738046500
 Root    153 :    23.144525626658710
 Root    154 :    23.316312013554350
 Root    155 :    23.316762223902910
 Root    156 :    23.604993953801670
 Root    157 :    23.638983013455360
 Root    158 :    23.647540161650440
 Root    159 :    23.827722945334050
 Root    160 :    23.895651129984440
 Root    161 :    23.897633326217650
 Root    162 :    24.008007530352050
 Root    163 :    24.315764716040900
 Root    164 :    24.336617610929880
 Root    165 :    24.507375734365550
 Root    166 :    24.606374882352450
 Root    167 :    24.667183735903350
 Root    168 :    24.731450460350600
 Root    169 :    24.855679959857690
 Root    170 :    24.971519840130580
 Root    171 :    25.029037632563350
 Root    172 :    25.039835986113470
 Root    173 :    25.138516705014390
 Root    174 :    25.245340269018890
 Root    175 :    25.497309663318570
 Root    176 :    25.574803357547210
 Root    177 :    25.631045408366750
 Root    178 :    25.683047324282040
 Root    179 :    25.767934169921880
 Root    180 :    25.795639392977310
 Root    181 :    25.852205327908570
 Root    182 :    25.886233928273030
 Root    183 :    25.938553487511290
 Root    184 :    26.161450811785830
 Root    185 :    26.352939427176490
 Root    186 :    26.415836561141080
 Root    187 :    26.686432270089040
 Root    188 :    26.701792465275960
 Root    189 :    26.712414648142830
 Root    190 :    26.753230915940140
 Root    191 :    26.880402164522800
 Root    192 :    26.920580897575410
 Root    193 :    27.042075287971730
 Root    194 :    27.176757275402340
 Root    195 :    27.428031653641810
 Root    196 :    27.504368392319720
 Root    197 :    27.546902700997610
 Root    198 :    27.867900141511570
 Root    199 :    28.042386267884550
 Root    200 :    28.111558097784980
 Root    201 :    28.294378565074660
 Root    202 :    28.340717561740360
 Root    203 :    28.523645120689170
 Root    204 :    28.528727339291900
 Root    205 :    28.638708100220680
 Root    206 :    28.674417377560870
 Root    207 :    28.907481308100440
 Root    208 :    29.031132490101400
 Root    209 :    29.036740354880940
 Root    210 :    29.224088625566630
 Root    211 :    29.319488101606590
 Root    212 :    29.806013339734220
 Root    213 :    30.064537302853860
 Root    214 :    30.226767667784450
 Root    215 :    30.381172263612460
 Root    216 :    30.456371685642750
 Root    217 :    30.777591941613090
 Root    218 :    30.881182983801000
 Root    219 :    31.016550123855500
 Root    220 :    31.054027243479540
 Root    221 :    31.272217403574410
 Root    222 :    31.343755124664320
 Root    223 :    31.532839218526610
 Root    224 :    31.881392040507470
 Root    225 :    31.970135971297260
 Root    226 :    32.070521620987290
 Root    227 :    32.145563246809460
 Root    228 :    32.193313502414620
 Root    229 :    32.229856713220120
 Root    230 :    32.548422687903120
 Root    231 :    32.631656423176990
 Root    232 :    32.779751442701350
 Root    233 :    32.794325769591420
 Root    234 :    32.860252193773560
 Root    235 :    33.013929913846640
 Root    236 :    33.351759253132980
 Root    237 :    33.373632762388300
 Root    238 :    33.540782946685880
 Root    239 :    33.829149092740560
 Root    240 :    33.867392085325110
 Root    241 :    33.881394417245770
 Root    242 :    33.983084193077180
 Root    243 :    34.098677179613600
 Root    244 :    34.125069406624580
 Root    245 :    34.197473016650100
 Root    246 :    34.437999249741260
 Root    247 :    34.658243950709820
 Root    248 :    34.741328942113310
 Root    249 :    35.327536512050800
 Root    250 :    35.372143495477540
 Root    251 :    35.490662477896600
 Root    252 :    35.870468712370280
 Root    253 :    35.911448778768060
 Root    254 :    36.084937230985770
 Root    255 :    36.130063189127780
 Root    256 :    36.316471791350520
 Root    257 :    36.432833393812030
 Root    258 :    36.573471032397900
 Root    259 :    36.988389972675170
 Root    260 :    37.120430275204780
 Root    261 :    37.394529307197200
 Root    262 :    37.401373891156550
 Root    263 :    37.462557779978760
 Root    264 :    37.585087668707280
 Root    265 :    37.616348153328700
 Root    266 :    37.794420284932890
 Root    267 :    38.162044422765900
 Root    268 :    38.209658127144640
 Root    269 :    38.466278320490450
 Root    270 :    38.581976226439170
 Root    271 :    38.671472409581180
 Root    272 :    39.178992480592220
 Root    273 :    39.763215837789620
 Root    274 :    40.021751304599060
 Root    275 :    40.022631278016750
 Root    276 :    40.361077793746330
 Root    277 :    40.633459237734900
 Root    278 :    41.222008653800420
 Root    279 :    41.331571098174250
 Root    280 :    41.687187315992850
 Root    281 :    42.044583772057100
 Root    282 :    42.169447894605960
 Root    283 :    42.173336026327180
 Root    284 :    42.305439153663250
 Root    285 :    42.810636220090940
 Root    286 :    42.812418911877680
 Root    287 :    42.958927152522890
 Root    288 :    43.370092621334730
 Root    289 :    43.443722641434330
 Root    290 :    44.145365681460160
 Root    291 :    44.579966748263790
 Root    292 :    45.138178707821820
 Root    293 :    45.277688124012660
 Root    294 :    45.394038330614440
 Root    295 :    45.563841556011410
 Root    296 :    45.619819513441360
 Root    297 :    45.663291821647420
 Root    298 :    45.933441394232840
 Root    299 :    46.328456894129670
 Root    300 :    46.556789656877800
 Root    301 :    46.806349990067420
 Root    302 :    46.846593969954090
 Root    303 :    46.920476824697790
 Root    304 :    47.635475644021310
 Root    305 :    47.637865202215600
 Root    306 :    48.115524890248300
 Root    307 :    48.271574145146620
 Root    308 :    48.387262485123100
 Root    309 :    48.783617022351220
 Root    310 :    48.806800390378960
 Root    311 :    49.177258253097170
 Root    312 :    49.435973026151010
 Root    313 :    49.494516571584120
 Root    314 :    49.979670737753850
 Root    315 :    50.061965126401500
 Root    316 :    50.273990971831570
 Root    317 :    50.936505393146080
 Root    318 :    51.301517652839210
 Root    319 :    51.393032431685560
 Root    320 :    51.808516234057080
 Root    321 :    52.070750253880310
 Root    322 :    52.331546633554570
 Root    323 :    52.494774476387650
 Root    324 :    52.608550260337720
 Root    325 :    53.013874143505810
 Root    326 :    53.075261550412840
 Root    327 :    53.289080189652350
 Root    328 :    53.369884803806220
 Root    329 :    53.657608142879890
 Root    330 :    53.910714876761330
 Root    331 :    54.156351716449160
 Root    332 :    54.163986315401940
 Root    333 :    54.551760797554660
 Root    334 :    54.824627032318060
 Root    335 :    55.070517539255870
 Root    336 :    55.604854915531260
 Root    337 :    56.156092876695050
 Root    338 :    56.341907605648990
 Root    339 :    56.545318595276240
 Root    340 :    56.637222568897930
 Root    341 :    56.972878891944650
 Root    342 :    57.364331482863030
 Root    343 :    57.432507646863730
 Root    344 :    57.705991681867860
 Root    345 :    57.948172173359130
 Root    346 :    58.384564976276590
 Root    347 :    58.505468915699170
 Root    348 :    58.539624068053680
 Root    349 :    58.675772814949650
 Root    350 :    59.280191161139700
 Root    351 :    59.291542567453380
 Root    352 :    59.473997093578890
 Root    353 :    59.866592070476100
 Root    354 :    59.936367275503530
 Root    355 :    60.149454053048220
 Root    356 :    60.161032639738680
 Root    357 :    60.226626293340050
 Root    358 :    60.406794820618730
 Root    359 :    61.020113738442980
 Root    360 :    61.078838735920540
 Root    361 :    61.338817446182550
 Root    362 :    61.454287716872540
 Root    363 :    61.599543477042140
 Root    364 :    61.723029977656280
 Root    365 :    62.268225665657320
 Root    366 :    62.540326019334910
 Root    367 :    62.655948837874760
 Root    368 :    62.865766272135130
 Root    369 :    63.030950510687780
 Root    370 :    63.035635001325050
 Root    371 :    63.219514123297690
 Root    372 :    63.222329626292580
 Root    373 :    63.289155767145200
 Root    374 :    63.436750735108620
 Root    375 :    63.576229082703580
 Root    376 :    63.970497044038700
 Root    377 :    64.314786000198990
 Root    378 :    64.710901994434790
 Root    379 :    64.776128115402050
 Root    380 :    64.938963394554090
 Root    381 :    65.025226223867630
 Root    382 :    65.344787579781710
 Root    383 :    65.409999453484130
 Root    384 :    65.562224145627540
 Root    385 :    65.901675377927280
 Root    386 :    65.990935927018700
 Root    387 :    65.991188741063280
 Root    388 :    66.210670308135360
 Root    389 :    66.420571167467200
 Root    390 :    66.731392447809710
 Root    391 :    66.911840322670240
 Root    392 :    66.926496951689840
 Root    393 :    67.315948076567250
 Root    394 :    67.434423426833210
 Root    395 :    67.525822920079430
 Root    396 :    68.061134222042540
 Root    397 :    68.230990501402030
 Root    398 :    68.465764352985840
 Root    399 :    68.682095942398560
 Root    400 :    68.766515055986800
 Root    401 :    69.236542565462050
 Root    402 :    69.965491218295240
 Root    403 :    70.230195564732550
 Root    404 :    70.297803169560340
 Root    405 :    70.378631733981020
 Root    406 :    70.567574286412350
 Root    407 :    70.876906852318540
 Root    408 :    70.968958971030320
 Root    409 :    71.474750311709660
 Root    410 :    71.524490315000780
 Root    411 :    71.927208446653300
 Root    412 :    72.027234907048850
 Root    413 :    72.538984846513200
 Root    414 :    72.809663918338640
 Root    415 :    72.983062596508860
 Root    416 :    73.080665065296150
 Root    417 :    73.609305075079380
 Root    418 :    73.718202140186310
 Root    419 :    73.903219162241400
 Root    420 :    74.213438187014550
 Root    421 :    74.948496181619080
 Root    422 :    75.081357190492780
 Root    423 :    75.433457550768440
 Root    424 :    76.034849548047090
 Root    425 :    76.146552738842770
 Root    426 :    76.386803701589100
 Root    427 :    77.250116322357290
 Root    428 :    77.474165251121850
 Root    429 :    77.492193310384180
 Root    430 :    77.628185447801630
 Root    431 :    77.953576790115250
 Root    432 :    78.435312155476270
 Root    433 :    78.822263034542000
 Root    434 :    79.217519303119160
 Root    435 :    79.304630376168490
 Root    436 :    80.522225870558130
 Root    437 :    80.587659096293820
 Root    438 :    80.954266752248420
 Root    439 :    81.192374197537500
 Root    440 :    81.436264092741410
 Root    441 :    81.937000173686800
 Root    442 :    82.223173308437550
 Root    443 :    83.164536998289410
 Root    444 :    83.632181010504280
 Root    445 :    84.269861508774980
 Root    446 :    84.300174228869990
 Root    447 :    84.493075084835470
 Root    448 :    84.615380089215170
 Root    449 :    84.794552583426810
 Root    450 :    85.169721944711980
 Root    451 :    85.570925135612340
 Root    452 :    86.386681264088650
 Root    453 :    86.573338473748140
 Root    454 :    86.783088023380340
 Root    455 :    87.287928390385760
 Root    456 :    87.481268316717250
 Root    457 :    87.693310142870930
 Root    458 :    87.980369793134460
 Root    459 :    88.186743956190680
 Root    460 :    88.510845894879340
 Root    461 :    88.831179070099520
 Root    462 :    89.888930789681240
 Root    463 :    90.189193799454530
 Root    464 :    90.846859211341380
 Root    465 :    90.988887874487120
 Root    466 :    91.318415907993000
 Root    467 :    91.327290169126570
 Root    468 :    91.664576612277300
 Root    469 :    92.166082200668650
 Root    470 :    92.607216737194620
 Root    471 :    93.003947406142910
 Root    472 :    93.635948763964510
 Root    473 :    93.792055755847430
 Root    474 :    94.126443842059270
 Root    475 :    94.499441761252230
 Root    476 :    94.645909065988410
 Root    477 :    95.001771134736400
 Root    478 :    96.625152414655660
 Root    479 :    97.137376259321630
 Root    480 :    97.405768076013800
 Root    481 :    98.223627196955930
 Root    482 :    98.343657937026210
 Root    483 :    98.643276165884810
 Root    484 :    99.640552662792000
 Root    485 :   100.288442639331700
 Root    486 :   100.638202868047000
 Root    487 :   101.112116245098700
 Root    488 :   103.673672335454100
 Root    489 :   103.795486028679700
 Root    490 :   104.080339266378600
 Root    491 :   104.463324311449900
 Root    492 :   104.672582243365000
 Root    493 :   106.136219026186100
 Root    494 :   107.687262785449000
 Root    495 :   110.209294449133500
 Root    496 :   110.901180102556000
 Root    497 :   116.662096695153300
 Convergence achieved for final wavefunctions.
 ***********************************************************************
 Excited states from <AA,BB:AA,BB> singles matrix:
 ***********************************************************************
 
 1PDM for each excited state written to RWF  633
 Ground to excited state transition densities written to RWF  633
 Ground to excited state transition electric dipole moments (Au):
       state          X           Y           Z        Dip. S.      Osc.
         1         0.1636     -0.0642     -0.0000      0.0309      0.0042
         2         0.4655      0.1471     -0.0000      0.2384      0.0384
         3        -0.0000     -0.0000      0.1853      0.0343      0.0062
         4         0.2166      0.6053     -0.0000      0.4133      0.0789
         5        -0.0000      0.0000     -0.0479      0.0023      0.0005
         6         0.1359      0.0535      0.0000      0.0213      0.0046
         7         0.0978      0.2626     -0.0000      0.0785      0.0172
         8         0.0000     -0.0000     -0.1720      0.0296      0.0065
         9         0.0000      0.0000      0.0546      0.0030      0.0007
        10         0.0000      0.0000      0.5589      0.3124      0.0765
        11        -0.4270     -0.1709      0.0000      0.2115      0.0521
        12        -0.1473      0.0717      0.0000      0.0268      0.0069
        13         0.0798     -0.3033     -0.0000      0.0984      0.0258
        14         0.0000     -0.0000      0.2159      0.0466      0.0122
        15         0.1481     -0.2965      0.0000      0.1099      0.0293
        16         0.2446     -0.4938     -0.0000      0.3037      0.0824
        17        -0.5571      0.2675     -0.0000      0.3819      0.1047
        18        -0.0000     -0.0000     -0.2806      0.0787      0.0216
        19         0.0000      0.0000      0.1816      0.0330      0.0095
        20         0.1076     -0.1769     -0.0000      0.0429      0.0124
        21        -0.2267      0.5788     -0.0000      0.3864      0.1145
        22         0.7024      0.4669     -0.0000      0.7113      0.2112
        23         0.0000      0.0000      0.2552      0.0651      0.0195
        24         0.0000     -0.0000     -0.0926      0.0086      0.0026
        25         0.0000     -0.0000      0.2131      0.0454      0.0137
        26        -0.0000      0.0000      0.5979      0.3575      0.1086
        27        -0.0993      0.2943      0.0000      0.0965      0.0295
        28        -0.1119      0.8315     -0.0000      0.7038      0.2176
        29         0.0000      0.0000      0.3331      0.1110      0.0347
        30         0.0000      0.0000     -0.7315      0.5351      0.1690
        31        -0.0044      0.0013      0.0000      0.0000      0.0000
        32        -0.0009     -0.0725     -0.0000      0.0053      0.0017
        33        -0.2541     -0.0409      0.0000      0.0662      0.0216
        34         0.0000     -0.0000      0.1589      0.0252      0.0083
        35        -0.0030      0.2107      0.0000      0.0444      0.0147
        36         0.0000     -0.0000     -0.0688      0.0047      0.0016
        37         0.0000     -0.0000      0.1432      0.0205      0.0069
        38        -0.7537     -0.2657     -0.0000      0.6387      0.2141
        39        -0.2448     -0.0201      0.0000      0.0603      0.0205
        40         0.0000     -0.0000     -0.1544      0.0238      0.0081
        41         0.0000     -0.0000     -0.4798      0.2302      0.0801
        42        -0.0188     -0.3006      0.0000      0.0907      0.0317
        43         0.0000      0.0000     -0.4581      0.2099      0.0733
        44         0.1175     -0.1397     -0.0000      0.0333      0.0117
        45        -0.4057      0.2614     -0.0000      0.2329      0.0829
        46        -0.0000      0.0000      0.7031      0.4944      0.1764
        47         0.1261     -0.8208     -0.0000      0.6897      0.2479
        48        -0.0000     -0.0000      0.1386      0.0192      0.0070
        49         0.0162     -0.2170     -0.0000      0.0474      0.0172
        50         0.0000      0.0000      0.3152      0.0993      0.0363
        51        -0.3997      0.2800     -0.0000      0.2382      0.0876
        52         0.0000      0.0000     -0.0517      0.0027      0.0010
        53         0.0570     -0.3575     -0.0000      0.1311      0.0484
        54        -0.1636     -0.0554      0.0000      0.0298      0.0111
        55        -0.6842      0.2663      0.0000      0.5391      0.2013
        56        -0.0000     -0.0000      0.2224      0.0495      0.0185
        57         0.0000     -0.0000     -0.1637      0.0268      0.0101
        58         0.0000      0.0000     -0.1448      0.0210      0.0080
        59         0.5954      0.2588     -0.0000      0.4214      0.1617
        60        -0.2349      0.1152     -0.0000      0.0684      0.0264
        61         0.0000     -0.0000     -0.6457      0.4169      0.1613
        62         0.0000      0.0000      0.1443      0.0208      0.0081
        63         0.0822     -0.3260      0.0000      0.1130      0.0444
        64         0.1183      0.3047      0.0000      0.1068      0.0421
        65        -0.0000     -0.0000     -0.0762      0.0058      0.0023
        66        -0.1732     -0.3235      0.0000      0.1346      0.0537
        67        -0.0000     -0.0000     -0.4875      0.2376      0.0952
        68        -0.1649     -0.4644     -0.0000      0.2428      0.0976
        69         0.0000     -0.0000      0.5462      0.2984      0.1211
        70         0.0000      0.0000      0.0568      0.0032      0.0013
        71         0.2388      0.2232     -0.0000      0.1068      0.0439
        72        -0.1289     -0.1395     -0.0000      0.0361      0.0149
        73         0.0000     -0.0000     -0.0791      0.0063      0.0026
        74        -0.1866      0.2304      0.0000      0.0879      0.0366
        75         0.0000     -0.0000      0.1516      0.0230      0.0097
        76         0.0144      0.0217      0.0000      0.0007      0.0003
        77         0.0404      0.1188      0.0000      0.0157      0.0067
        78        -0.0000     -0.0000     -0.2547      0.0649      0.0277
        79         0.1460     -0.0793      0.0000      0.0276      0.0119
        80         0.0884      0.0469     -0.0000      0.0100      0.0043
        81         0.1198     -0.0614     -0.0000      0.0181      0.0078
        82        -0.0000      0.0000      0.1727      0.0298      0.0129
        83        -0.0000     -0.0000      0.0054      0.0000      0.0000
        84         0.4386     -0.3294      0.0000      0.3009      0.1314
        85        -0.0000      0.0000     -0.0361      0.0013      0.0006
        86         0.2183      0.0134      0.0000      0.0478      0.0211
        87         0.1564      0.2762     -0.0000      0.1008      0.0450
        88        -0.0000     -0.0000      0.0998      0.0100      0.0045
        89         0.1088      0.0597      0.0000      0.0154      0.0069
        90        -0.0000     -0.0000      0.0862      0.0074      0.0033
        91         0.0909     -0.3799      0.0000      0.1526      0.0689
        92        -0.0000     -0.0000     -0.2708      0.0733      0.0332
        93         0.1504     -0.2917     -0.0000      0.1077      0.0490
        94         0.0000      0.0000     -0.1514      0.0229      0.0105
        95         0.4403      0.4347      0.0000      0.3828      0.1754
        96         0.0000     -0.0000     -0.2924      0.0855      0.0393
        97         0.3239     -0.3007     -0.0000      0.1954      0.0906
        98        -0.0000      0.0000     -0.2297      0.0527      0.0245
        99         0.0708      0.4374      0.0000      0.1963      0.0916
       100         0.0000      0.0000     -0.0580      0.0034      0.0016
       101        -0.0000     -0.0000      0.1326      0.0176      0.0083
       102         0.0000     -0.0000      0.1725      0.0297      0.0141
       103        -0.0492      0.0233     -0.0000      0.0030      0.0014
       104         0.0632     -0.2700     -0.0000      0.0769      0.0367
       105         0.2946     -0.3970      0.0000      0.2444      0.1170
       106        -0.2211     -0.0111      0.0000      0.0490      0.0235
       107         0.0000      0.0000      0.2756      0.0760      0.0365
       108         0.1085      0.3073     -0.0000      0.1062      0.0512
       109         0.0000      0.0000     -0.1866      0.0348      0.0169
       110        -0.0006     -0.0374      0.0000      0.0014      0.0007
       111        -0.0000      0.0000     -0.3368      0.1134      0.0550
       112         0.0517      0.4826      0.0000      0.2356      0.1144
       113        -0.0000     -0.0000      0.2880      0.0829      0.0409
       114        -0.0000     -0.0000      0.1034      0.0107      0.0053
       115         0.0000     -0.0000     -0.0909      0.0083      0.0041
       116        -0.0000     -0.0000      0.0326      0.0011      0.0005
       117         0.0000      0.0000      0.0647      0.0042      0.0021
       118         0.1018     -0.0951      0.0000      0.0194      0.0098
       119        -0.0000     -0.0000      0.1490      0.0222      0.0112
       120        -0.0000     -0.0000     -0.0094      0.0001      0.0000
       121        -0.2415     -0.1309     -0.0000      0.0754      0.0382
       122        -0.0815      0.0135     -0.0000      0.0068      0.0035
       123         0.0000      0.0000     -0.6269      0.3930      0.2004
       124        -0.2614     -0.0290     -0.0000      0.0692      0.0353
       125        -0.0663     -0.0738     -0.0000      0.0098      0.0051
       126         0.0202     -0.0797      0.0000      0.0068      0.0035
       127        -0.0117     -0.1627      0.0000      0.0266      0.0139
       128         0.0000     -0.0000     -0.1155      0.0133      0.0070
       129        -0.0422     -0.1786     -0.0000      0.0337      0.0177
       130         0.0000     -0.0000      0.0359      0.0013      0.0007
       131         0.1925     -0.0975     -0.0000      0.0466      0.0246
       132         0.0000     -0.0000      0.0476      0.0023      0.0012
       133        -0.1310     -0.0121      0.0000      0.0173      0.0092
       134         0.1050     -0.0297      0.0000      0.0119      0.0063
       135        -0.0000      0.0000     -0.3381      0.1143      0.0609
       136         0.0315     -0.1522      0.0000      0.0242      0.0129
       137        -0.0000     -0.0000     -0.1326      0.0176      0.0094
       138         0.1376     -0.1056      0.0000      0.0301      0.0162
       139         0.0937     -0.3789     -0.0000      0.1523      0.0823
       140         0.0000     -0.0000      0.3747      0.1404      0.0762
       141         0.1215     -0.0177     -0.0000      0.0151      0.0082
       142         0.0000      0.0000     -0.4809      0.2313      0.1269
       143         0.0604     -0.0006      0.0000      0.0036      0.0020
       144         0.0680     -0.6540      0.0000      0.4324      0.2389
       145        -0.3873      0.1186     -0.0000      0.1641      0.0909
       146         0.0000      0.0000      0.0618      0.0038      0.0021
       147         0.1645     -0.4371     -0.0000      0.2182      0.1216
       148        -0.0887      0.0160     -0.0000      0.0081      0.0045
       149        -0.0000     -0.0000     -0.1542      0.0238      0.0133
       150        -0.0000      0.0000      0.0944      0.0089      0.0050
       151         0.0000     -0.0000      0.1087      0.0118      0.0067
       152         0.5168      0.0037      0.0000      0.2671      0.1506
       153        -0.3056     -0.0968     -0.0000      0.1028      0.0583
       154         0.2787     -0.1496     -0.0000      0.1001      0.0572
       155        -0.0000     -0.0000     -0.0827      0.0068      0.0039
       156        -0.0000      0.0000     -0.1675      0.0280      0.0162
       157        -0.1141      0.1779      0.0000      0.0447      0.0259
       158        -0.0000      0.0000      0.2286      0.0523      0.0303
       159        -0.2836     -0.4310      0.0000      0.2662      0.1554
       160         0.1368     -0.1076     -0.0000      0.0303      0.0177
       161         0.0000      0.0000     -0.3021      0.0913      0.0534
       162         0.0000     -0.0000      0.0644      0.0042      0.0024
       163         0.3374      0.1010     -0.0000      0.1241      0.0739
       164         0.0000      0.0000      0.0985      0.0097      0.0058
       165        -0.3280      0.1800      0.0000      0.1399      0.0840
       166         0.4222      0.1343      0.0000      0.1963      0.1183
       167         0.0000     -0.0000      0.0940      0.0088      0.0053
       168        -0.0000     -0.0000     -0.0702      0.0049      0.0030
       169         0.0000     -0.0000     -0.0132      0.0002      0.0001
       170         0.0376     -0.0951     -0.0000      0.0105      0.0064
       171         0.0000     -0.0000     -0.4962      0.2463      0.1510
       172        -0.0638      0.1426      0.0000      0.0244      0.0150
       173        -0.0417     -0.0353      0.0000      0.0030      0.0018
       174         0.3147      0.0946      0.0000      0.1080      0.0668
       175         0.0000     -0.0000      0.1857      0.0345      0.0215
       176         0.1912      0.1793      0.0000      0.0687      0.0431
       177        -0.0000     -0.0000      0.0299      0.0009      0.0006
       178        -0.0000      0.0000      0.0544      0.0030      0.0019
       179         0.0000     -0.0000      0.2429      0.0590      0.0373
       180         0.0004      0.2035     -0.0000      0.0414      0.0262
       181        -0.0000      0.0000     -0.1728      0.0299      0.0189
       182         0.0456      0.3929      0.0000      0.1564      0.0992
       183         0.1642     -0.1073     -0.0000      0.0385      0.0245
       184         0.0649      0.0380      0.0000      0.0057      0.0036
       185        -0.0000     -0.0000      0.0055      0.0000      0.0000
       186         0.1510     -0.0717     -0.0000      0.0279      0.0181
       187         0.0000      0.0000      0.3436      0.1181      0.0772
       188         0.1074      0.0010     -0.0000      0.0115      0.0076
       189        -0.0000      0.0000     -0.3199      0.1023      0.0670
       190         0.0144      0.0424      0.0000      0.0020      0.0013
       191         0.0923      0.0362     -0.0000      0.0098      0.0065
       192        -0.0000      0.0000      0.1165      0.0136      0.0090
       193        -0.1998     -0.0214     -0.0000      0.0404      0.0268
       194         0.0125     -0.2631     -0.0000      0.0694      0.0462
       195        -0.2560     -0.0200      0.0000      0.0659      0.0443
       196        -0.0000      0.0000      0.3527      0.1244      0.0838
       197         0.2736      0.0014     -0.0000      0.0748      0.0505
       198        -0.1216      0.0034     -0.0000      0.0148      0.0101
       199        -0.3630      0.0787     -0.0000      0.1380      0.0948
       200        -0.3731      0.0240     -0.0000      0.1398      0.0963
       201        -0.1626      0.1013     -0.0000      0.0367      0.0254
       202         0.0000     -0.0000     -0.0085      0.0001      0.0001
       203         0.0000      0.0000     -0.4960      0.2461      0.1720
       204         0.0000     -0.0000      0.0455      0.0021      0.0014
       205        -0.0099      0.0506      0.0000      0.0027      0.0019
       206        -0.0708     -0.0575      0.0000      0.0083      0.0058
       207         0.0000      0.0000      0.0147      0.0002      0.0002
       208         0.2388      0.2312      0.0000      0.1105      0.0786
       209        -0.0000     -0.0000     -0.2079      0.0432      0.0308
       210         0.0000     -0.0000      0.2849      0.0812      0.0581
       211         0.1220      0.0139     -0.0000      0.0151      0.0108
       212        -0.1644     -0.2349      0.0000      0.0822      0.0600
       213         0.0000     -0.0000      0.2804      0.0786      0.0579
       214         0.0209      0.2993     -0.0000      0.0900      0.0667
       215         0.0000     -0.0000      0.0083      0.0001      0.0001
       216        -0.0559      0.2960     -0.0000      0.0908      0.0677
       217         0.0464      0.1986      0.0000      0.0416      0.0314
       218         0.0000     -0.0000     -0.0243      0.0006      0.0004
       219         0.0000     -0.0000      0.0175      0.0003      0.0002
       220        -0.0361      0.0361     -0.0000      0.0026      0.0020
       221         0.1792      0.0625      0.0000      0.0360      0.0276
       222        -0.0000      0.0000     -0.1439      0.0207      0.0159
       223         0.2051     -0.0015     -0.0000      0.0421      0.0325
       224        -0.0105     -0.0234     -0.0000      0.0007      0.0005
       225         0.0000     -0.0000     -0.0811      0.0066      0.0052
       226         0.0000     -0.0000      0.2863      0.0820      0.0644
       227         0.1062     -0.0327      0.0000      0.0123      0.0097
       228         0.1073      0.0053      0.0000      0.0115      0.0091
       229        -0.0000     -0.0000     -0.0217      0.0005      0.0004
       230        -0.0878     -0.0242     -0.0000      0.0083      0.0066
       231        -0.0000      0.0000     -0.0240      0.0006      0.0005
       232        -0.0007      0.1720      0.0000      0.0296      0.0237
       233         0.0000     -0.0000      0.0005      0.0000      0.0000
       234         0.1418     -0.0720      0.0000      0.0253      0.0204
       235        -0.0146      0.0696     -0.0000      0.0051      0.0041
       236        -0.0714     -0.0086      0.0000      0.0052      0.0042
       237         0.0000     -0.0000      0.0882      0.0078      0.0064
       238        -0.0102     -0.0728      0.0000      0.0054      0.0044
       239         0.0000      0.0000      0.0155      0.0002      0.0002
       240        -0.0518     -0.1521     -0.0000      0.0258      0.0214
       241        -0.0256     -0.0776      0.0000      0.0067      0.0055
       242         0.0000      0.0000     -0.0184      0.0003      0.0003
       243        -0.0000      0.0000     -0.0081      0.0001      0.0001
       244         0.2408     -0.0036     -0.0000      0.0580      0.0485
       245        -0.0525     -0.0574     -0.0000      0.0061      0.0051
       246        -0.0000      0.0000      0.1407      0.0198      0.0167
       247        -0.0000     -0.0000      0.0454      0.0021      0.0018
       248        -0.0000      0.0000      0.0597      0.0036      0.0030
       249         0.1066      0.1554     -0.0000      0.0355      0.0307
       250        -0.0000      0.0000      0.3070      0.0942      0.0817
       251         0.0857     -0.0188     -0.0000      0.0077      0.0067
       252         0.0946     -0.1678     -0.0000      0.0371      0.0326
       253        -0.0931      0.0248     -0.0000      0.0093      0.0082
       254        -0.0540     -0.0945     -0.0000      0.0118      0.0105
       255         0.0000     -0.0000      0.0529      0.0028      0.0025
       256         0.0737      0.0753     -0.0000      0.0111      0.0099
       257        -0.0000      0.0000      0.1212      0.0147      0.0131
       258        -0.0000      0.0000      0.0473      0.0022      0.0020
       259        -0.1040     -0.1079      0.0000      0.0224      0.0203
       260         0.0000     -0.0000      0.0741      0.0055      0.0050
       261         0.1793     -0.1516      0.0000      0.0552      0.0505
       262         0.0000      0.0000      0.0354      0.0013      0.0011
       263         0.0000     -0.0000      0.0117      0.0001      0.0001
       264         0.0197     -0.1384     -0.0000      0.0196      0.0180
       265        -0.0000     -0.0000      0.1305      0.0170      0.0157
       266        -0.0932      0.0681      0.0000      0.0133      0.0123
       267        -0.0246      0.0028      0.0000      0.0006      0.0006
       268        -0.0000      0.0000     -0.1030      0.0106      0.0099
       269         0.0937      0.0110     -0.0000      0.0089      0.0084
       270         0.0000     -0.0000      0.0931      0.0087      0.0082
       271        -0.0285      0.0121     -0.0000      0.0010      0.0009
       272        -0.0202     -0.0209      0.0000      0.0008      0.0008
       273         0.1550      0.0772      0.0000      0.0300      0.0292
       274        -0.0338      0.1925      0.0000      0.0382      0.0374
       275        -0.0000      0.0000      0.3017      0.0910      0.0893
       276         0.0000      0.0000      0.0670      0.0045      0.0044
       277         0.1753      0.1287     -0.0000      0.0473      0.0471
       278         0.0000     -0.0000     -0.0020      0.0000      0.0000
       279         0.2398     -0.0602     -0.0000      0.0611      0.0619
       280        -0.0583      0.0453      0.0000      0.0054      0.0056
       281        -0.0000     -0.0000     -0.1672      0.0280      0.0288
       282        -0.0000     -0.0000      0.1086      0.0118      0.0122
       283        -0.0722      0.1331      0.0000      0.0229      0.0237
       284         0.1252     -0.0255     -0.0000      0.0163      0.0169
       285         0.0000     -0.0000      0.0508      0.0026      0.0027
       286        -0.0099     -0.0278     -0.0000      0.0009      0.0009
       287        -0.0000     -0.0000      0.1222      0.0149      0.0157
       288         0.0912      0.1333      0.0000      0.0261      0.0277
       289        -0.1110     -0.0312     -0.0000      0.0133      0.0142
       290        -0.0597      0.1027     -0.0000      0.0141      0.0153
       291        -0.0000     -0.0000      0.0326      0.0011      0.0012
       292         0.0476      0.0576      0.0000      0.0056      0.0062
       293        -0.0000     -0.0000      0.0228      0.0005      0.0006
       294         0.0132      0.0541      0.0000      0.0031      0.0035
       295         0.0484      0.0815     -0.0000      0.0090      0.0100
       296         0.0000     -0.0000      0.0829      0.0069      0.0077
       297        -0.1442     -0.0100     -0.0000      0.0209      0.0234
       298        -0.0192      0.1746     -0.0000      0.0309      0.0347
       299        -0.0000      0.0000      0.0416      0.0017      0.0020
       300        -0.0626     -0.1097      0.0000      0.0159      0.0182
       301         0.0000      0.0000      0.0901      0.0081      0.0093
[...]
      5   0.147753D+00  0.000000D+00 -0.156713D-01  0.193039D-01  0.000000D+00
      6  -0.156700D+00  0.000000D+00  0.124456D+00 -0.851499D-02  0.000000D+00
      7   0.000000D+00 -0.178290D+00  0.000000D+00  0.000000D+00 -0.148429D+00
      8   0.000000D+00 -0.253310D-01  0.000000D+00  0.000000D+00  0.116693D+00
      9   0.000000D+00  0.365018D-01  0.000000D+00  0.000000D+00  0.989753D-01
     10  -0.929337D-02  0.000000D+00  0.119093D+00  0.128148D+00  0.000000D+00
     11  -0.332227D-01  0.000000D+00 -0.312364D+00  0.244336D+00  0.000000D+00
     12  -0.174046D+00  0.000000D+00 -0.200293D+00  0.327665D+00  0.000000D+00
     13   0.925431D-01  0.000000D+00 -0.877300D-01  0.639684D-01  0.000000D+00
     14  -0.846998D-01  0.000000D+00  0.546082D-01  0.213718D-01  0.000000D+00
     15   0.000000D+00  0.584538D-01  0.000000D+00  0.000000D+00 -0.180864D-01
     16   0.000000D+00 -0.208123D+00  0.000000D+00  0.000000D+00 -0.781126D-01
               431           432           433           434           435 
      1  -0.920771D+02 -0.920594D+02 -0.920452D+02 -0.920306D+02 -0.920274D+02
      2   0.103190D+00 -0.325318D-01 -0.462652D-01  0.132679D-01  0.000000D+00
      3  -0.610009D-02  0.597122D-01 -0.176702D-01 -0.335227D-01  0.000000D+00
      4   0.000000D+00  0.000000D+00  0.000000D+00  0.000000D+00 -0.620035D-01
      5  -0.273382D+00  0.886714D-01  0.112877D+00 -0.365948D-01  0.000000D+00
      6   0.227900D-01 -0.157622D+00  0.269242D-01  0.529382D-01  0.000000D+00
      7   0.000000D+00  0.000000D+00  0.000000D+00  0.000000D+00  0.214290D+00
      8   0.000000D+00  0.000000D+00  0.000000D+00  0.000000D+00 -0.278155D+00
      9   0.000000D+00  0.000000D+00  0.000000D+00  0.000000D+00 -0.143642D-01
     10  -0.452058D+00 -0.168666D+00  0.202188D-01  0.289586D+00  0.000000D+00
     11   0.261164D+00  0.104740D-02 -0.263203D+00 -0.612581D-01  0.000000D+00
     12   0.545553D-01  0.583227D-01  0.238177D+00 -0.134676D+00  0.000000D+00
     13   0.483746D-01 -0.347074D+00  0.526923D-01 -0.224802D-01  0.000000D+00
     14   0.541812D+00  0.131020D+00 -0.552642D-01 -0.237728D+00  0.000000D+00
     15   0.000000D+00  0.000000D+00  0.000000D+00  0.000000D+00 -0.494530D-01
     16   0.000000D+00  0.000000D+00  0.000000D+00  0.000000D+00 -0.287117D+00
               436           437           438           439           440 
      1  -0.919827D+02 -0.919803D+02 -0.919668D+02 -0.919581D+02 -0.919491D+02
      2   0.000000D+00 -0.461048D-01  0.000000D+00  0.000000D+00  0.000000D+00
      3   0.000000D+00  0.960419D-01  0.000000D+00  0.000000D+00  0.000000D+00
      4  -0.307870D-01  0.000000D+00 -0.380493D-01  0.184578D-02  0.113502D+00
      5   0.000000D+00  0.141858D+00  0.000000D+00  0.000000D+00  0.000000D+00
      6   0.000000D+00 -0.268497D+00  0.000000D+00  0.000000D+00  0.000000D+00
      7   0.527149D-01  0.000000D+00  0.728028D-01 -0.262688D-01 -0.313183D+00
      8   0.818172D-01  0.000000D+00  0.823421D-01  0.194981D+00  0.462330D+00
      9  -0.144361D+00  0.000000D+00  0.464113D-01  0.100132D-02  0.208381D-01
     10   0.000000D+00  0.266673D+00  0.000000D+00  0.000000D+00  0.000000D+00
     11   0.000000D+00 -0.206380D+00  0.000000D+00  0.000000D+00  0.000000D+00
     12   0.000000D+00  0.494688D+00  0.000000D+00  0.000000D+00  0.000000D+00
     13   0.000000D+00  0.149637D+00  0.000000D+00  0.000000D+00  0.000000D+00
     14   0.000000D+00 -0.354365D-01  0.000000D+00  0.000000D+00  0.000000D+00
     15  -0.202135D-01  0.000000D+00  0.144182D+00  0.255481D+00  0.156481D+00
     16   0.299413D-01  0.000000D+00  0.396605D+00  0.239405D+00  0.586433D+00
               441           442           443           444           445 
      1  -0.919307D+02 -0.919202D+02 -0.918856D+02 -0.918684D+02 -0.918450D+02
      2  -0.721339D-02 -0.368674D-01 -0.322987D-01  0.000000D+00  0.000000D+00
      3  -0.134154D-01  0.129241D-01 -0.160520D-01  0.000000D+00  0.000000D+00
      4   0.000000D+00  0.000000D+00  0.000000D+00 -0.166524D-01 -0.137111D-01
      5  -0.168234D-01  0.639504D-01  0.584386D-01  0.000000D+00  0.000000D+00
      6   0.584223D-01 -0.442708D-01  0.408385D-01  0.000000D+00  0.000000D+00
      7   0.000000D+00  0.000000D+00  0.000000D+00  0.201366D-01  0.734833D-01
      8   0.000000D+00  0.000000D+00  0.000000D+00  0.227821D+00 -0.163769D+00
      9   0.000000D+00  0.000000D+00  0.000000D+00 -0.402868D-01  0.887516D-01
     10  -0.353539D-01  0.121392D+00 -0.872566D-01  0.000000D+00  0.000000D+00
     11   0.799186D-01 -0.438076D-01  0.265898D-01  0.000000D+00  0.000000D+00
     12  -0.344764D+00  0.869406D+00 -0.681830D+00  0.000000D+00  0.000000D+00
     13   0.526496D-01 -0.157169D+00  0.257882D+00  0.000000D+00  0.000000D+00
     14   0.189932D+00 -0.136965D+00  0.188855D+00  0.000000D+00  0.000000D+00
     15   0.000000D+00  0.000000D+00  0.000000D+00 -0.484120D-01  0.552880D-01
     16   0.000000D+00  0.000000D+00  0.000000D+00  0.461778D+00 -0.162194D+00
               446           447           448           449           450 
      1  -0.918439D+02 -0.918368D+02 -0.918323D+02 -0.918257D+02 -0.918119D+02
      2   0.683688D-02 -0.116520D+00  0.115937D-02 -0.256279D-01 -0.113472D+00
      3  -0.135207D-02 -0.231867D-02 -0.285139D-01  0.158603D-01 -0.512343D-01
      4   0.000000D+00  0.000000D+00  0.000000D+00  0.000000D+00  0.000000D+00
      5  -0.995154D-02  0.311744D+00 -0.196010D-01  0.773162D-01  0.324143D+00
      6   0.150332D-01  0.125601D-01  0.836465D-01 -0.407549D-01  0.135676D+00
      7   0.000000D+00  0.000000D+00  0.000000D+00  0.000000D+00  0.000000D+00
      8   0.000000D+00  0.000000D+00  0.000000D+00  0.000000D+00  0.000000D+00
      9   0.000000D+00  0.000000D+00  0.000000D+00  0.000000D+00  0.000000D+00
     10  -0.314129D-01  0.448856D-01  0.674448D-02  0.200457D+00  0.474766D+00
     11  -0.211923D+00  0.108173D+00 -0.148474D+00 -0.530967D-01 -0.183882D+00
     12   0.731233D-02  0.911118D-01  0.370403D-01 -0.478790D-01 -0.658027D+00
     13   0.290590D+00 -0.177835D+00  0.144580D+00 -0.547416D-01 -0.815390D-01
     14   0.212796D+00  0.100708D+00  0.698325D-01 -0.120962D+00 -0.637142D+00
     15   0.000000D+00  0.000000D+00  0.000000D+00  0.000000D+00  0.000000D+00
     16   0.000000D+00  0.000000D+00  0.000000D+00  0.000000D+00  0.000000D+00
               451           452           453           454           455 
      1  -0.917972D+02 -0.917672D+02 -0.917603D+02 -0.917526D+02 -0.917341D+02
      2   0.000000D+00  0.178452D+00  0.000000D+00  0.000000D+00  0.000000D+00
      3   0.000000D+00  0.238325D-02  0.000000D+00  0.000000D+00  0.000000D+00
      4  -0.923394D-01  0.000000D+00 -0.352382D-01 -0.402896D-01  0.120144D+00
      5   0.000000D+00 -0.512596D+00  0.000000D+00  0.000000D+00  0.000000D+00
      6   0.000000D+00  0.221134D-01  0.000000D+00  0.000000D+00  0.000000D+00
      7   0.263726D+00  0.000000D+00  0.910987D-01  0.112927D+00 -0.334887D+00
      8  -0.266718D+00  0.000000D+00  0.412223D+00 -0.956826D-01  0.255042D+00
      9   0.240227D-01  0.000000D+00  0.280079D-01 -0.433380D-01 -0.107558D+00
     10   0.000000D+00 -0.586787D+00  0.000000D+00  0.000000D+00  0.000000D+00
     11   0.000000D+00  0.354077D+00  0.000000D+00  0.000000D+00  0.000000D+00
     12   0.000000D+00 -0.446018D+00  0.000000D+00  0.000000D+00  0.000000D+00
     13   0.000000D+00 -0.229385D+00  0.000000D+00  0.000000D+00  0.000000D+00
     14   0.000000D+00  0.379451D+00  0.000000D+00  0.000000D+00  0.000000D+00
     15  -0.631250D-01  0.000000D+00 -0.174359D+00  0.394597D-01 -0.732641D-01
     16  -0.826908D-01  0.000000D+00  0.215441D+00  0.139563D-01  0.134689D+00
               456           457           458           459           460 
      1  -0.917270D+02 -0.917192D+02 -0.917086D+02 -0.917010D+02 -0.916891D+02
      2   0.000000D+00  0.000000D+00  0.101562D+00 -0.583108D-01  0.102803D+00
      3   0.000000D+00  0.000000D+00  0.200166D-01 -0.252004D-01  0.701089D-01
      4   0.250447D-01 -0.116706D+00  0.000000D+00  0.000000D+00  0.000000D+00
      5   0.000000D+00  0.000000D+00 -0.296587D+00  0.161538D+00 -0.284382D+00
      6   0.000000D+00  0.000000D+00 -0.484760D-01  0.890665D-01 -0.222052D+00
      7  -0.793997D-01  0.348991D+00  0.000000D+00  0.000000D+00  0.000000D+00
      8   0.125772D+00 -0.314190D+00  0.000000D+00  0.000000D+00  0.000000D+00
      9  -0.217276D-01  0.462863D-01  0.000000D+00  0.000000D+00  0.000000D+00
     10   0.000000D+00  0.000000D+00 -0.275336D-02  0.232850D+00 -0.230734D+00
     11   0.000000D+00  0.000000D+00  0.216431D+00  0.207449D-01  0.256690D+00
     12   0.000000D+00  0.000000D+00 -0.479484D+00 -0.796789D+00  0.323692D+00
     13   0.000000D+00  0.000000D+00 -0.117575D+00 -0.638262D-01  0.518658D-01
     14   0.000000D+00  0.000000D+00 -0.428806D-02 -0.345832D+00  0.214608D+00
     15  -0.298129D-01 -0.161735D+00  0.000000D+00  0.000000D+00  0.000000D+00
     16  -0.307262D-01 -0.496949D+00  0.000000D+00  0.000000D+00  0.000000D+00
               461           462           463           464           465 
      1  -0.916774D+02 -0.916385D+02 -0.916274D+02 -0.916033D+02 -0.915981D+02
      2   0.466904D-01 -0.568077D-01 -0.198043D-01  0.000000D+00 -0.138633D+00
      3  -0.432287D-01 -0.308925D-01  0.131846D+00  0.000000D+00  0.537769D-01
      4   0.000000D+00  0.000000D+00  0.000000D+00  0.313021D-01  0.000000D+00
      5  -0.142676D+00  0.157275D+00  0.503051D-01  0.000000D+00  0.397496D+00
      6   0.113362D+00  0.733358D-01 -0.406311D+00  0.000000D+00 -0.171851D+00
      7   0.000000D+00  0.000000D+00  0.000000D+00 -0.672841D-01  0.000000D+00
      8   0.000000D+00  0.000000D+00  0.000000D+00  0.109243D+00  0.000000D+00
      9   0.000000D+00  0.000000D+00  0.000000D+00 -0.499351D-01  0.000000D+00
     10  -0.614820D+00  0.153825D+00 -0.114022D+00  0.000000D+00  0.812168D-01
     11   0.102027D+00 -0.152829D-01  0.935611D-01  0.000000D+00 -0.208170D+00
     12   0.413218D-01  0.328722D-01  0.438374D+00  0.000000D+00 -0.533327D-01
     13   0.595639D-01 -0.527575D-01 -0.662430D-01  0.000000D+00  0.234958D+00
     14   0.699272D+00 -0.195937D+00  0.317180D+00  0.000000D+00 -0.902706D-01
     15   0.000000D+00  0.000000D+00  0.000000D+00 -0.151427D+00  0.000000D+00
     16   0.000000D+00  0.000000D+00  0.000000D+00 -0.142698D+00  0.000000D+00
               466           467           468           469           470 
      1  -0.915859D+02 -0.915856D+02 -0.915732D+02 -0.915548D+02 -0.915386D+02
      2   0.000000D+00 -0.103156D+00  0.000000D+00  0.000000D+00  0.699842D-01
      3   0.000000D+00  0.390337D-02  0.000000D+00  0.000000D+00  0.542505D-01
      4  -0.711895D-01  0.000000D+00 -0.900788D-01 -0.842731D-01  0.000000D+00
      5   0.000000D+00  0.295101D+00  0.000000D+00  0.000000D+00 -0.206168D+00
      6   0.000000D+00  0.191163D-02  0.000000D+00  0.000000D+00 -0.157373D+00
      7   0.216991D+00  0.000000D+00  0.246664D+00  0.222162D+00  0.000000D+00
      8   0.142569D+00  0.000000D+00  0.734497D-01  0.560644D+00  0.000000D+00
      9   0.782343D-01  0.000000D+00  0.324612D-01  0.672672D-02  0.000000D+00
     10   0.000000D+00 -0.158414D+00  0.000000D+00  0.000000D+00 -0.209137D+00
     11   0.000000D+00 -0.108100D+00  0.000000D+00  0.000000D+00 -0.247292D-01
     12   0.000000D+00 -0.703802D+00  0.000000D+00  0.000000D+00 -0.440823D+00
     13   0.000000D+00 -0.759209D-01  0.000000D+00  0.000000D+00 -0.378284D-02
     14   0.000000D+00 -0.122564D+00  0.000000D+00  0.000000D+00  0.400373D+00
     15  -0.233612D-01  0.000000D+00 -0.329036D-01  0.561790D-01  0.000000D+00
     16  -0.692191D-01  0.000000D+00 -0.583951D-01  0.482018D+00  0.000000D+00
               471           472           473           474           475 
      1  -0.915240D+02 -0.915008D+02 -0.914950D+02 -0.914828D+02 -0.914690D+02
      2   0.000000D+00  0.349829D-02 -0.136122D-01  0.888662D-02  0.214454D-01
      3   0.000000D+00  0.957182D-02 -0.473823D-01  0.115013D+00 -0.129092D+00
      4  -0.232646D-01  0.000000D+00  0.000000D+00  0.000000D+00  0.000000D+00
      5   0.000000D+00  0.597926D-02  0.345923D-01 -0.261069D-01 -0.481846D-01
      6   0.000000D+00 -0.418441D-01  0.137797D+00 -0.351237D+00  0.395730D+00
      7   0.670875D-01  0.000000D+00  0.000000D+00  0.000000D+00  0.000000D+00
      8  -0.245580D+00  0.000000D+00  0.000000D+00  0.000000D+00  0.000000D+00
      9  -0.861428D-02  0.000000D+00  0.000000D+00  0.000000D+00  0.000000D+00
     10   0.000000D+00  0.499843D+00 -0.353428D+00  0.226078D+00  0.102629D+00
     11   0.000000D+00 -0.497571D-01  0.123146D+00  0.143810D+00 -0.146505D+00
     12   0.000000D+00 -0.561667D+00  0.108374D+00  0.991710D+00 -0.241343D-01
     13   0.000000D+00  0.111659D+00 -0.250905D-01 -0.772072D-01  0.533991D-01
     14   0.000000D+00 -0.482150D+00  0.379601D+00 -0.238259D+00 -0.267080D+00
     15  -0.759439D-01  0.000000D+00  0.000000D+00  0.000000D+00  0.000000D+00
     16  -0.343632D+00  0.000000D+00  0.000000D+00  0.000000D+00  0.000000D+00
               476           477           478           479           480 
      1  -0.914637D+02 -0.914506D+02 -0.913909D+02 -0.913721D+02 -0.913622D+02
      2   0.000000D+00  0.233308D-01 -0.264243D-01  0.000000D+00  0.000000D+00
      3   0.000000D+00 -0.454022D-01 -0.117568D-01  0.000000D+00  0.000000D+00
      4   0.221840D-01  0.000000D+00  0.000000D+00 -0.820334D-01 -0.385323D-01
      5   0.000000D+00 -0.448450D-01  0.653973D-01  0.000000D+00  0.000000D+00
      6   0.000000D+00  0.159349D+00  0.497110D-01  0.000000D+00  0.000000D+00
      7  -0.378509D-01  0.000000D+00  0.000000D+00  0.250303D+00  0.120980D+00
      8  -0.248523D+00  0.000000D+00  0.000000D+00 -0.783018D-01 -0.297164D-01
      9   0.286612D-01  0.000000D+00  0.000000D+00  0.820577D-02  0.137047D-01
     10   0.000000D+00  0.203050D+00 -0.108343D+00  0.000000D+00  0.000000D+00
     11   0.000000D+00  0.704792D-01 -0.100688D+00  0.000000D+00  0.000000D+00
     12   0.000000D+00 -0.129544D+01 -0.143330D+00  0.000000D+00  0.000000D+00
     13   0.000000D+00  0.128785D+00  0.654370D-01  0.000000D+00  0.000000D+00
     14   0.000000D+00 -0.119043D+00  0.789886D-01  0.000000D+00  0.000000D+00
     15  -0.242316D-02  0.000000D+00  0.000000D+00 -0.583792D-01  0.527679D-01
     16  -0.368942D+00  0.000000D+00  0.000000D+00  0.809384D-03 -0.397507D-01
               481           482           483           484           485 
      1  -0.913322D+02 -0.913278D+02 -0.913168D+02 -0.912801D+02 -0.912563D+02
      2   0.000000D+00 -0.327520D-01 -0.451582D-01  0.612404D-01  0.000000D+00
      3   0.000000D+00 -0.844771D-01 -0.421522D-01  0.148352D+00  0.000000D+00
      4  -0.514427D-01  0.000000D+00  0.000000D+00  0.000000D+00  0.594480D-01
      5   0.000000D+00  0.104748D+00  0.122462D+00 -0.183750D+00  0.000000D+00
      6   0.000000D+00  0.277258D+00  0.143043D+00 -0.506015D+00  0.000000D+00
      7   0.144948D+00  0.000000D+00  0.000000D+00  0.000000D+00 -0.189085D+00
      8   0.296356D+00  0.000000D+00  0.000000D+00  0.000000D+00  0.125852D+00
      9   0.168030D-01  0.000000D+00  0.000000D+00  0.000000D+00 -0.495615D-04
     10   0.000000D+00  0.796272D-01 -0.344747D+00 -0.286388D+00  0.000000D+00
     11   0.000000D+00 -0.163698D+00 -0.984741D-01 -0.435945D-01  0.000000D+00
     12   0.000000D+00 -0.700612D+00 -0.416833D+00  0.733016D+00  0.000000D+00
     13   0.000000D+00  0.126806D+00  0.107315D+00  0.161033D+00  0.000000D+00
     14   0.000000D+00 -0.709937D-01  0.275119D+00  0.468534D+00  0.000000D+00
     15   0.143772D+00  0.000000D+00  0.000000D+00  0.000000D+00 -0.665518D-01
     16   0.186291D+00  0.000000D+00  0.000000D+00  0.000000D+00 -0.659261D-01
               486           487           488           489           490 
      1  -0.912435D+02 -0.912260D+02 -0.911319D+02 -0.911274D+02 -0.911170D+02
      2   0.772138D-01  0.000000D+00  0.000000D+00  0.518979D-01 -0.393407D-01
      3   0.182679D-01  0.000000D+00  0.000000D+00 -0.402380D-01  0.136830D-01
      4   0.000000D+00 -0.155381D+00 -0.413110D-01  0.000000D+00  0.000000D+00
      5  -0.248025D+00  0.000000D+00  0.000000D+00 -0.187088D+00  0.121482D+00
      6  -0.261287D-01  0.000000D+00  0.000000D+00  0.130148D+00 -0.487447D-01
      7   0.000000D+00  0.488949D+00  0.116077D+00  0.000000D+00  0.000000D+00
      8   0.000000D+00 -0.718339D+00  0.293457D+00  0.000000D+00  0.000000D+00
      9   0.000000D+00  0.214773D-01  0.992247D-02  0.000000D+00  0.000000D+00
     10  -0.202702D+00  0.000000D+00  0.000000D+00 -0.244295D+00 -0.241085D+00
     11  -0.109013D+00  0.000000D+00  0.000000D+00  0.354159D-01 -0.168220D+00
     12  -0.200172D-02  0.000000D+00  0.000000D+00 -0.414557D+00  0.219408D+00
     13   0.507413D-01  0.000000D+00  0.000000D+00  0.886435D-01  0.125419D+00
     14   0.157136D+00  0.000000D+00  0.000000D+00  0.948985D-01  0.214609D+00
     15   0.000000D+00 -0.213798D+00  0.112891D+00  0.000000D+00  0.000000D+00
     16   0.000000D+00 -0.671812D+00  0.277016D+00  0.000000D+00  0.000000D+00
               491           492           493           494           495 
      1  -0.911029D+02 -0.910952D+02 -0.910414D+02 -0.909844D+02 -0.908917D+02
      2  -0.256759D-01  0.000000D+00  0.000000D+00  0.114040D+00 -0.462823D-01
      3  -0.109349D-01  0.000000D+00  0.000000D+00 -0.723607D-01  0.317274D-01
      4   0.000000D+00  0.196553D-01 -0.127746D+00  0.000000D+00  0.000000D+00
      5   0.703133D-01  0.000000D+00  0.000000D+00 -0.391781D+00  0.154125D+00
      6   0.736740D-01  0.000000D+00  0.000000D+00  0.256859D+00 -0.641621D-01
      7   0.000000D+00 -0.774435D-01  0.433981D+00  0.000000D+00  0.000000D+00
      8   0.000000D+00  0.234644D-01 -0.646791D+00  0.000000D+00  0.000000D+00
      9   0.000000D+00 -0.256673D-01  0.117552D-01  0.000000D+00  0.000000D+00
     10   0.807887D-02  0.000000D+00  0.000000D+00 -0.575806D+00  0.175363D+00
     11   0.437718D-01  0.000000D+00  0.000000D+00  0.190729D+00  0.764493D-02
     12  -0.120928D+01  0.000000D+00  0.000000D+00 -0.818273D+00  0.161295D+00
     13   0.262884D-01  0.000000D+00  0.000000D+00  0.914717D-01 -0.842429D-01
     14  -0.102933D+00  0.000000D+00  0.000000D+00  0.439772D+00 -0.735596D-01
     15   0.000000D+00  0.102870D+00 -0.210757D+00  0.000000D+00  0.000000D+00
     16   0.000000D+00  0.395508D-01 -0.649056D+00  0.000000D+00  0.000000D+00
               496           497 
      1  -0.908663D+02 -0.906546D+02
      2   0.000000D+00  0.000000D+00
      3   0.000000D+00  0.000000D+00
      4   0.334221D-01  0.688166D-01
      5   0.000000D+00  0.000000D+00
      6   0.000000D+00  0.000000D+00
      7  -0.115000D+00 -0.230812D+00
      8   0.795219D-01  0.279252D+00
      9  -0.869295D-02 -0.766318D-02
     10   0.000000D+00  0.000000D+00
     11   0.000000D+00  0.000000D+00
     12   0.000000D+00  0.000000D+00
     13   0.000000D+00  0.000000D+00
     14   0.000000D+00  0.000000D+00
     15   0.238257D-01  0.170892D+00
     16   0.140327D+00  0.221548D+00
 Unable to Open any file for archive entry.
 1\1\GINC-HEL23\SP\RSVWN5 TD-FC\Gen\C1H5N1\SABYASACHI\21-Mar-2022\0\\#P
  TD(Nstates=10000) svwn5/Gen SCF(maxcycles=100) Int(Grid=ultrafine)\\x
 GDB7_00001_tier4.com\\0,1\C,0,-0.049078,0.702042,0.\N,0,-0.049078,-0.7
 54243,0.\H,0,0.946109,1.166603,0.\H,0,-0.587574,1.062597,0.87777\H,0,-
 0.587574,1.062597,-0.87777\H,0,0.433525,-1.112175,0.812504\H,0,0.43352
 5,-1.112175,-0.812504\\Version=EM64L-G16RevC.01\State=1-A'\HF=-94.9418
 365\RMSD=4.849e-09\PG=CS [SG(C1H1N1),X(H4)]\\@
 The archive entry for this job was punched.


 PATIENCE IS THE ABILITY TO IDLE YOUR MOTOR WHEN
 YOU FEEL LIKE STRIPPING YOUR GEARS.
 Job cpu time:       0 days  0 hours  1 minutes 36.7 seconds.
 Elapsed time:       0 days  0 hours  0 minutes 12.4 seconds.
 File lengths (MBytes):  RWF=    127 Int=      0 D2E=      0 Chk=     78 Scr=      1
 Normal termination of Gaussian 16 at Mon Mar 21 19:58:07 2022.
