 Entering Gaussian System, Link 0=g16
 Input=000016.com
 Output=000016.log
 Initial command:
 /home/sabyasachi/g16/l1.exe "/scratch/sabyasachi/PBS_7975853.helios/Gau-39894.inp" -scrdir="/scratch/sabyasachi/PBS_7975853.helios/"
 Entering Link 1 = /home/sabyasachi/g16/l1.exe PID=     39900.
  
 Copyright (c) 1988-2019, Gaussian, Inc.  All Rights Reserved.
  
 This is part of the Gaussian(R) 16 program.  It is based on
 the Gaussian(R) 09 system (copyright 2009, Gaussian, Inc.),
 the Gaussian(R) 03 system (copyright 2003, Gaussian, Inc.),
 the Gaussian(R) 98 system (copyright 1998, Gaussian, Inc.),
 the Gaussian(R) 94 system (copyright 1995, Gaussian, Inc.),
 the Gaussian 92(TM) system (copyright 1992, Gaussian, Inc.),
 the Gaussian 90(TM) system (copyright 1990, Gaussian, Inc.),
 the Gaussian 88(TM) system (copyright 1988, Gaussian, Inc.),
 the Gaussian 86(TM) system (copyright 1986, Carnegie Mellon
 University), and the Gaussian 82(TM) system (copyright 1983,
 Carnegie Mellon University). Gaussian is a federally registered
 trademark of Gaussian, Inc.
  
 This software contains proprietary and confidential information,
 including trade secrets, belonging to Gaussian, Inc.
  
 This software is provided under written license and may be
 used, copied, transmitted, or stored only in accord with that
 written license.
  
 The following legend is applicable only to US Government
 contracts under FAR:
  
                    RESTRICTED RIGHTS LEGEND
  
 Use, reproduction and disclosure by the US Government is
 subject to restrictions as set forth in subparagraphs (a)
 and (c) of the Commercial Computer Software - Restricted
 Rights clause in FAR 52.227-19.
  
 Gaussian, Inc.
 340 Quinnipiac St., Bldg. 40, Wallingford CT 06492
  
  
 ---------------------------------------------------------------
 Warning -- This program may not be used in any manner that
 competes with the business of Gaussian, Inc. or will provide
 assistance to any competitor of Gaussian, Inc.  The licensee
 of this program is prohibited from giving any competitor of
 Gaussian, Inc. access to this program.  By using this program,
 the user acknowledges that Gaussian, Inc. is engaged in the
 business of creating and licensing software in the field of
 computational chemistry and represents and warrants to the
 licensee that it is not a competitor of Gaussian, Inc. and that
 it will not use this program in any manner prohibited above.
 ---------------------------------------------------------------
  

 Cite this work as:
 Gaussian 16, Revision C.01,
 M. J. Frisch, G. W. Trucks, H. B. Schlegel, G. E. Scuseria, 
 M. A. Robb, J. R. Cheeseman, G. Scalmani, V. Barone, 
 G. A. Petersson, H. Nakatsuji, X. Li, M. Caricato, A. V. Marenich, 
 J. Bloino, B. G. Janesko, R. Gomperts, B. Mennucci, H. P. Hratchian, 
 J. V. Ortiz, A. F. Izmaylov, J. L. Sonnenberg, D. Williams-Young, 
 F. Ding, F. Lipparini, F. Egidi, J. Goings, B. Peng, A. Petrone, 
 T. Henderson, D. Ranasinghe, V. G. Zakrzewski, J. Gao, N. Rega, 
 G. Zheng, W. Liang, M. Hada, M. Ehara, K. Toyota, R. Fukuda, 
 J. Hasegawa, M. Ishida, T. Nakajima, Y. Honda, O. Kitao, H. Nakai, 
 T. Vreven, K. Throssell, J. A. Montgomery, Jr., J. E. Peralta, 
 F. Ogliaro, M. J. Bearpark, J. J. Heyd, E. N. Brothers, K. N. Kudin, 
 V. N. Staroverov, T. A. Keith, R. Kobayashi, J. Normand, 
 K. Raghavachari, A. P. Rendell, J. C. Burant, S. S. Iyengar, 
 J. Tomasi, M. Cossi, J. M. Millam, M. Klene, C. Adamo, R. Cammi, 
 J. W. Ochterski, R. L. Martin, K. Morokuma, O. Farkas, 
 J. B. Foresman, and D. J. Fox, Gaussian, Inc., Wallingford CT, 2019.
 
 ******************************************
 Gaussian 16:  EM64L-G16RevC.01  3-Jul-2019
                21-Mar-2022 
 ******************************************
 %mem=64gb
 %nproc=8
 Will use up to    8 processors via shared memory.
 ---------------------------------------------------------------------
 #P TD(Nstates=10000) svwn5/Gen SCF(maxcycles=100) Int(Grid=ultrafine)
 ---------------------------------------------------------------------
 1/38=1,172=1/1;
 2/12=2,17=6,18=5,40=1/2;
 3/5=7,11=9,25=1,30=1,74=201,75=-5/1,2,3,8;
 4//1;
 5/5=2,7=100,38=5/2;
 8/6=1,10=1,108=10000/1;
 9/41=10000,42=1,70=2/14;
 6/7=2,8=2,9=2,10=2/1;
 99/5=1,9=1/99;
 Leave Link    1 at Mon Mar 21 19:57:30 2022, MaxMem=  8589934592 cpu:               0.3 elap:               0.1
 (Enter /home/sabyasachi/g16/l101.exe)
 ---------------------
 xGDB7_00001_tier4.com
 ---------------------
 Symbolic Z-matrix:
 Charge =  0 Multiplicity = 1
 6                    -1.20842  -0.23907  -0.02192 
 6                     0.08389   0.55345   0.04673 
 8                     1.23347  -0.256    -0.10586 
 1                    -2.072     0.42514   0.0517 
 1                    -1.27067  -0.95776   0.79973 
 1                    -1.27063  -0.78828  -0.96233 
 1                     0.13003   1.1192    0.98611 
 1                     0.12595   1.27703  -0.76855 
 1                     1.23675  -0.91361   0.59134 
 
 ITRead=  0  0  0  0  0  0  0  0  0
 MicOpt= -1 -1 -1 -1 -1 -1 -1 -1 -1
 NAtoms=      9 NQM=        9 NQMF=       0 NMMI=      0 NMMIF=      0
                NMic=       0 NMicF=      0.
                    Isotopes and Nuclear Properties:
 (Nuclear quadrupole moments (NQMom) in fm**2, nuclear magnetic moments (NMagM)
  in nuclear magnetons)

  Atom         1           2           3           4           5           6           7           8           9
 IAtWgt=          12          12          16           1           1           1           1           1           1
 AtmWgt=  12.0000000  12.0000000  15.9949146   1.0078250   1.0078250   1.0078250   1.0078250   1.0078250   1.0078250
 NucSpn=           0           0           0           1           1           1           1           1           1
 AtZEff=  -0.0000000  -0.0000000  -0.0000000  -0.0000000  -0.0000000  -0.0000000  -0.0000000  -0.0000000  -0.0000000
 NQMom=    0.0000000   0.0000000   0.0000000   0.0000000   0.0000000   0.0000000   0.0000000   0.0000000   0.0000000
 NMagM=    0.0000000   0.0000000   0.0000000   2.7928460   2.7928460   2.7928460   2.7928460   2.7928460   2.7928460
 AtZNuc=   6.0000000   6.0000000   8.0000000   1.0000000   1.0000000   1.0000000   1.0000000   1.0000000   1.0000000
 Leave Link  101 at Mon Mar 21 19:57:30 2022, MaxMem=  8589934592 cpu:               0.7 elap:               0.1
 (Enter /home/sabyasachi/g16/l202.exe)
                          Input orientation:                          
 ---------------------------------------------------------------------
 Center     Atomic      Atomic             Coordinates (Angstroms)
 Number     Number       Type             X           Y           Z
 ---------------------------------------------------------------------
      1          6           0       -1.208422   -0.239069   -0.021917
      2          6           0        0.083893    0.553452    0.046734
      3          8           0        1.233467   -0.256002   -0.105864
      4          1           0       -2.071999    0.425136    0.051700
      5          1           0       -1.270670   -0.957756    0.799731
      6          1           0       -1.270625   -0.788280   -0.962327
      7          1           0        0.130030    1.119197    0.986112
      8          1           0        0.125952    1.277026   -0.768547
      9          1           0        1.236751   -0.913605    0.591341
 ---------------------------------------------------------------------
                    Distance matrix (angstroms):
                    1          2          3          4          5
     1  C    0.000000
     2  C    1.517524   0.000000
     3  O    2.443390   1.414221   0.000000
     4  H    1.091949   2.159713   3.378592   0.000000
     5  H    1.093385   2.164624   2.753773   1.764672   0.000000
     6  H    1.090813   2.157120   2.699505   1.772803   1.770189
     7  H    2.156957   1.097555   2.073923   2.490738   2.512057
     8  H    2.153266   1.090876   2.003974   2.495899   3.066643
     9  H    2.609589   1.943691   0.958409   3.609885   2.516453
                    6          7          8          9
     6  H    0.000000
     7  H    3.065407   0.000000
     8  H    2.500693   1.761748   0.000000
     9  H    2.952376   2.347969   2.807496   0.000000
 Stoichiometry    C2H6O
 Framework group  C1[X(C2H6O)]
 Deg. of freedom    21
 Full point group                 C1      NOp   1
 Largest Abelian subgroup         C1      NOp   1
 Largest concise Abelian subgroup C1      NOp   1
                         Standard orientation:                         
 ---------------------------------------------------------------------
 Center     Atomic      Atomic             Coordinates (Angstroms)
 Number     Number       Type             X           Y           Z
 ---------------------------------------------------------------------
      1          6           0       -1.208422   -0.239069   -0.021917
      2          6           0        0.083893    0.553452    0.046734
      3          8           0        1.233467   -0.256002   -0.105864
      4          1           0       -2.071999    0.425135    0.051700
      5          1           0       -1.270670   -0.957756    0.799731
      6          1           0       -1.270625   -0.788280   -0.962327
      7          1           0        0.130030    1.119197    0.986112
      8          1           0        0.125951    1.277026   -0.768547
      9          1           0        1.236751   -0.913605    0.591341
 ---------------------------------------------------------------------
 Rotational constants (GHZ):          34.6666409           9.2583988           8.1755823
 Leave Link  202 at Mon Mar 21 19:57:30 2022, MaxMem=  8589934592 cpu:               0.1 elap:               0.0
 (Enter /home/sabyasachi/g16/l301.exe)
 General basis read from cards:  (5D, 7F)
 Centers:       4      5      6      7      8      9
 S 3 1.00
     Exponent=  1.3010701000D+01 Coefficients=  1.9682158000D-02
     Exponent=  1.9622572000D+00 Coefficients=  1.3796524000D-01
     Exponent=  4.4453796000D-01 Coefficients=  4.7831935000D-01
 S 1 1.00
     Exponent=  1.2194962000D-01 Coefficients=  1.0000000000D+00
 P 1 1.00
     Exponent=  8.0000000000D-01 Coefficients=  1.0000000000D+00
 P 1 1.00
     Exponent=  1.1704099050D-01 Coefficients=  1.0000000000D+00
 ****
 Centers:       1      2
 S 5 1.00
     Exponent=  1.2384016938D+03 Coefficients=  5.4568832082D-03
     Exponent=  1.8629004992D+02 Coefficients=  4.0638409211D-02
     Exponent=  4.2251176346D+01 Coefficients=  1.8025593888D-01
     Exponent=  1.1676557932D+01 Coefficients=  4.6315121755D-01
     Exponent=  3.5930506482D+00 Coefficients=  4.4087173314D-01
 S 1 1.00
     Exponent=  4.0245147363D-01 Coefficients=  1.0000000000D+00
 S 1 1.00
     Exponent=  1.3090182668D-01 Coefficients=  1.0000000000D+00
 S 1 1.00
     Exponent=  6.7053540256D-02 Coefficients=  1.0000000000D+00
 P 3 1.00
     Exponent=  9.4680970621D+00 Coefficients=  3.8387871728D-02
     Exponent=  2.0103545142D+00 Coefficients=  2.1117025112D-01
     Exponent=  5.4771004707D-01 Coefficients=  5.1328172114D-01
 P 1 1.00
     Exponent=  1.5268613795D-01 Coefficients=  1.0000000000D+00
 D 1 1.00
     Exponent=  8.0000000000D-01 Coefficients=  1.0000000000D+00
 D 1 1.00
     Exponent=  1.1713185140D-01 Coefficients=  1.0000000000D+00
 ****
 Centers:       3
 S 5 1.00
     Exponent=  2.2661767785D+03 Coefficients= -5.3431809926D-03
     Exponent=  3.4087010191D+02 Coefficients= -3.9890039230D-02
     Exponent=  7.7363135167D+01 Coefficients= -1.7853911985D-01
     Exponent=  2.1479644940D+01 Coefficients= -4.6427684959D-01
     Exponent=  6.6589433124D+00 Coefficients= -4.4309745172D-01
 S 1 1.00
     Exponent=  8.0975975668D-01 Coefficients=  1.0000000000D+00
 S 1 1.00
     Exponent=  2.5530772234D-01 Coefficients=  1.0000000000D+00
 S 1 1.00
     Exponent=  7.6572453250D-02 Coefficients=  1.0000000000D+00
 P 3 1.00
     Exponent=  1.7721504317D+01 Coefficients=  4.3394573193D-02
     Exponent=  3.8635505440D+00 Coefficients=  2.3094120765D-01
     Exponent=  1.0480920883D+00 Coefficients=  5.1375311064D-01
 P 1 1.00
     Exponent=  2.7641544411D-01 Coefficients=  1.0000000000D+00
 P 1 1.00
     Exponent=  6.9002276350D-02 Coefficients=  1.0000000000D+00
 D 1 1.00
     Exponent=  1.2000000000D+00 Coefficients=  1.0000000000D+00
 D 1 1.00
     Exponent=  1.7992024323D-01 Coefficients=  1.0000000000D+00
 ****
 Ernie: Thresh=  0.10000D-02 Tol=  0.10000D-05 Strict=F.
 There are   117 symmetry adapted cartesian basis functions of A   symmetry.
 There are   111 symmetry adapted basis functions of A   symmetry.
   111 basis functions,   159 primitive gaussians,   117 cartesian basis functions
    13 alpha electrons       13 beta electrons
       nuclear repulsion energy        81.9103171642 Hartrees.
 IExCor=  201 DFT=T Ex=S Corr=VWN5 ExCW=0 ScaHFX=  0.000000
 ScaDFX=  1.000000  1.000000  1.000000  1.000000 ScalE2=  1.000000  1.000000
 IRadAn=      5 IRanWt=     -1 IRanGd=            0 ICorTp=0 IEmpDi=  4
 NAtoms=    9 NActive=    9 NUniq=    9 SFac= 1.00D+00 NAtFMM=   60 NAOKFM=F Big=F
 Integral buffers will be    131072 words long.
 Regular integral format.
 Two-electron integral symmetry is turned on.
 Leave Link  301 at Mon Mar 21 19:57:30 2022, MaxMem=  8589934592 cpu:               0.5 elap:               0.1
 (Enter /home/sabyasachi/g16/l302.exe)
 NPDir=0 NMtPBC=     1 NCelOv=     1 NCel=       1 NClECP=     1 NCelD=      1
         NCelK=      1 NCelE2=     1 NClLst=     1 CellRange=     0.0.
 One-electron integrals computed using PRISM.
 One-electron integral symmetry used in STVInt
 NBasis=   111 RedAO= T EigKep=  3.00D-04  NBF=   111
 NBsUse=   111 1.00D-06 EigRej= -1.00D+00 NBFU=   111
 Precomputing XC quadrature grid using
 IXCGrd= 4 IRadAn=           5 IRanWt=          -1 IRanGd=           0 AccXCQ= 0.00D+00.
 Generated NRdTot=       0 NPtTot=           0 NUsed=           0 NTot=          32
 NSgBfM=   117   117   117   117   117 MxSgAt=     9 MxSgA2=     9.
 Leave Link  302 at Mon Mar 21 19:57:30 2022, MaxMem=  8589934592 cpu:               1.1 elap:               0.2
 (Enter /home/sabyasachi/g16/l303.exe)
 DipDrv:  MaxL=1.
 Leave Link  303 at Mon Mar 21 19:57:30 2022, MaxMem=  8589934592 cpu:               0.2 elap:               0.0
 (Enter /home/sabyasachi/g16/l308.exe)
 Leave Link  308 at Mon Mar 21 19:57:30 2022, MaxMem=  8589934592 cpu:               0.2 elap:               0.1
 (Enter /home/sabyasachi/g16/l401.exe)
 ExpMin= 6.71D-02 ExpMax= 2.27D+03 ExpMxC= 3.41D+02 IAcc=3 IRadAn=         5 AccDes= 0.00D+00
 Harris functional with IExCor=  201 and IRadAn=       5 diagonalized for initial guess.
 HarFok:  IExCor=  201 AccDes= 0.00D+00 IRadAn=         5 IDoV= 1 UseB2=F ITyADJ=14
 ICtDFT=  3500011 ScaDFX=  1.000000  1.000000  1.000000  1.000000
 FoFCou: FMM=F IPFlag=           0 FMFlag=      100000 FMFlg1=           0
         NFxFlg=           0 DoJE=T BraDBF=F KetDBF=T FulRan=T
         wScrn=  0.000000 ICntrl=       500 IOpCl=  0 I1Cent=   200000004 NGrid=           0
         NMat0=    1 NMatS0=      1 NMatT0=    0 NMatD0=    1 NMtDS0=    0 NMtDT0=    0
 Petite list used in FoFCou.
 Harris En= -153.751563443084    
 JPrj=0 DoOrth=F DoCkMO=F.
 Leave Link  401 at Mon Mar 21 19:57:30 2022, MaxMem=  8589934592 cpu:               2.4 elap:               0.3
 (Enter /home/sabyasachi/g16/l502.exe)
 Keep J ints in memory in canonical form, NReq=26864148.
 FoFCou: FMM=F IPFlag=           0 FMFlag=           0 FMFlg1=           0
         NFxFlg=           0 DoJE=F BraDBF=F KetDBF=F FulRan=T
         wScrn=  0.000000 ICntrl=       600 IOpCl=  0 I1Cent=           0 NGrid=           0
         NMat0=    1 NMatS0=   6216 NMatT0=    0 NMatD0=    1 NMtDS0=    0 NMtDT0=    0
 Symmetry not used in FoFCou.
 Two-electron integral symmetry not used.
 Closed shell SCF:
 Using DIIS extrapolation, IDIIS=  1040.
 NGot=  8589934592 LenX=  8570582328 LenY=  8570568198
 Requested convergence on RMS density matrix=1.00D-08 within 100 cycles.
 Requested convergence on MAX density matrix=1.00D-06.
 Requested convergence on             energy=1.00D-06.
 No special actions if energy rises.
 Integral accuracy reduced to 1.0D-05 until final iterations.

 Cycle   1  Pass 0  IDiag  1:
 E= -153.512603406392    
 DIIS: error= 3.13D-02 at cycle   1 NSaved=   1.
 NSaved= 1 IEnMin= 1 EnMin= -153.512603406392     IErMin= 1 ErrMin= 3.13D-02
 ErrMax= 3.13D-02  0.00D+00 EMaxC= 1.00D-01 BMatC= 1.17D-01 BMatP= 1.17D-01
 IDIUse=3 WtCom= 6.87D-01 WtEn= 3.13D-01
 Coeff-Com:  0.100D+01
 Coeff-En:   0.100D+01
 Coeff:      0.100D+01
 Gap=     0.131 Goal=   None    Shift=    0.000
 GapD=    0.131 DampG=1.000 DampE=0.500 DampFc=0.5000 IDamp=-1.
 Damping current iteration by 5.00D-01
 RMSDP=7.86D-03 MaxDP=1.79D-01              OVMax= 2.27D-01

 Cycle   2  Pass 0  IDiag  1:
 E= -153.534853582650     Delta-E=       -0.022250176258 Rises=F Damp=T
 DIIS: error= 8.67D-03 at cycle   2 NSaved=   2.
 NSaved= 2 IEnMin= 2 EnMin= -153.534853582650     IErMin= 2 ErrMin= 8.67D-03
 ErrMax= 8.67D-03  0.00D+00 EMaxC= 1.00D-01 BMatC= 2.10D-02 BMatP= 1.17D-01
 IDIUse=3 WtCom= 9.13D-01 WtEn= 8.67D-02
 Coeff-Com:  0.279D+00 0.721D+00
 Coeff-En:   0.417D+00 0.583D+00
 Coeff:      0.291D+00 0.709D+00
 Gap=     0.232 Goal=   None    Shift=    0.000
 RMSDP=2.04D-03 MaxDP=3.34D-02 DE=-2.23D-02 OVMax= 1.64D-01

 Cycle   3  Pass 0  IDiag  1:
 E= -153.629396809499     Delta-E=       -0.094543226849 Rises=F Damp=F
 DIIS: error= 4.40D-03 at cycle   3 NSaved=   3.
 NSaved= 3 IEnMin= 3 EnMin= -153.629396809499     IErMin= 3 ErrMin= 4.40D-03
 ErrMax= 4.40D-03  0.00D+00 EMaxC= 1.00D-01 BMatC= 6.65D-03 BMatP= 2.10D-02
 IDIUse=3 WtCom= 9.56D-01 WtEn= 4.40D-02
 Coeff-Com:  0.146D+00 0.419D+00 0.435D+00
 Coeff-En:   0.000D+00 0.000D+00 0.100D+01
 Coeff:      0.139D+00 0.401D+00 0.460D+00
 Gap=     0.227 Goal=   None    Shift=    0.000
 RMSDP=8.46D-04 MaxDP=1.93D-02 DE=-9.45D-02 OVMax= 2.19D-02

 Cycle   4  Pass 0  IDiag  1:
 E= -153.634204621924     Delta-E=       -0.004807812425 Rises=F Damp=F
 DIIS: error= 1.69D-03 at cycle   4 NSaved=   4.
 NSaved= 4 IEnMin= 4 EnMin= -153.634204621924     IErMin= 4 ErrMin= 1.69D-03
 ErrMax= 1.69D-03  0.00D+00 EMaxC= 1.00D-01 BMatC= 8.63D-04 BMatP= 6.65D-03
 IDIUse=3 WtCom= 9.83D-01 WtEn= 1.69D-02
 Coeff-Com:  0.387D-01 0.126D+00 0.279D+00 0.556D+00
 Coeff-En:   0.000D+00 0.000D+00 0.120D+00 0.880D+00
 Coeff:      0.381D-01 0.124D+00 0.276D+00 0.562D+00
 Gap=     0.228 Goal=   None    Shift=    0.000
 RMSDP=2.86D-04 MaxDP=5.15D-03 DE=-4.81D-03 OVMax= 6.11D-03

 Cycle   5  Pass 0  IDiag  1:
 E= -153.634919749786     Delta-E=       -0.000715127862 Rises=F Damp=F
 DIIS: error= 2.76D-04 at cycle   5 NSaved=   5.
 NSaved= 5 IEnMin= 5 EnMin= -153.634919749786     IErMin= 5 ErrMin= 2.76D-04
 ErrMax= 2.76D-04  0.00D+00 EMaxC= 1.00D-01 BMatC= 1.60D-05 BMatP= 8.63D-04
 IDIUse=3 WtCom= 9.97D-01 WtEn= 2.76D-03
 Coeff-Com:  0.268D-02 0.145D-01 0.629D-01 0.200D+00 0.720D+00
 Coeff-En:   0.000D+00 0.000D+00 0.000D+00 0.000D+00 0.100D+01
 Coeff:      0.268D-02 0.145D-01 0.628D-01 0.199D+00 0.721D+00
 Gap=     0.228 Goal=   None    Shift=    0.000
 RMSDP=6.53D-05 MaxDP=1.04D-03 DE=-7.15D-04 OVMax= 1.11D-03

 Cycle   6  Pass 0  IDiag  1:
 E= -153.634931247514     Delta-E=       -0.000011497728 Rises=F Damp=F
 DIIS: error= 1.07D-04 at cycle   6 NSaved=   6.
 NSaved= 6 IEnMin= 6 EnMin= -153.634931247514     IErMin= 6 ErrMin= 1.07D-04
 ErrMax= 1.07D-04  0.00D+00 EMaxC= 1.00D-01 BMatC= 2.63D-06 BMatP= 1.60D-05
 IDIUse=3 WtCom= 9.99D-01 WtEn= 1.07D-03
 Coeff-Com:  0.154D-03 0.300D-02 0.231D-01 0.869D-01 0.404D+00 0.483D+00
 Coeff-En:   0.000D+00 0.000D+00 0.000D+00 0.000D+00 0.563D-01 0.944D+00
 Coeff:      0.154D-03 0.300D-02 0.230D-01 0.868D-01 0.403D+00 0.484D+00
 Gap=     0.228 Goal=   None    Shift=    0.000
 RMSDP=1.78D-05 MaxDP=5.39D-04 DE=-1.15D-05 OVMax= 3.74D-04

 Cycle   7  Pass 0  IDiag  1:
 E= -153.634933731957     Delta-E=       -0.000002484442 Rises=F Damp=F
 DIIS: error= 1.84D-05 at cycle   7 NSaved=   7.
 NSaved= 7 IEnMin= 7 EnMin= -153.634933731957     IErMin= 7 ErrMin= 1.84D-05
 ErrMax= 1.84D-05  0.00D+00 EMaxC= 1.00D-01 BMatC= 8.52D-08 BMatP= 2.63D-06
 IDIUse=1 WtCom= 1.00D+00 WtEn= 0.00D+00
 Coeff-Com: -0.948D-05 0.214D-03 0.566D-02 0.234D-01 0.122D+00 0.210D+00
 Coeff-Com:  0.639D+00
 Coeff:     -0.948D-05 0.214D-03 0.566D-02 0.234D-01 0.122D+00 0.210D+00
 Coeff:      0.639D+00
 Gap=     0.228 Goal=   None    Shift=    0.000
 RMSDP=4.12D-06 MaxDP=7.26D-05 DE=-2.48D-06 OVMax= 8.61D-05

 Initial convergence to 1.0D-05 achieved.  Increase integral accuracy.
 Cycle   8  Pass 1  IDiag  1:
 E= -153.634939433800     Delta-E=       -0.000005701843 Rises=F Damp=F
 DIIS: error= 4.93D-06 at cycle   1 NSaved=   1.
 NSaved= 1 IEnMin= 1 EnMin= -153.634939433800     IErMin= 1 ErrMin= 4.93D-06
 ErrMax= 4.93D-06  0.00D+00 EMaxC= 1.00D-01 BMatC= 4.73D-09 BMatP= 4.73D-09
 IDIUse=1 WtCom= 1.00D+00 WtEn= 0.00D+00
 Coeff-Com:  0.100D+01
 Coeff:      0.100D+01
 Gap=     0.228 Goal=   None    Shift=    0.000
 RMSDP=4.12D-06 MaxDP=7.26D-05 DE=-5.70D-06 OVMax= 3.90D-05

 Cycle   9  Pass 1  IDiag  1:
 E= -153.634939431570     Delta-E=        0.000000002230 Rises=F Damp=F
 DIIS: error= 5.29D-06 at cycle   2 NSaved=   2.
 NSaved= 2 IEnMin= 1 EnMin= -153.634939433800     IErMin= 1 ErrMin= 4.93D-06
 ErrMax= 5.29D-06  0.00D+00 EMaxC= 1.00D-01 BMatC= 8.33D-09 BMatP= 4.73D-09
 IDIUse=1 WtCom= 1.00D+00 WtEn= 0.00D+00
 Coeff-Com:  0.575D+00 0.425D+00
 Coeff:      0.575D+00 0.425D+00
 Gap=     0.228 Goal=   None    Shift=    0.000
 RMSDP=9.13D-07 MaxDP=1.87D-05 DE= 2.23D-09 OVMax= 2.43D-05

 Cycle  10  Pass 1  IDiag  1:
 E= -153.634939438791     Delta-E=       -0.000000007221 Rises=F Damp=F
 DIIS: error= 1.42D-06 at cycle   3 NSaved=   3.
 NSaved= 3 IEnMin= 3 EnMin= -153.634939438791     IErMin= 3 ErrMin= 1.42D-06
 ErrMax= 1.42D-06  0.00D+00 EMaxC= 1.00D-01 BMatC= 6.46D-10 BMatP= 4.73D-09
 IDIUse=1 WtCom= 1.00D+00 WtEn= 0.00D+00
 Coeff-Com:  0.273D+00 0.257D+00 0.470D+00
 Coeff:      0.273D+00 0.257D+00 0.470D+00
 Gap=     0.228 Goal=   None    Shift=    0.000
 RMSDP=2.34D-07 MaxDP=5.81D-06 DE=-7.22D-09 OVMax= 6.33D-06

 Cycle  11  Pass 1  IDiag  1:
 E= -153.634939439252     Delta-E=       -0.000000000461 Rises=F Damp=F
 DIIS: error= 3.17D-07 at cycle   4 NSaved=   4.
 NSaved= 4 IEnMin= 4 EnMin= -153.634939439252     IErMin= 4 ErrMin= 3.17D-07
 ErrMax= 3.17D-07  0.00D+00 EMaxC= 1.00D-01 BMatC= 3.25D-11 BMatP= 6.46D-10
 IDIUse=1 WtCom= 1.00D+00 WtEn= 0.00D+00
 Coeff-Com:  0.727D-01 0.785D-01 0.231D+00 0.617D+00
 Coeff:      0.727D-01 0.785D-01 0.231D+00 0.617D+00
 Gap=     0.228 Goal=   None    Shift=    0.000
 RMSDP=6.90D-08 MaxDP=1.84D-06 DE=-4.61D-10 OVMax= 1.62D-06

 Cycle  12  Pass 1  IDiag  1:
 E= -153.634939439273     Delta-E=       -0.000000000021 Rises=F Damp=F
 DIIS: error= 1.66D-07 at cycle   5 NSaved=   5.
 NSaved= 5 IEnMin= 5 EnMin= -153.634939439273     IErMin= 5 ErrMin= 1.66D-07
 ErrMax= 1.66D-07  0.00D+00 EMaxC= 1.00D-01 BMatC= 6.13D-12 BMatP= 3.25D-11
 IDIUse=1 WtCom= 1.00D+00 WtEn= 0.00D+00
 Coeff-Com:  0.847D-02 0.139D-01 0.769D-01 0.367D+00 0.534D+00
 Coeff:      0.847D-02 0.139D-01 0.769D-01 0.367D+00 0.534D+00
 Gap=     0.228 Goal=   None    Shift=    0.000
 RMSDP=2.80D-08 MaxDP=7.32D-07 DE=-2.09D-11 OVMax= 7.15D-07

 Cycle  13  Pass 1  IDiag  1:
 E= -153.634939439278     Delta-E=       -0.000000000005 Rises=F Damp=F
 DIIS: error= 1.77D-08 at cycle   6 NSaved=   6.
 NSaved= 6 IEnMin= 6 EnMin= -153.634939439278     IErMin= 6 ErrMin= 1.77D-08
 ErrMax= 1.77D-08  0.00D+00 EMaxC= 1.00D-01 BMatC= 6.53D-14 BMatP= 6.13D-12
 IDIUse=1 WtCom= 1.00D+00 WtEn= 0.00D+00
 Coeff-Com:  0.308D-03 0.211D-02 0.192D-01 0.109D+00 0.195D+00 0.674D+00
 Coeff:      0.308D-03 0.211D-02 0.192D-01 0.109D+00 0.195D+00 0.674D+00
 Gap=     0.228 Goal=   None    Shift=    0.000
 RMSDP=3.60D-09 MaxDP=4.65D-08 DE=-5.40D-12 OVMax= 6.93D-08

 SCF Done:  E(RS-VWN5) =  -153.634939439     A.U. after   13 cycles
            NFock= 13  Conv=0.36D-08     -V/T= 2.0059
 KE= 1.527340104111D+02 PE=-5.242462333193D+02 EE= 1.359669663047D+02
 Leave Link  502 at Mon Mar 21 19:57:33 2022, MaxMem=  8589934592 cpu:              16.0 elap:               2.3
 (Enter /home/sabyasachi/g16/l801.exe)
 DoSCS=F DFT=T ScalE2(SS,OS)=  1.000000  1.000000
 ExpMin= 6.71D-02 ExpMax= 2.27D+03 ExpMxC= 3.41D+02 IAcc=3 IRadAn=         5 AccDes= 0.00D+00
 HarFok:  IExCor=  205 AccDes= 0.00D+00 IRadAn=         5 IDoV=-2 UseB2=F ITyADJ=14
 ICtDFT= 12500011 ScaDFX=  1.000000  1.000000  1.000000  1.000000
 Largest valence mixing into a core orbital is  7.89D-05
 Largest core mixing into a valence orbital is  2.17D-06
 Range of M.O.s used for correlation:     4   111
 NBasis=   111 NAE=    13 NBE=    13 NFC=     3 NFV=     0
 NROrb=    108 NOA=    10 NOB=    10 NVA=    98 NVB=    98

 **** Warning!!: The largest alpha MO coefficient is  0.23144810D+02

 Leave Link  801 at Mon Mar 21 19:57:33 2022, MaxMem=  8589934592 cpu:               0.6 elap:               0.1
 (Enter /home/sabyasachi/g16/l914.exe)
 RHF ground state
 Keep J ints in memory in canonical form, NReq=1089016640.
 FoFCou: FMM=F IPFlag=           0 FMFlag=           0 FMFlg1=           0
         NFxFlg=           0 DoJE=F BraDBF=F KetDBF=F FulRan=T
         wScrn=  0.000000 ICntrl=       600 IOpCl=  0 I1Cent=           0 NGrid=           0
         NMat0=    1 NMatS0=   6216 NMatT0=    0 NMatD0=    1 NMtDS0=    0 NMtDT0=    0
 Symmetry not used in FoFCou.
 Two-electron integral symmetry not used.
 MDV=  8589934592 DFT=T DoStab=F Mixed=F DoRPA=T DoScal=T NonHer=F
 Making orbital integer symmetry assigments:
 Orbital symmetries:
       Occupied  (A) (A) (A) (A) (A) (A) (A) (A) (A) (A) (A) (A)
                 (A)
       Virtual   (A) (A) (A) (A) (A) (A) (A) (A) (A) (A) (A) (A)
                 (A) (A) (A) (A) (A) (A) (A) (A) (A) (A) (A) (A)
                 (A) (A) (A) (A) (A) (A) (A) (A) (A) (A) (A) (A)
                 (A) (A) (A) (A) (A) (A) (A) (A) (A) (A) (A) (A)
                 (A) (A) (A) (A) (A) (A) (A) (A) (A) (A) (A) (A)
                 (A) (A) (A) (A) (A) (A) (A) (A) (A) (A) (A) (A)
                 (A) (A) (A) (A) (A) (A) (A) (A) (A) (A) (A) (A)
                 (A) (A) (A) (A) (A) (A) (A) (A) (A) (A) (A) (A)
                 (A) (A)
   980 initial guesses have been made.
 Convergence on wavefunction:    0.001000000000000
 Davidson Disk Diagonalization:  ConvIn= 1.00D-03 SkipCon=T Conv= 1.00D-03.
 Max sub-space:  3920 roots to seek:  1960 dimension of matrix:         1960
 *** WARNING: Number of orthogonal guesses is          980
 Iteration     1 Dimension   980 NMult     0 NNew    980
 CISAX will form   980 AO SS matrices at one time.
 NMat=   980 NSing=   980 JSym2X= 0.
 New state      9 was old state     10
 New state     10 was old state      9
 New state     15 was old state     16
 New state     16 was old state     15
 New state     22 was old state     23
 New state     23 was old state     24
 New state     24 was old state     22
 New state     30 was old state     31
 New state     31 was old state     30
 New state     34 was old state     35
 New state     35 was old state     34
 New state     36 was old state     38
 New state     37 was old state     36
 New state     38 was old state     37
 New state     39 was old state     40
 New state     40 was old state     39
 New state     42 was old state     43
 New state     43 was old state     42
 New state     44 was old state     45
 New state     45 was old state     44
 New state     49 was old state     51
 New state     51 was old state     49
 New state     54 was old state     55
 New state     55 was old state     54
 New state     59 was old state     60
 New state     60 was old state     62
 New state     62 was old state     63
 New state     63 was old state     64
 New state     64 was old state     66
 New state     65 was old state     68
 New state     66 was old state     69
 New state     67 was old state     70
 New state     68 was old state     67
 New state     69 was old state     71
 New state     70 was old state     72
 New state     71 was old state     74
 New state     72 was old state     73
 New state     73 was old state     79
 New state     74 was old state     80
 New state     75 was old state     76
 New state     76 was old state     77
 New state     77 was old state     75
 New state     78 was old state     81
 New state     79 was old state     78
 New state     80 was old state     83
 New state     81 was old state     82
 New state     82 was old state     87
 New state     83 was old state     84
 New state     84 was old state     85
 New state     85 was old state     86
 New state     86 was old state     91
 New state     87 was old state     89
 New state     88 was old state     90
 New state     89 was old state     88
 New state     90 was old state     94
 New state     91 was old state     93
 New state     93 was old state     95
 New state     94 was old state     96
 New state     95 was old state     99
 New state     96 was old state     98
 New state     97 was old state    100
 New state     98 was old state     97
 New state     99 was old state    101
 New state    100 was old state    103
 New state    101 was old state    105
 New state    102 was old state    104
 New state    103 was old state    102
 New state    104 was old state    106
 New state    105 was old state    112
 New state    106 was old state    107
 New state    107 was old state    108
 New state    108 was old state    113
 New state    110 was old state    111
 New state    111 was old state    110
 New state    112 was old state    114
 New state    113 was old state    115
 New state    114 was old state    118
 New state    115 was old state    116
 New state    116 was old state    120
 New state    118 was old state    119
 New state    119 was old state    122
 New state    120 was old state    121
 New state    121 was old state    123
 New state    122 was old state    130
 New state    123 was old state    124
 New state    124 was old state    125
 New state    125 was old state    126
 New state    126 was old state    128
 New state    128 was old state    132
 New state    129 was old state    131
 New state    130 was old state    129
 New state    131 was old state    137
 New state    132 was old state    133
 New state    133 was old state    135
 New state    134 was old state    136
 New state    135 was old state    138
 New state    136 was old state    134
 New state    137 was old state    139
 New state    138 was old state    141
 New state    139 was old state    144
 No map to state    141
 New state    143 was old state    146
 New state    144 was old state    145
 New state    145 was old state    143
 New state    146 was old state    147
 New state    147 was old state    149
 New state    148 was old state    153
 New state    149 was old state    150
 New state    150 was old state    152
 New state    151 was old state    148
 New state    152 was old state    151
 New state    153 was old state    154
 New state    154 was old state    155
 New state    155 was old state    156
 New state    156 was old state    158
 New state    158 was old state    159
 New state    159 was old state    160
 New state    160 was old state    161
 New state    161 was old state    164
 New state    164 was old state    165
 New state    165 was old state    167
 New state    166 was old state    170
 New state    167 was old state    169
 New state    168 was old state    171
 New state    169 was old state    168
 New state    170 was old state    172
 New state    171 was old state    166
 New state    172 was old state    182
 New state    173 was old state    176
 New state    175 was old state    180
 New state    176 was old state    178
 New state    178 was old state    175
 New state    179 was old state    181
 New state    180 was old state    179
 New state    181 was old state    185
 New state    182 was old state    183
 New state    183 was old state    186
 New state    184 was old state    190
 New state    185 was old state    189
 New state    186 was old state    184
 New state    187 was old state    173
 New state    188 was old state    187
 New state    189 was old state    188
 New state    190 was old state    191
 New state    191 was old state    194
 New state    194 was old state    195
 New state    195 was old state    200
 New state    196 was old state    197
 New state    197 was old state    196
 New state    198 was old state    201
 New state    199 was old state    202
 New state    200 was old state    199
 New state    201 was old state    203
 New state    202 was old state    198
 New state    203 was old state    205
 New state    204 was old state    206
 New state    205 was old state    207
 New state    206 was old state    209
 New state    207 was old state    210
 New state    209 was old state    204
 New state    210 was old state    212
 New state    211 was old state    217
 New state    212 was old state    214
 New state    213 was old state    216
 New state    214 was old state    211
 New state    215 was old state    219
 New state    216 was old state    213
 New state    217 was old state    220
 New state    219 was old state    222
 New state    220 was old state    223
 New state    222 was old state    227
 New state    223 was old state    229
 New state    225 was old state    230
 New state    226 was old state    225
 New state    227 was old state    228
 New state    228 was old state    226
 New state    229 was old state    232
 New state    230 was old state    235
 New state    232 was old state    233
 New state    233 was old state    238
 New state    234 was old state    236
 New state    235 was old state    237
 New state    236 was old state    240
 New state    237 was old state    239
 New state    238 was old state    242
 New state    239 was old state    243
 New state    240 was old state    248
 New state    242 was old state    246
 New state    243 was old state    244
 New state    244 was old state    245
 New state    245 was old state    250
 New state    246 was old state    247
 New state    247 was old state    252
 New state    248 was old state    254
 New state    249 was old state    253
 New state    250 was old state    249
 New state    251 was old state    256
 New state    252 was old state    251
 New state    253 was old state    257
 New state    254 was old state    261
 New state    255 was old state    262
 New state    256 was old state    258
 New state    257 was old state    259
 New state    258 was old state    266
 New state    259 was old state    255
 New state    260 was old state    264
 New state    261 was old state    263
 New state    262 was old state    267
 New state    263 was old state    271
 New state    264 was old state    269
 New state    266 was old state    270
 New state    267 was old state    268
 New state    268 was old state    274
 New state    269 was old state    272
 New state    270 was old state    273
 New state    271 was old state    276
 New state    272 was old state    277
 New state    273 was old state    281
 New state    274 was old state    278
 New state    275 was old state    280
 New state    276 was old state    275
 New state    277 was old state    283
 New state    278 was old state    282
 New state    280 was old state    285
 New state    281 was old state    284
 New state    282 was old state    286
 New state    283 was old state    289
 New state    284 was old state    292
 New state    285 was old state    287
 New state    286 was old state    288
 New state    287 was old state    290
 New state    288 was old state    291
 New state    289 was old state    293
 New state    290 was old state    298
 New state    291 was old state    294
 New state    292 was old state    297
 New state    293 was old state    296
 New state    294 was old state    300
 New state    295 was old state    299
 New state    296 was old state    305
 New state    297 was old state    295
 New state    298 was old state    302
 New state    299 was old state    304
 New state    300 was old state    301
 New state    301 was old state    306
 New state    302 was old state    307
 New state    304 was old state    311
 New state    305 was old state    310
 New state    306 was old state    309
 New state    307 was old state    308
 New state    308 was old state    313
 New state    309 was old state    314
 New state    310 was old state    312
 New state    311 was old state    315
 New state    312 was old state    317
 New state    313 was old state    319
 New state    314 was old state    316
 New state    315 was old state    320
 New state    316 was old state    318
 New state    317 was old state    323
 New state    318 was old state    328
 New state    319 was old state    321
 New state    320 was old state    324
 New state    321 was old state    322
 New state    322 was old state    325
 New state    323 was old state    326
 New state    324 was old state    339
 New state    325 was old state    327
 New state    326 was old state    333
 New state    327 was old state    332
 New state    328 was old state    329
 New state    329 was old state    334
 New state    330 was old state    335
 New state    331 was old state    338
 New state    332 was old state    342
 New state    333 was old state    337
 New state    334 was old state    330
 New state    335 was old state    331
 New state    337 was old state    343
 New state    338 was old state    341
 New state    339 was old state    340
 New state    340 was old state    344
 New state    341 was old state    348
 New state    342 was old state    351
 New state    343 was old state    345
 New state    344 was old state    354
 New state    345 was old state    349
 New state    346 was old state    347
 New state    347 was old state    352
 New state    348 was old state    353
 New state    349 was old state    350
 New state    350 was old state    355
 New state    351 was old state    356
 New state    352 was old state    358
 New state    353 was old state    362
 New state    354 was old state    359
 New state    355 was old state    357
 New state    356 was old state    360
 New state    357 was old state    364
 New state    358 was old state    366
 New state    359 was old state    361
 New state    360 was old state    365
 New state    361 was old state    363
 No map to state    362
 New state    363 was old state    367
 New state    364 was old state    368
 New state    365 was old state    370
 New state    366 was old state    369
 New state    367 was old state    372
 New state    368 was old state    346
 New state    369 was old state    374
 New state    370 was old state    380
 New state    372 was old state    375
 New state    373 was old state    377
 New state    374 was old state    376
 New state    375 was old state    373
 New state    376 was old state    383
 New state    377 was old state    378
 New state    378 was old state    379
 New state    379 was old state    381
 New state    380 was old state    382
 New state    381 was old state    385
 New state    382 was old state    384
 New state    383 was old state    391
 New state    384 was old state    386
 New state    385 was old state    389
 New state    386 was old state    387
 New state    387 was old state    390
 New state    389 was old state    392
 New state    390 was old state    397
 New state    391 was old state    396
 New state    392 was old state    393
 New state    393 was old state    394
 New state    394 was old state    395
 New state    395 was old state    398
 New state    396 was old state    408
 New state    397 was old state    403
 New state    398 was old state    399
 New state    399 was old state    401
 New state    401 was old state    402
 New state    402 was old state    404
 New state    403 was old state    405
 New state    404 was old state    407
 New state    405 was old state    406
 New state    406 was old state    410
 New state    407 was old state    409
 New state    408 was old state    411
 New state    409 was old state    412
 New state    410 was old state    416
 New state    411 was old state    417
 New state    412 was old state    414
 New state    413 was old state    415
 New state    414 was old state    413
 New state    415 was old state    419
 New state    416 was old state    418
 New state    417 was old state    423
 New state    418 was old state    420
 New state    419 was old state    421
 New state    420 was old state    425
 No map to state    421
 New state    422 was old state    424
 New state    423 was old state    422
 No map to state    424
 New state    425 was old state    428
 New state    426 was old state    427
 New state    427 was old state    429
 New state    428 was old state    434
 New state    429 was old state    426
 New state    431 was old state    433
 New state    432 was old state    431
 New state    433 was old state    435
 New state    434 was old state    432
 New state    435 was old state    437
 New state    437 was old state    439
 New state    438 was old state    440
 New state    439 was old state    443
 New state    440 was old state    442
 New state    441 was old state    445
 New state    442 was old state    441
 New state    443 was old state    446
 New state    444 was old state    438
 New state    445 was old state    449
 New state    446 was old state    448
 New state    448 was old state    451
 New state    449 was old state    450
 New state    450 was old state    452
 New state    451 was old state    458
 New state    452 was old state    453
 New state    453 was old state    455
 New state    454 was old state    456
 New state    455 was old state    454
 New state    456 was old state    457
 New state    457 was old state    459
 New state    458 was old state    460
 New state    459 was old state    464
 New state    460 was old state    463
 New state    463 was old state    444
 New state    464 was old state    466
 New state    466 was old state    468
 New state    468 was old state    469
 New state    469 was old state    471
 New state    471 was old state    472
 New state    472 was old state    473
 New state    473 was old state    475
 New state    475 was old state    477
 New state    476 was old state    479
 New state    477 was old state    478
 New state    478 was old state    480
 New state    479 was old state    482
 New state    480 was old state    481
 New state    481 was old state    483
 New state    482 was old state    484
 New state    483 was old state    485
 New state    484 was old state    487
 New state    485 was old state    486
 New state    486 was old state    488
 New state    487 was old state    490
 New state    488 was old state    489
 New state    489 was old state    493
 New state    490 was old state    492
 New state    492 was old state    494
 New state    493 was old state    496
 New state    494 was old state    495
 New state    495 was old state    500
 New state    496 was old state    503
 New state    498 was old state    499
 New state    499 was old state    502
 New state    500 was old state    504
 New state    502 was old state    498
 New state    503 was old state    509
 New state    504 was old state    505
 New state    505 was old state    506
 New state    506 was old state    508
 New state    508 was old state    510
 New state    509 was old state    512
 New state    510 was old state    513
 New state    512 was old state    517
 New state    513 was old state    514
 New state    514 was old state    515
 New state    515 was old state    516
 New state    516 was old state    518
 New state    517 was old state    519
 New state    518 was old state    520
 New state    519 was old state    521
 New state    520 was old state    525
 New state    521 was old state    527
 New state    522 was old state    523
 New state    523 was old state    522
 New state    525 was old state    526
 New state    526 was old state    528
 New state    527 was old state    530
 New state    528 was old state    529
 New state    529 was old state    536
 New state    530 was old state    531
 New state    531 was old state    532
 New state    532 was old state    534
 New state    534 was old state    535
 New state    535 was old state    539
 New state    536 was old state    538
 New state    538 was old state    544
 New state    539 was old state    540
 New state    540 was old state    541
 New state    541 was old state    542
 New state    542 was old state    547
 New state    543 was old state    545
 New state    544 was old state    549
 New state    545 was old state    546
 New state    546 was old state    548
 New state    547 was old state    543
 New state    548 was old state    552
 New state    549 was old state    553
 New state    550 was old state    551
 New state    551 was old state    550
 New state    552 was old state    554
 New state    553 was old state    555
 New state    554 was old state    556
 New state    555 was old state    557
 New state    556 was old state    559
 New state    557 was old state    562
 New state    559 was old state    560
 New state    560 was old state    561
 New state    561 was old state    563
 New state    562 was old state    565
 New state    563 was old state    564
 New state    564 was old state    567
 New state    565 was old state    566
 New state    566 was old state    568
 New state    567 was old state    574
 New state    568 was old state    569
 New state    569 was old state    572
 New state    572 was old state    573
 New state    573 was old state    575
 No map to state    574
 New state    575 was old state    576
 New state    576 was old state    579
 New state    579 was old state    580
 New state    580 was old state    581
 New state    581 was old state    582
 New state    582 was old state    585
 New state    585 was old state    586
 New state    586 was old state    587
 New state    587 was old state    588
 New state    588 was old state    589
 New state    589 was old state    592
 New state    590 was old state    593
 New state    592 was old state    590
 New state    593 was old state    599
 New state    594 was old state    595
 New state    595 was old state    597
 New state    597 was old state    601
 New state    599 was old state    600
 New state    600 was old state    604
 New state    601 was old state    602
 New state    602 was old state    605
 New state    603 was old state    610
 New state    604 was old state    603
 New state    605 was old state    606
 New state    606 was old state    607
 New state    607 was old state    608
 New state    608 was old state    609
 New state    609 was old state    613
 New state    610 was old state    618
 New state    611 was old state    612
 New state    612 was old state    611
 New state    613 was old state    615
 New state    615 was old state    617
 New state    616 was old state    621
 New state    617 was old state    619
 New state    618 was old state    616
 New state    619 was old state    620
 New state    620 was old state    622
 New state    621 was old state    626
 New state    622 was old state    623
 New state    623 was old state    624
 New state    624 was old state    625
 New state    625 was old state    628
 New state    626 was old state    631
 New state    628 was old state    630
 New state    630 was old state    632
 New state    631 was old state    633
 New state    632 was old state    634
 New state    633 was old state    635
 New state    634 was old state    636
 New state    635 was old state    637
 No map to state    636
 New state    637 was old state    639
 New state    639 was old state    640
 New state    640 was old state    643
 New state    643 was old state    646
 New state    644 was old state    647
 New state    646 was old state    644
 New state    647 was old state    648
 New state    648 was old state    649
 New state    649 was old state    650
 New state    650 was old state    657
 New state    655 was old state    656
 New state    656 was old state    655
 New state    657 was old state    659
 New state    659 was old state    661
 New state    661 was old state    662
 New state    662 was old state    663
 New state    663 was old state    664
 New state    664 was old state    667
 New state    666 was old state    668
 New state    667 was old state    669
 New state    668 was old state    666
 New state    669 was old state    670
 New state    670 was old state    671
 New state    671 was old state    672
 New state    672 was old state    673
 New state    673 was old state    675
 New state    675 was old state    676
 New state    676 was old state    677
 New state    677 was old state    678
 New state    678 was old state    679
 New state    679 was old state    682
 New state    680 was old state    683
 New state    682 was old state    680
 New state    683 was old state    689
 New state    687 was old state    690
 New state    689 was old state    693
 New state    690 was old state    691
 New state    691 was old state    692
 New state    692 was old state    700
 New state    693 was old state    694
 New state    694 was old state    698
 New state    695 was old state    697
 New state    697 was old state    695
 New state    698 was old state    699
 New state    699 was old state    701
 New state    700 was old state    702
 New state    701 was old state    703
 New state    702 was old state    704
 New state    703 was old state    705
 New state    704 was old state    715
 New state    705 was old state    706
 New state    706 was old state    707
 New state    707 was old state    708
 New state    708 was old state    710
 New state    709 was old state    711
 New state    710 was old state    709
 New state    711 was old state    713
 New state    713 was old state    714
 New state    714 was old state    717
 New state    715 was old state    716
 New state    716 was old state    720
 New state    717 was old state    719
 New state    719 was old state    725
 New state    720 was old state    722
 New state    721 was old state    729
 New state    722 was old state    721
 New state    723 was old state    724
 New state    724 was old state    723
 New state    725 was old state    726
 New state    726 was old state    728
 New state    727 was old state    730
 New state    728 was old state    727
 New state    729 was old state    731
 New state    730 was old state    732
 New state    731 was old state    734
 New state    732 was old state    735
 New state    734 was old state    736
 New state    735 was old state    738
 New state    736 was old state    745
 New state    738 was old state    741
 New state    740 was old state    742
 New state    741 was old state    744
 New state    742 was old state    740
 New state    743 was old state    746
 New state    744 was old state    749
 New state    745 was old state    747
 New state    746 was old state    743
 New state    747 was old state    748
 New state    748 was old state    750
 New state    749 was old state    751
 New state    750 was old state    752
 New state    751 was old state    753
 New state    752 was old state    754
 New state    753 was old state    755
 New state    754 was old state    758
 New state    755 was old state    757
 New state    756 was old state    760
 New state    757 was old state    756
 New state    758 was old state    759
 New state    759 was old state    761
 New state    760 was old state    762
 New state    761 was old state    766
 New state    762 was old state    764
 New state    764 was old state    765
 New state    765 was old state    769
 New state    766 was old state    767
 New state    767 was old state    771
 No map to state    769
 New state    771 was old state    772
 New state    772 was old state    773
 New state    773 was old state    774
 New state    774 was old state    775
 New state    775 was old state    776
 New state    776 was old state    781
 New state    777 was old state    779
 New state    778 was old state    777
 New state    779 was old state    780
 New state    780 was old state    778
 New state    781 was old state    782
 New state    782 was old state    784
 New state    784 was old state    785
 New state    785 was old state    789
 New state    786 was old state    788
 New state    788 was old state    791
 New state    789 was old state    786
 New state    791 was old state    792
 New state    792 was old state    793
 New state    793 was old state    795
 New state    795 was old state    797
 New state    797 was old state    800
 New state    800 was old state    801
 New state    801 was old state    802
 New state    802 was old state    803
 No map to state    803
 New state    804 was old state    805
 New state    805 was old state    804
 New state    812 was old state    813
 New state    813 was old state    812
 New state    818 was old state    819
 New state    819 was old state    818
 New state    822 was old state    823
 New state    823 was old state    825
 New state    825 was old state    826
 New state    826 was old state    827
 New state    827 was old state    828
 New state    828 was old state    830
 New state    829 was old state    832
 New state    830 was old state    829
 New state    832 was old state    833
 New state    833 was old state    834
 New state    834 was old state    835
 New state    835 was old state    840
 New state    840 was old state    842
 New state    842 was old state    843
 New state    843 was old state    845
 New state    845 was old state    848
 New state    847 was old state    851
 New state    848 was old state    847
 New state    849 was old state    850
 New state    850 was old state    849
 New state    851 was old state    852
 No map to state    852
 New state    855 was old state    856
 New state    856 was old state    855
 New state    859 was old state    861
 New state    860 was old state    859
 New state    861 was old state    860
 New state    873 was old state    874
 New state    874 was old state    873
 New state    878 was old state    879
 New state    879 was old state    880
 New state    880 was old state    881
 New state    881 was old state    878
 New state    882 was old state    883
 New state    883 was old state    884
 New state    884 was old state    882
 New state    885 was old state    886
 New state    886 was old state    887
 New state    887 was old state    885
 New state    890 was old state    891
 New state    891 was old state    890
 New state    892 was old state    893
 New state    893 was old state    892
 New state    894 was old state    895
 New state    895 was old state    894
 New state    896 was old state    897
 New state    897 was old state    896
 New state    899 was old state    901
 New state    901 was old state    903
 New state    903 was old state    899
 New state    904 was old state    906
 New state    906 was old state    908
 New state    908 was old state    909
 New state    909 was old state    904
 New state    910 was old state    911
 New state    911 was old state    910
 New state    912 was old state    914
 New state    913 was old state    912
 New state    914 was old state    915
 New state    915 was old state    916
 New state    916 was old state    913
 New state    917 was old state    918
 New state    918 was old state    917
 New state    922 was old state    923
 New state    923 was old state    922
 New state    924 was old state    925
 New state    925 was old state    927
 New state    926 was old state    924
 New state    927 was old state    929
 New state    928 was old state    930
 New state    929 was old state    931
 New state    930 was old state    928
 New state    931 was old state    934
 New state    933 was old state    935
 New state    934 was old state    936
 New state    935 was old state    933
 New state    936 was old state    940
 New state    940 was old state    942
 New state    942 was old state    943
 New state    943 was old state    944
 New state    944 was old state    926
 New state    946 was old state    947
 New state    947 was old state    948
 New state    948 was old state    949
 New state    949 was old state    950
 New state    950 was old state    951
 New state    951 was old state    952
 New state    952 was old state    946
 New state    969 was old state    970
 New state    970 was old state    969
 New state    972 was old state    973
 New state    973 was old state    972
 Excitation Energies [eV] at current iteration:
 Root      1 :     6.265172269932271
 Root      2 :     7.189134093030428
 Root      3 :     7.506033791195909
 Root      4 :     7.627246967351901
 Root      5 :     8.057564245036144
 Root      6 :     8.531746453223455
 Root      7 :     8.608002854011421
 Root      8 :     8.870865878692859
 Root      9 :     8.900281987555788
 Root     10 :     8.928622723539672
 Root     11 :     9.095827361862051
 Root     12 :     9.186473849782386
 Root     13 :     9.428970567849813
 Root     14 :     9.483595673870612
 Root     15 :     9.789567692987253
 Root     16 :     9.832195560093512
 Root     17 :     9.982779939373710
 Root     18 :    10.003525467489640
 Root     19 :    10.072162779716270
 Root     20 :    10.186286773559060
 Root     21 :    10.261148637396220
 Root     22 :    10.446201031422200
 Root     23 :    10.492189918106260
 Root     24 :    10.527245120024330
 Root     25 :    10.579516279213340
 Root     26 :    10.726327123718080
 Root     27 :    10.869124453061980
 Root     28 :    10.918595333463480
 Root     29 :    10.980983301617570
 Root     30 :    11.148270938886180
 Root     31 :    11.167778271925090
 Root     32 :    11.338536465415520
 Root     33 :    11.395415804786780
 Root     34 :    11.439990045905040
 Root     35 :    11.477921871579240
 Root     36 :    11.503783834924070
 Root     37 :    11.527002301434040
 Root     38 :    11.648041052829440
 Root     39 :    11.747330728528490
 Root     40 :    11.796020896792920
 Root     41 :    11.837595945138170
 Root     42 :    11.892331321920640
 Root     43 :    11.948495106847570
 Root     44 :    12.048368271249680
 Root     45 :    12.092945284941710
 Root     46 :    12.187715203519740
 Root     47 :    12.247294425998840
 Root     48 :    12.363089037041000
 Root     49 :    12.403160944953990
 Root     50 :    12.417863461839040
 Root     51 :    12.472837831842290
 Root     52 :    12.526152226029360
 Root     53 :    12.722550484431670
 Root     54 :    12.745028719819270
 Root     55 :    12.778834436073820
 Root     56 :    12.841199376116310
 Root     57 :    12.923530671871050
 Root     58 :    12.961390117487910
 Root     59 :    13.030232180540150
 Root     60 :    13.119260589863810
 Root     61 :    13.166784012991700
 Root     62 :    13.237210902487720
 Root     63 :    13.300701664026750
 Root     64 :    13.335549644719630
 Root     65 :    13.405551973601750
 Root     66 :    13.424611764621550
 Root     67 :    13.548070921026490
 Root     68 :    13.615583155931710
 Root     69 :    13.664101402808140
 Root     70 :    13.732587731739990
 Root     71 :    13.754803465729030
 Root     72 :    13.838493652420060
 Root     73 :    13.908499129113030
 Root     74 :    13.926188854683590
 Root     75 :    13.999024217077790
 Root     76 :    14.055862078594170
 Root     77 :    14.105697573323400
 Root     78 :    14.113802429528870
 Root     79 :    14.132604708141140
 Root     80 :    14.255752244998050
 Root     81 :    14.322055255118050
 Root     82 :    14.371122041530810
 Root     83 :    14.417689451902450
 Root     84 :    14.440051692340580
 Root     85 :    14.475700997806740
 Root     86 :    14.485032816139180
 Root     87 :    14.588120816218000
 Root     88 :    14.658795601204000
 Root     89 :    14.687984541710720
 Root     90 :    14.733950970690860
 Root     91 :    14.783488001869560
 Root     92 :    14.796679578063940
 Root     93 :    14.894549220718320
 Root     94 :    14.947781478750460
 Root     95 :    14.973918318553320
 Root     96 :    15.067421538283400
 Root     97 :    15.150945502779610
 Root     98 :    15.193291932096560
 Root     99 :    15.232450114694210
 Root    100 :    15.297504024677610
 Root    101 :    15.329363110701250
 Root    102 :    15.394851348223040
 Root    103 :    15.418143186184280
 Root    104 :    15.454215123038280
 Root    105 :    15.501554984831940
 Root    106 :    15.577052164117540
 Root    107 :    15.632649126981280
 Root    108 :    15.661242174706960
 Root    109 :    15.703452009867720
 Root    110 :    15.739209496330800
 Root    111 :    15.771961657488790
 Root    112 :    15.802110898218040
 Root    113 :    15.851177955077580
 Root    114 :    15.900011828137290
 Root    115 :    15.951998197881720
 Root    116 :    15.980175097460670
 Root    117 :    16.005416236493450
 Root    118 :    16.081270709729510
 Root    119 :    16.195290164177400
 Root    120 :    16.214533569618270
 Root    121 :    16.264882127415150
 Root    122 :    16.354010864292460
 Root    123 :    16.416477927454840
 Root    124 :    16.433979704550880
 Root    125 :    16.441048019404740
 Root    126 :    16.563557658312020
 Root    127 :    16.587318045537890
 Root    128 :    16.615812608952170
 Root    129 :    16.653512766955230
 Root    130 :    16.755241463317570
 Root    131 :    16.788897549206490
 Root    132 :    16.811044701825180
 Root    133 :    16.863277620168870
 Root    134 :    16.901143457302830
 Root    135 :    16.964643669765170
 Root    136 :    16.974891514265520
 Root    137 :    17.007475144596350
 Root    138 :    17.037251634435280
 Root    139 :    17.086557462150780
 Root    140 :    17.108023783847190
 Root    141 :    17.131962676986820
 Root    142 :    17.173559470093440
 Root    143 :    17.297601866986950
 Root    144 :    17.350383464317220
 Root    145 :    17.372938144052640
 Root    146 :    17.432280543517240
 Root    147 :    17.467757200578230
 Root    148 :    17.546170313558200
 Root    149 :    17.598734045971870
 Root    150 :    17.606832927477770
 Root    151 :    17.663181999903710
 Root    152 :    17.713767575833770
 Root    153 :    17.738250829566490
 Root    154 :    17.803076136445260
 Root    155 :    17.837663351817190
 Root    156 :    17.858262604298910
 Root    157 :    17.877586065255650
 Root    158 :    17.959680003609820
 Root    159 :    18.031027061819750
 Root    160 :    18.046650505396060
 Root    161 :    18.083402872435390
 Root    162 :    18.118647815113790
 Root    163 :    18.170283298306900
 Root    164 :    18.176794908732060
 Root    165 :    18.222439658660580
 Root    166 :    18.270023118063480
 Root    167 :    18.327886816182370
 Root    168 :    18.385177475260210
 Root    169 :    18.417507119867770
 Root    170 :    18.477662809771610
 Root    171 :    18.484452501350200
 Root    172 :    18.525343206195600
 Root    173 :    18.591201256720580
 Root    174 :    18.606350728016460
 Root    175 :    18.648534841253310
 Root    176 :    18.691268391895630
 Root    177 :    18.710187276096580
 Root    178 :    18.745702557024530
 Root    179 :    18.789303186011600
 Root    180 :    18.826712665855640
 Root    181 :    18.852878284578560
 Root    182 :    18.895525385120630
 Root    183 :    18.911677716153400
 Root    184 :    18.946998912992190
 Root    185 :    18.991357816033120
 Root    186 :    19.020031252342650
 Root    187 :    19.077420762380850
 Root    188 :    19.087717336889050
 Root    189 :    19.164780775667520
 Root    190 :    19.211865273842250
 Root    191 :    19.247036786545160
 Root    192 :    19.280637020772730
 Root    193 :    19.367354737005810
 Root    194 :    19.379780465886170
 Root    195 :    19.469258066503240
 Root    196 :    19.486328967382420
 Root    197 :    19.505711526328170
 Root    198 :    19.514231041977640
 Root    199 :    19.537920953667290
 Root    200 :    19.629827158807480
 Root    201 :    19.641123553380240
 Root    202 :    19.663485820616530
 Root    203 :    19.750763562380740
 Root    204 :    19.765723825995040
 Root    205 :    19.820130442664060
 Root    206 :    19.832898480949630
 Root    207 :    19.857772926278510
 Root    208 :    19.902705919792450
 Root    209 :    19.944279104626460
 Root    210 :    19.949890828020680
 Root    211 :    20.009916606418000
 Root    212 :    20.064249589712340
 Root    213 :    20.067819342371860
 Root    214 :    20.088985023392590
 Root    215 :    20.136268742551150
 Root    216 :    20.150173423967380
 Root    217 :    20.209789767791460
 Root    218 :    20.223590438646870
 Root    219 :    20.277872429280280
 Root    220 :    20.327506519884890
 Root    221 :    20.346910383431820
 Root    222 :    20.371178270399110
 Root    223 :    20.418716389959780
 Root    224 :    20.480222643284900
 Root    225 :    20.500154170560260
 Root    226 :    20.581927289659540
 Root    227 :    20.613592515094080
 Root    228 :    20.647277551404950
 Root    229 :    20.690429068082610
 Root    230 :    20.717659627034200
 Root    231 :    20.748356363994550
 Root    232 :    20.801554496239460
 Root    233 :    20.814245588951010
 Root    234 :    20.826696668654970
 Root    235 :    20.841553868075760
 Root    236 :    20.870768662528860
 Root    237 :    20.932664947800770
 Root    238 :    20.966515978807410
 Root    239 :    21.005636392577720
 Root    240 :    21.020567451718200
 Root    241 :    21.057970076331370
 Root    242 :    21.114834459660990
 Root    243 :    21.122992633839350
 Root    244 :    21.174540692310590
 Root    245 :    21.198121017378500
 Root    246 :    21.282645306725050
 Root    247 :    21.338590093102450
 Root    248 :    21.364822389236470
 Root    249 :    21.457583843337620
 Root    250 :    21.481888213911790
 Root    251 :    21.504916117945060
 Root    252 :    21.541787684028370
 Root    253 :    21.607115107097870
 Root    254 :    21.637548715206150
 Root    255 :    21.672206751585370
 Root    256 :    21.691528402859840
 Root    257 :    21.706426379106070
 Root    258 :    21.759878406348790
 Root    259 :    21.769099222782170
 Root    260 :    21.843830989090200
 Root    261 :    21.860924161142620
 Root    262 :    21.915491237816170
 Root    263 :    21.920334149465390
 Root    264 :    21.973617664529610
 Root    265 :    22.009622875227420
 Root    266 :    22.035357279279290
 Root    267 :    22.098534021103810
 Root    268 :    22.151119494095060
 Root    269 :    22.171194961105490
 Root    270 :    22.177145113937680
 Root    271 :    22.203862432399880
 Root    272 :    22.255015689669500
 Root    273 :    22.385355019343430
 Root    274 :    22.438465034788790
 Root    275 :    22.477233851939320
 Root    276 :    22.519848774345260
 Root    277 :    22.563076836674850
 Root    278 :    22.693142995217230
 Root    279 :    22.700252364660670
 Root    280 :    22.732331436773140
 Root    281 :    22.746208378465480
 Root    282 :    22.803669799325720
 Root    283 :    22.894337495313510
 Root    284 :    22.909027509489250
 Root    285 :    22.959389820457010
 Root    286 :    22.979421759037160
 Root    287 :    22.991201863179140
 Root    288 :    23.081234930107310
 Root    289 :    23.148716273522660
 Root    290 :    23.177908587488120
 Root    291 :    23.247278500816120
 Root    292 :    23.268799358977360
 Root    293 :    23.294629562359920
 Root    294 :    23.358132042034530
 Root    295 :    23.394793053862050
 Root    296 :    23.436156605197240
 Root    297 :    23.442322523690480
 Root    298 :    23.493035383896270
 Root    299 :    23.522132464323850
 Root    300 :    23.527821469796430
 Root    301 :    23.589464591168100
 Root    302 :    23.613918649455730
 Root    303 :    23.656521491177670
 Root    304 :    23.767880928309220
 Root    305 :    23.782675931093270
 Root    306 :    23.834788577206310
 Root    307 :    23.876665819816050
 Root    308 :    23.883020487195450
 Root    309 :    23.963330584643500
 Root    310 :    23.986787810620620
 Root    311 :    24.024251290552340
 Root    312 :    24.080477280110030
 Root    313 :    24.132664202038060
 Root    314 :    24.253054275487370
 Root    315 :    24.374839057976160
 Root    316 :    24.393744168078600
 Root    317 :    24.413815960427670
 Root    318 :    24.502202300970810
 Root    319 :    24.538478603796950
 Root    320 :    24.591666885551470
 Root    321 :    24.618517635402910
 Root    322 :    24.669973730680050
 Root    323 :    24.711487165471930
 Root    324 :    24.759728617694970
 Root    325 :    24.805940950489410
 Root    326 :    24.834939175107960
 Root    327 :    24.891853027537180
 Root    328 :    24.960987371481430
 Root    329 :    24.989273268902480
 Root    330 :    25.033641578357510
 Root    331 :    25.042262580322590
 Root    332 :    25.129494475924800
 Root    333 :    25.200124543107350
 Root    334 :    25.262583318606090
 Root    335 :    25.287597807255760
 Root    336 :    25.363669954589420
 Root    337 :    25.444967164152190
 Root    338 :    25.536476340650350
 Root    339 :    25.596994328088240
 Root    340 :    25.653303487394010
 Root    341 :    25.660013559045520
 Root    342 :    25.748040786452330
 Root    343 :    25.846817097566640
 Root    344 :    25.886252761101310
 Root    345 :    25.947233868626090
 Root    346 :    25.977370405298000
 Root    347 :    26.057451943131830
 Root    348 :    26.107785488497550
 Root    349 :    26.154200120828890
 Root    350 :    26.173620737183010
 Root    351 :    26.199727711387200
 Root    352 :    26.266463867192490
 Root    353 :    26.282557424413290
 Root    354 :    26.299350613555340
 Root    355 :    26.340252272381890
 Root    356 :    26.399712876474500
 Root    357 :    26.486301194743710
 Root    358 :    26.556460903729950
 Root    359 :    26.581999864208040
 Root    360 :    26.692224852812280
 Root    361 :    26.748038601216040
 Root    362 :    26.785949084247110
 Root    363 :    26.842719034732800
 Root    364 :    26.891040478727160
 Root    365 :    26.945299993473130
 Root    366 :    26.993315366832600
 Root    367 :    27.107497196826780
 Root    368 :    27.203453508180210
 Root    369 :    27.262769711954660
 Root    370 :    27.365389819606360
 Root    371 :    27.477957490989510
 Root    372 :    27.494140086155140
 Root    373 :    27.605290777592280
 Root    374 :    27.632703586155150
 Root    375 :    27.665532136761960
 Root    376 :    27.719447844406680
 Root    377 :    27.782808927535440
 Root    378 :    27.829547328880000
 Root    379 :    27.854904538309490
 Root    380 :    27.881918910446740
 Root    381 :    27.895914801078600
 Root    382 :    27.930095108008380
 Root    383 :    28.023219221315460
 Root    384 :    28.055907998400150
 Root    385 :    28.079351206428500
 Root    386 :    28.157696355272750
 Root    387 :    28.184408147843360
 Root    388 :    28.224164631775110
 Root    389 :    28.262523573502340
 Root    390 :    28.359922952923900
 Root    391 :    28.459313089802400
 Root    392 :    28.499794551742560
 Root    393 :    28.610242830792760
 Root    394 :    28.632232991775510
 Root    395 :    28.770979936275910
 Root    396 :    28.833424451129340
 Root    397 :    28.844808265999910
 Root    398 :    28.988675294179840
 Root    399 :    29.063354534927620
 Root    400 :    29.137807788672220
 Root    401 :    29.167866561520640
 Root    402 :    29.225930889686420
 Root    403 :    29.292412093043160
 Root    404 :    29.324789822869860
 Root    405 :    29.401330445628170
 Root    406 :    29.443135449184270
 Root    407 :    29.574783859094130
 Root    408 :    29.599004214073830
 Root    409 :    29.660622059652070
 Root    410 :    29.680923224661220
 Root    411 :    29.765442430609610
 Root    412 :    29.807487047892530
 Root    413 :    29.870232076690960
 Root    414 :    29.873395830138100
 Root    415 :    29.963196687510640
 Root    416 :    30.059071636889070
 Root    417 :    30.134563607214200
 Root    418 :    30.231651567399490
 Root    419 :    30.313775796381490
 Root    420 :    30.333860917690130
 Root    421 :    30.398968500579910
 Root    422 :    30.664860066367890
 Root    423 :    30.715845973390580
 Root    424 :    30.772889243043260
 Root    425 :    30.836727793275680
 Root    426 :    30.937592255205480
 Root    427 :    31.009064567331650
 Root    428 :    31.076918890162360
 Root    429 :    31.182182258468520
 Root    430 :    31.314787166504240
 Root    431 :    31.404361778643500
 Root    432 :    31.480144436382110
 Root    433 :    31.517698075839700
 Root    434 :    31.546840665641540
 Root    435 :    31.607292339158080
 Root    436 :    31.732146631337180
 Root    437 :    31.986626423604120
 Root    438 :    31.999421395161060
 Root    439 :    32.038882165764310
 Root    440 :    32.084528187179710
 Root    441 :    32.171561658248810
 Root    442 :    32.207304458992010
 Root    443 :    32.276539235406440
 Root    444 :    32.332922836562480
 Root    445 :    32.425215237360750
 Root    446 :    32.440548748383340
 Root    447 :    32.489132077096550
 Root    448 :    32.518493245434850
 Root    449 :    32.647004470737810
 Root    450 :    32.699440812002090
 Root    451 :    32.729444522307910
 Root    452 :    32.850635721147930
 Root    453 :    32.866704625616860
 Root    454 :    32.937838659577610
 Root    455 :    32.994877652209730
 Root    456 :    33.129928333967820
 Root    457 :    33.211832257538080
 Root    458 :    33.377242539453650
 Root    459 :    33.486130438946500
 Root    460 :    33.513247394145290
 Root    461 :    33.564111327156620
 Root    462 :    33.603217775136920
 Root    463 :    33.642246139621750
 Root    464 :    33.834396141849500
 Root    465 :    33.926808880217440
 Root    466 :    33.987896120145590
 Root    467 :    34.028877203627000
 Root    468 :    34.055610981834040
 Root    469 :    34.198878312938860
 Root    470 :    34.236995056544120
 Root    471 :    34.267468729099400
 Root    472 :    34.294923949611570
 Root    473 :    34.312707043234130
 Root    474 :    34.449770391897470
 Root    475 :    34.474291852551950
 Root    476 :    34.533207431662500
 Root    477 :    34.572803106553590
 Root    478 :    34.600431834946850
 Root    479 :    34.739707660868080
 Root    480 :    34.832381674304620
 Root    481 :    34.853864581804500
 Root    482 :    34.879848218821140
 Root    483 :    34.982261555796600
 Root    484 :    35.072933751854830
 Root    485 :    35.210824170020530
 Root    486 :    35.360593681387560
 Root    487 :    35.411100269155720
 Root    488 :    35.470516106816010
 Root    489 :    35.501410623922410
 Root    490 :    35.562868870236100
 Root    491 :    35.634040857485880
 Root    492 :    35.754425943187040
 Root    493 :    35.849923918290250
 Root    494 :    35.916194902009320
 Root    495 :    35.938068912950500
 Root    496 :    35.983442020663830
 Root    497 :    36.044171441111690
 Root    498 :    36.169918893075670
 Root    499 :    36.237196951871890
 Root    500 :    36.363516083448940
 Root    501 :    36.389415506439000
 Root    502 :    36.397797783137560
 Root    503 :    36.504500098381050
 Root    504 :    36.699999574920060
 Root    505 :    36.836192111476270
 Root    506 :    36.912714944620020
 Root    507 :    36.963947682887420
 Root    508 :    37.045886115865520
 Root    509 :    37.133200369536350
 Root    510 :    37.181043644461790
 Root    511 :    37.215696559896830
 Root    512 :    37.260606713583850
 Root    513 :    37.422784848515240
 Root    514 :    37.485759779677520
 Root    515 :    37.556133657532830
 Root    516 :    37.638906910746020
 Root    517 :    37.691810915062310
 Root    518 :    37.775594234171270
 Root    519 :    37.813922758729730
 Root    520 :    37.870125480815030
 Root    521 :    37.937122171245690
 Root    522 :    38.153942846585300
 Root    523 :    38.212669222546610
 Root    524 :    38.258648251931530
 Root    525 :    38.382462766449040
 Root    526 :    38.474324334451500
 Root    527 :    38.598928777128040
 Root    528 :    38.644552056744310
 Root    529 :    38.729499685903080
 Root    530 :    38.858099099384820
 Root    531 :    38.926792333992810
 Root    532 :    38.971630167023820
 Root    533 :    39.060868649225410
 Root    534 :    39.120294470151630
 Root    535 :    39.205998185792160
 Root    536 :    39.257968300423870
 Root    537 :    39.293690430634630
 Root    538 :    39.379948412605080
 Root    539 :    39.449076685961560
 Root    540 :    39.538626553750890
 Root    541 :    39.650197078461400
 Root    542 :    39.843627464958110
 Root    543 :    39.951037850605500
 Root    544 :    40.051743913199910
 Root    545 :    40.374864009525320
 Root    546 :    40.500191096488810
 Root    547 :    40.509653782268710
 Root    548 :    40.588365515279480
 Root    549 :    40.696066129021510
 Root    550 :    40.732963062694010
 Root    551 :    40.770979142844410
 Root    552 :    40.916666800340750
 Root    553 :    41.125972324300250
 Root    554 :    41.239152521421080
 Root    555 :    41.396500407181150
 Root    556 :    41.646455918932150
 Root    557 :    41.720137129553670
 Root    558 :    41.800647332703540
 Root    559 :    41.944296832749070
 Root    560 :    42.022390093031610
 Root    561 :    42.057564027352940
 Root    562 :    42.203166613126950
 Root    563 :    42.257402023469690
 Root    564 :    42.362462554704240
 Root    565 :    42.435074122816540
 Root    566 :    42.516898951228730
 Root    567 :    42.715782203101010
 Root    568 :    42.799098517173340
 Root    569 :    42.837574002954110
 Root    570 :    42.961775425659020
 Root    571 :    43.158242217354860
 Root    572 :    43.550420867196020
 Root    573 :    43.699701329499170
 Root    574 :    43.804174691935640
 Root    575 :    43.968274286376050
 Root    576 :    44.049222485974130
 Root    577 :    44.148320048838130
 Root    578 :    44.181029023311570
 Root    579 :    44.195820592047770
 Root    580 :    44.350710312610160
 Root    581 :    44.585441870585650
 Root    582 :    44.700790273582680
 Root    583 :    45.236727074383560
 Root    584 :    45.321328578016290
 Root    585 :    45.469046836615870
 Root    586 :    45.625704845917550
 Root    587 :    45.735187404010090
 Root    588 :    46.235780256456510
 Root    589 :    46.545860144910980
 Root    590 :    46.651283427644370
 Root    591 :    46.770734105288680
 Root    592 :    46.928683758351060
 Root    593 :    47.002537622699630
 Root    594 :    47.288305933411510
 Root    595 :    47.465221828495550
 Root    596 :    47.590495990099010
 Root    597 :    47.804408364122900
 Root    598 :    48.007131821309420
 Root    599 :    48.224186264617690
 Root    600 :    48.283981189021770
 Root    601 :    48.292173581632020
 Root    602 :    48.378331841064070
 Root    603 :    48.418059237458630
 Root    604 :    48.568288373814720
 Root    605 :    48.648706866290540
 Root    606 :    48.750220107406750
 Root    607 :    48.787400153038250
 Root    608 :    48.906954870609940
 Root    609 :    49.164527903625280
 Root    610 :    49.408520524770290
 Root    611 :    49.618173267783360
 Root    612 :    49.694281117509530
 Root    613 :    49.775977926400760
 Root    614 :    49.840027502801800
 Root    615 :    49.993883532040860
 Root    616 :    50.209960522342700
 Root    617 :    50.246793150967730
 Root    618 :    50.368636172965090
 Root    619 :    50.439968378681610
 Root    620 :    50.540764065772980
 Root    621 :    50.693386269362040
 Root    622 :    50.820200533831550
[...]
     16  -0.113986D-01 -0.123090D+00  0.502121D-01 -0.171240D+00  0.545049D-02
               911           912           913           914           915 
      1  -0.150270D+03 -0.150264D+03 -0.150263D+03 -0.150256D+03 -0.150255D+03
      2  -0.311564D-01  0.311665D-01 -0.646926D-01  0.210474D-02  0.316119D-01
      3  -0.661281D-01 -0.547742D-01 -0.464057D-01 -0.371446D-01 -0.161775D-01
      4   0.297288D-01 -0.448337D-01 -0.445373D-01  0.733002D-02 -0.264158D-01
      5   0.944929D-01 -0.946413D-01  0.187104D+00  0.492869D-02 -0.923690D-01
      6   0.200365D+00  0.156624D+00  0.126949D+00  0.113287D+00  0.620627D-01
      7  -0.975701D-01  0.118300D+00  0.118341D+00 -0.259834D-01  0.733814D-01
      8   0.134172D+00  0.912079D-01  0.194225D-01  0.658566D-02 -0.178920D-02
      9   0.379997D+00  0.131956D+00 -0.458773D-01  0.651498D-01 -0.521601D+00
     10  -0.945786D-01 -0.716210D-01  0.394340D+00  0.157184D+00  0.157294D+00
     11   0.456665D+00 -0.598972D+00 -0.945193D-01 -0.608095D-01 -0.941533D+00
     12   0.247377D+00 -0.110937D+00  0.987803D-03 -0.111639D+00  0.187914D+00
     13  -0.505302D-01  0.384681D-01 -0.933976D-01  0.355944D-01 -0.179555D+00
     14   0.339111D-01  0.501649D-01  0.236425D+00  0.968598D-01  0.520870D+00
     15  -0.336047D+00 -0.165375D+00 -0.406043D-01 -0.831626D-01  0.502967D+00
     16   0.769377D-01 -0.186326D-01 -0.156480D-01 -0.281934D-01 -0.588434D-01
               916           917           918           919           920 
      1  -0.150246D+03 -0.150240D+03 -0.150231D+03 -0.150224D+03 -0.150216D+03
      2  -0.694097D-01  0.157301D-01  0.646672D-01 -0.411199D-01  0.213365D-01
      3   0.768505D-01 -0.400092D-01  0.450201D-01 -0.195734D-01  0.279395D-01
      4  -0.656270D-02  0.725735D-02  0.138804D+00 -0.374316D-01 -0.494322D-01
      5   0.200535D+00 -0.451812D-01 -0.196778D+00  0.119957D+00 -0.532647D-01
      6  -0.214887D+00  0.124184D+00 -0.122871D+00  0.563104D-01 -0.883220D-01
      7   0.820271D-02 -0.705103D-02 -0.408998D+00  0.109544D+00  0.144725D+00
      8   0.598417D-01 -0.142442D+00  0.660830D-01 -0.609513D-02  0.593858D-02
      9   0.528446D+00  0.292610D-01  0.512377D+00 -0.236576D+00  0.709279D-01
     10   0.449047D+00  0.350703D+00  0.228585D+00 -0.120061D+00 -0.258535D+00
     11   0.982904D+00  0.125639D+00 -0.401912D+00 -0.198820D+00  0.473581D+00
     12  -0.145773D+00 -0.659543D-01 -0.325960D+00 -0.206430D+00  0.237056D+00
     13   0.156371D+00 -0.122110D+00  0.207724D+00  0.133371D+00 -0.335188D-01
     14   0.137243D+00  0.279769D+00  0.252699D+00 -0.112546D+00 -0.744615D-01
     15  -0.569403D+00 -0.799796D-01 -0.524204D+00  0.231211D+00 -0.435293D-02
     16   0.355767D-01 -0.204534D+00 -0.116799D-01 -0.594578D-01  0.109075D+00
               921           922           923           924           925 
      1  -0.150214D+03 -0.150211D+03 -0.150207D+03 -0.150200D+03 -0.150193D+03
      2  -0.219601D-01 -0.544502D-01  0.712938D-01 -0.621687D-01  0.259346D-01
      3  -0.529783D-01 -0.898485D-02 -0.285314D-01  0.106432D+00  0.126731D-01
      4   0.860704D-01  0.343761D-02  0.570367D-02 -0.343178D-01 -0.426967D-01
      5   0.649203D-01  0.156796D+00 -0.214056D+00  0.189439D+00 -0.781685D-01
      6   0.151583D+00  0.264044D-01  0.888432D-01 -0.305301D+00 -0.410947D-01
      7  -0.252596D+00 -0.155994D-01 -0.152112D-01  0.111366D+00  0.118867D+00
      8  -0.494239D-01  0.515817D-01  0.101483D+00 -0.522487D-01 -0.330692D-01
      9   0.209447D+00 -0.180049D+00  0.503710D-01 -0.468610D+00  0.428932D-01
     10   0.146751D+00  0.197377D+00  0.108939D+00 -0.149526D+00 -0.698266D-01
     11  -0.257370D+00 -0.270038D+00  0.123152D+00  0.122743D+00  0.422741D+00
     12   0.248977D+00 -0.400012D+00  0.395790D-01  0.367754D-01  0.701097D-01
     13   0.930928D-02  0.132059D-01  0.897717D-01 -0.488055D-01 -0.735841D-01
     14   0.332156D+00 -0.177781D+00  0.118011D+00 -0.430363D+00 -0.125806D+00
     15  -0.201178D+00  0.166795D+00 -0.728415D-01  0.466175D+00 -0.198351D+00
     16  -0.647727D-01 -0.287821D-01  0.460911D-01  0.648058D-01  0.288723D-01
               926           927           928           929           930 
      1  -0.150191D+03 -0.150171D+03 -0.150167D+03 -0.150165D+03 -0.150162D+03
      2   0.550114D-02 -0.246386D-01  0.128196D-01 -0.241822D-01 -0.229220D-01
      3   0.116192D+00 -0.349005D-01  0.181448D-01 -0.402467D-01 -0.364566D-01
      4   0.296285D-01  0.856896D-01 -0.728106D-01  0.588191D-01  0.156241D-01
      5  -0.171033D-01  0.616580D-01 -0.346632D-01  0.756205D-01  0.539168D-01
      6  -0.348527D+00  0.118555D+00 -0.669756D-01  0.128815D+00  0.113007D+00
      7  -0.769797D-01 -0.266273D+00  0.220997D+00 -0.172689D+00 -0.395916D-01
      8  -0.148734D+00  0.152022D+00 -0.108833D+00  0.158841D-02 -0.265582D-01
      9   0.477470D+00  0.537947D+00 -0.412295D+00  0.148594D+00 -0.424410D-01
     10  -0.558803D+00  0.913995D-01 -0.135434D+00  0.113806D+00  0.163262D+00
     11  -0.914444D+00 -0.351706D-01 -0.197139D+00  0.412183D+00 -0.396257D-01
     12   0.403240D+00 -0.514669D-01 -0.126414D+00  0.225522D-01  0.112184D+00
     13   0.136479D+00  0.225970D+00  0.695084D-01  0.238946D-01  0.627063D-03
     14  -0.724500D+00 -0.114192D+00 -0.129806D+00 -0.134772D+00  0.288578D+00
     15  -0.529481D+00 -0.682245D+00  0.446160D+00 -0.184602D+00  0.412362D-01
     16   0.499257D-01  0.121881D+00 -0.898804D-01 -0.138346D-01 -0.584518D-02
               931           932           933           934           935 
      1  -0.150158D+03 -0.150153D+03 -0.150143D+03 -0.150136D+03 -0.150130D+03
      2  -0.909668D-01 -0.262984D-01 -0.592117D-01  0.795873D-02  0.320162D-01
      3  -0.678916D-01  0.849302D-02  0.403372D-02  0.438734D-01 -0.830209D-01
      4  -0.639494D-01  0.135768D-01 -0.236969D-01 -0.273627D-02 -0.108838D+00
      5   0.272363D+00  0.868375D-01  0.175639D+00 -0.166448D-01 -0.102074D+00
      6   0.189631D+00 -0.445361D-01 -0.209371D-02 -0.138566D+00  0.256766D+00
      7   0.196074D+00 -0.269918D-01  0.729059D-01  0.127099D-01  0.319295D+00
      8  -0.215893D-01 -0.133107D+00  0.570725D-01 -0.783341D-01 -0.104373D+00
      9  -0.371649D+00 -0.514681D-01 -0.542961D-01 -0.781767D+00 -0.490598D+00
     10   0.217551D+00 -0.743055D+00  0.334132D+00 -0.214740D+00  0.611481D+00
     11   0.109214D+01  0.125233D+01  0.225525D+00  0.375523D+00  0.375790D+00
     12   0.284172D+00 -0.155355D+00  0.339746D-02  0.134486D+00 -0.120360D+00
     13  -0.108440D+00  0.195820D-01 -0.227368D+00 -0.930742D-01 -0.287823D+00
     14   0.618544D-01 -0.789501D+00  0.250390D+00 -0.224182D+00  0.876106D+00
     15   0.100271D+00 -0.342602D-02 -0.943491D-01  0.651566D+00  0.604121D+00
     16   0.404276D-01 -0.598801D-01  0.170553D-01  0.241195D-01 -0.278382D+00
               936           937           938           939           940 
      1  -0.150112D+03 -0.150101D+03 -0.150098D+03 -0.150089D+03 -0.150079D+03
      2  -0.131080D+00  0.203846D-01  0.837048D-01  0.315269D-01  0.476165D-01
      3  -0.269988D-01 -0.194582D-01  0.235492D-01  0.245693D-01 -0.129148D-01
      4   0.101416D+00 -0.182972D-01 -0.284766D-02 -0.448041D-03 -0.528890D-01
      5   0.414438D+00 -0.783624D-01 -0.223216D+00 -0.948013D-01 -0.157225D+00
      6   0.837936D-01  0.503320D-01 -0.547157D-01 -0.729768D-01  0.515826D-01
      7  -0.314326D+00  0.495825D-01  0.116946D-01  0.314712D-02  0.173260D+00
      8   0.928442D-01 -0.287838D-02 -0.144080D-01 -0.163710D-01 -0.125961D+00
      9   0.612485D+00  0.308953D+00  0.110893D+00  0.153998D+00 -0.488712D+00
     10   0.725419D+00 -0.394275D-01 -0.255091D+00 -0.510916D+00  0.117618D+00
     11   0.253136D+01 -0.737068D+00 -0.974456D-01 -0.111184D+01 -0.857791D+00
     12  -0.858638D-01 -0.606719D-01 -0.112246D+00  0.991725D-01 -0.278512D+00
     13   0.151871D+00  0.343089D-01  0.639756D-01  0.144423D+00 -0.281611D+00
     14   0.329574D+00 -0.644959D-01 -0.116132D+00 -0.498067D+00  0.304219D+00
     15  -0.892192D+00 -0.217188D+00 -0.667827D-01 -0.257291D-01  0.704056D+00
     16   0.173920D-01  0.314114D-01  0.282974D-01  0.569903D-01 -0.161386D+00
               941           942           943           944           945 
      1  -0.150063D+03 -0.150055D+03 -0.150045D+03 -0.150035D+03 -0.150012D+03
      2   0.609304D-01  0.121030D-01 -0.861354D-01  0.105051D+00  0.854028D-01
      3   0.316051D-01  0.423681D-01  0.347968D-01  0.574064D-01 -0.281445D-01
      4   0.371133D-01 -0.227028D-01  0.977803D-01 -0.112478D+00 -0.334060D-01
      5  -0.189758D+00 -0.379206D-01  0.277317D+00 -0.339078D+00 -0.290872D+00
      6  -0.910010D-01 -0.121354D+00 -0.941167D-01 -0.179828D+00  0.996052D-01
      7  -0.106093D+00  0.736936D-01 -0.324761D+00  0.369847D+00  0.111502D+00
      8  -0.545683D-01 -0.134118D+00  0.242226D+00 -0.291563D+00  0.712065D-01
      9   0.338129D+00 -0.671329D-02  0.848115D+00 -0.902509D+00 -0.164557D+00
     10  -0.368328D+00  0.193281D+00  0.100541D+00 -0.494013D+00  0.115135D+00
     11  -0.939782D+00 -0.327977D+00  0.114766D+01 -0.176985D+01 -0.128156D+01
     12   0.141675D+00  0.604190D-01 -0.104116D+00  0.419975D+00  0.692016D-01
     13   0.100232D+00 -0.138139D+00  0.236988D+00 -0.190817D+00 -0.573433D-01
     14  -0.161239D+00  0.200945D+00  0.316309D-01 -0.518410D-01  0.421867D+00
     15  -0.217002D+00  0.535562D-01 -0.996725D+00  0.119855D+01  0.468370D+00
     16   0.153078D+00 -0.656452D-01  0.233288D+00 -0.124682D+00  0.133102D+00
               946           947           948           949           950 
      1  -0.149991D+03 -0.149990D+03 -0.149971D+03 -0.149963D+03 -0.149946D+03
      2  -0.130096D-01  0.299198D-01 -0.129488D-01 -0.217334D-01 -0.193281D-01
      3   0.220274D-02  0.168105D-01  0.156804D-01 -0.772106D-01  0.123529D-01
      4   0.684209D-01  0.194658D-01 -0.327187D-02  0.226764D-02 -0.123890D+00
      5   0.427091D-01 -0.105415D+00  0.470389D-01  0.562722D-01  0.663596D-01
      6  -0.460295D-02 -0.439246D-01 -0.528564D-01  0.234195D+00 -0.443407D-01
      7  -0.200049D+00 -0.617601D-01  0.121090D-01  0.949693D-02  0.392022D+00
      8   0.160160D+00 -0.262134D-01 -0.307457D-01 -0.126586D+00  0.131759D-01
      9  -0.399872D+00  0.254080D+00 -0.509534D-01 -0.280494D+00 -0.530400D+00
     10   0.167710D+00  0.127528D+00 -0.171457D-01  0.291098D+00  0.808617D-01
     11   0.212645D-01 -0.774798D+00  0.323838D+00  0.653241D-01  0.221338D+00
     12   0.284751D-01 -0.116706D+00 -0.834413D-01 -0.232698D-01  0.126427D-01
     13  -0.486431D-01 -0.109011D-01 -0.453416D-01 -0.975069D-01 -0.199741D+00
     14   0.779677D-01  0.604808D-01 -0.171975D+00  0.222062D+00 -0.252294D-01
     15   0.415296D+00 -0.132873D+00  0.428862D-01  0.183412D+00  0.595065D+00
     16  -0.481207D-01  0.223500D-01 -0.382297D-01 -0.117977D+00 -0.141695D+00
               951           952           953           954           955 
      1  -0.149936D+03 -0.149929D+03 -0.149916D+03 -0.149896D+03 -0.149886D+03
      2  -0.615349D-01  0.105957D+00 -0.469450D-02 -0.581064D-01 -0.569124D-01
      3  -0.127595D+00  0.130038D+00  0.157752D-01  0.595864D-01 -0.302901D-01
      4  -0.104962D+00  0.998872D-01 -0.382674D-01 -0.201843D-01 -0.122296D+00
      5   0.179570D+00 -0.345191D+00  0.218457D-01  0.199956D+00  0.182976D+00
      6   0.397949D+00 -0.430589D+00 -0.533510D-01 -0.202434D+00  0.101889D+00
      7   0.320443D+00 -0.320727D+00  0.120791D+00  0.713079D-01  0.386908D+00
      8   0.229114D-01  0.471650D-01 -0.117194D+00 -0.112056D+00 -0.123530D+00
      9  -0.420660D+00  0.759590D+00 -0.706579D-01 -0.277823D+00 -0.701592D+00
     10   0.504716D+00 -0.150402D+01 -0.173229D+00 -0.460178D+00  0.558434D+00
     11   0.100332D+01 -0.151321D+01  0.159846D+00  0.614974D+00  0.601880D+00
     12  -0.283642D+00  0.256189D+00 -0.464428D-02  0.309682D+00 -0.846485D-01
     13  -0.938277D-01  0.274830D+00  0.143931D-02 -0.766194D-01 -0.307342D+00
     14   0.490450D+00 -0.120636D+01 -0.243465D-02 -0.584466D+00  0.318219D+00
     15   0.395651D+00 -0.565937D+00  0.152592D+00  0.275612D+00  0.757179D+00
     16  -0.130751D+00  0.245882D+00 -0.367503D-01 -0.110341D-02 -0.216170D+00
               956           957           958           959           960 
      1  -0.149875D+03 -0.149839D+03 -0.149831D+03 -0.149812D+03 -0.149805D+03
      2  -0.326643D-01  0.506860D-01 -0.996029D-01  0.725136D-01 -0.578134D-01
      3  -0.112234D+00  0.436095D-01 -0.910235D-01 -0.145028D-01  0.231281D-01
      4  -0.554674D-01  0.138870D-01 -0.838496D-01  0.377900D-01  0.742266D-02
      5   0.109282D+00 -0.146627D+00  0.320727D+00 -0.247244D+00  0.188817D+00
      6   0.356696D+00 -0.130645D+00  0.304873D+00  0.620780D-01 -0.783300D-01
      7   0.185330D+00 -0.417583D-01  0.273195D+00 -0.129114D+00 -0.691799D-02
      8  -0.890233D-01 -0.155230D-01 -0.960620D-01  0.178217D+00 -0.131164D+00
      9  -0.707804D+00  0.577790D-01 -0.706168D+00  0.244011D+00 -0.575990D+00
     10   0.381779D+00 -0.236300D+00  0.968521D+00  0.118914D+00 -0.191050D-01
     11   0.114580D+01 -0.240496D+00  0.174738D+01 -0.127213D+01  0.638627D+00
     12  -0.375476D+00 -0.260574D+00 -0.662418D+00 -0.143467D+00  0.603600D-01
     13  -0.124171D+00  0.116107D+00 -0.160199D+00  0.184012D+00 -0.188142D+00
     14   0.407459D+00 -0.236256D+00  0.885442D+00  0.347211D+00 -0.859601D-01
     15   0.720173D+00  0.485787D-02  0.585621D+00 -0.201900D+00  0.608905D+00
     16  -0.281898D+00 -0.536785D-01 -0.320124D+00  0.205888D+00 -0.142601D+00
               961           962           963           964           965 
      1  -0.149778D+03 -0.149755D+03 -0.149735D+03 -0.149692D+03 -0.149660D+03
      2  -0.480327D-01 -0.130180D+00 -0.304506D-01 -0.163278D-01 -0.303083D-01
      3  -0.290559D-01  0.121853D+00 -0.491944D-02 -0.154239D-01 -0.378697D-01
      4  -0.331512D-01  0.284661D-01 -0.786274D-02  0.551555D-01 -0.579622D-01
      5   0.159447D+00  0.453340D+00  0.106014D+00  0.545139D-01  0.104427D+00
      6   0.975833D-01 -0.426235D+00  0.192190D-01  0.497568D-01  0.125492D+00
      7   0.111920D+00 -0.911136D-01  0.252256D-01 -0.175603D+00  0.197815D+00
      8  -0.115302D+00 -0.125387D-01  0.360516D-01 -0.600667D-01 -0.299506D-01
      9  -0.379428D+00  0.175776D+00 -0.128548D+00  0.148205D+00 -0.383040D+00
     10   0.447539D+00 -0.879447D+00  0.190587D+00  0.326941D-01  0.247609D+00
     11   0.526690D+00  0.151092D+01  0.356846D+00  0.304492D+00  0.496722D+00
     12  -0.230079D+00  0.154935D+00 -0.113905D+00 -0.771023D-01 -0.274908D+00
     13   0.181904D+00  0.943732D-01  0.131090D+00  0.358532D-01  0.183328D+00
     14   0.134879D+00 -0.792491D+00  0.335773D-01  0.242700D-01 -0.111632D-01
     15   0.350752D+00 -0.368080D+00  0.156696D+00  0.501645D-01  0.299867D+00
     16  -0.429705D-02  0.197977D+00  0.266711D-01 -0.481357D-01 -0.473071D-01
               966           967           968           969           970 
      1  -0.149655D+03 -0.149611D+03 -0.149561D+03 -0.149540D+03 -0.149532D+03
      2   0.923964D-01 -0.138933D-01 -0.554367D-02 -0.707651D-01  0.361593D-01
      3  -0.744619D-01 -0.604747D-02  0.133556D-01 -0.846095D-01 -0.191028D-02
      4  -0.852153D-02  0.221051D-01 -0.830206D-02 -0.732208D-01 -0.160799D-01
      5  -0.360277D+00  0.537837D-01 -0.150391D-01  0.264878D+00 -0.152302D+00
      6   0.290817D+00  0.179655D-01 -0.185509D-01  0.315556D+00  0.175991D-01
      7   0.308689D-01 -0.746145D-01  0.304613D-01  0.270290D+00  0.705700D-01
      8   0.488104D-01 -0.246581D-01 -0.719360D-02 -0.940819D-01 -0.108543D+00
      9   0.724747D-02  0.334898D-01 -0.217343D-01 -0.680877D+00 -0.275736D+00
     10   0.377112D+00  0.710182D-01  0.101960D+00  0.878187D+00 -0.272915D-01
     11  -0.190014D+01  0.186938D+00 -0.714318D+00  0.122214D+01 -0.755505D+00
     12  -0.269457D+00  0.115958D+00 -0.312618D+00 -0.112337D+00 -0.631179D-01
     13   0.866090D-01  0.460215D-02  0.544040D-01 -0.273852D+00 -0.392129D-01
     14   0.906346D+00 -0.692771D-01  0.574087D+00  0.679507D+00  0.153590D+00
     15   0.205107D+00 -0.103473D+00  0.146576D+00  0.508602D+00  0.162653D+00
     16  -0.887707D-01  0.677124D-01 -0.397114D-01 -0.202298D+00 -0.152281D+00
               971           972           973           974           975 
      1  -0.149485D+03 -0.149447D+03 -0.149436D+03 -0.149386D+03 -0.149364D+03
      2  -0.563022D-01  0.653141D-01 -0.439747D-01  0.429628D-01  0.921375D-01
      3   0.690469D-01 -0.181373D-01  0.120439D+00 -0.246496D-01 -0.632124D-01
      4  -0.606146D-01 -0.739567D-02 -0.142246D-01  0.756396D-01 -0.144945D-01
      5   0.218028D+00 -0.258141D+00  0.176525D+00 -0.165911D+00 -0.363624D+00
      6  -0.259689D+00  0.841563D-01 -0.457658D+00  0.936566D-01  0.246502D+00
      7   0.227646D+00  0.231854D-01  0.434812D-01 -0.281778D+00  0.605416D-01
      8  -0.997541D-01  0.148282D-01 -0.707742D-01  0.142699D+00  0.396565D-01
      9  -0.485092D+00 -0.122084D-01 -0.128162D+00  0.634002D+00 -0.465042D-01
     10  -0.440273D+00  0.686181D-01 -0.907213D+00  0.137368D+00  0.423855D+00
     11   0.111333D+01 -0.114844D+01  0.947725D+00 -0.887238D+00 -0.169363D+01
     12   0.155263D+00 -0.149758D+00  0.238637D+00 -0.185651D+00 -0.247558D+00
     13  -0.142705D+00  0.813053D-02  0.407243D-01  0.259849D+00 -0.263985D-01
     14  -0.653814D+00  0.269235D+00 -0.112334D+01  0.288415D+00  0.743091D+00
     15   0.335602D+00  0.140691D+00  0.610884D-01 -0.532332D+00  0.192842D+00
     16   0.905909D-01 -0.121985D-01  0.198411D+00  0.118579D-02 -0.733498D-01
               976           977           978           979           980 
      1  -0.149301D+03 -0.149282D+03 -0.149205D+03 -0.149112D+03 -0.148835D+03
      2  -0.297114D-01 -0.229829D-02  0.374383D-01  0.114890D-01  0.993636D-02
      3  -0.844176D-01 -0.385519D-01  0.624607D-01  0.222442D-01  0.150006D-01
      4   0.898161D-01  0.522319D-01 -0.108893D+00 -0.299813D-01 -0.249391D-01
      5   0.127689D+00 -0.413598D-01 -0.161049D+00 -0.595914D-01 -0.642026D-01
      6   0.311524D+00  0.181875D+00 -0.231156D+00 -0.805152D-01 -0.365560D-01
      7  -0.347252D+00 -0.193128D+00  0.426991D+00  0.120320D+00  0.962531D-01
      8   0.228782D+00  0.137406D+00 -0.246736D+00 -0.573774D-01 -0.413838D-01
      9   0.782791D+00  0.466999D+00 -0.945909D+00 -0.255134D+00 -0.196844D+00
     10   0.759267D+00  0.433495D+00 -0.619337D+00 -0.184125D+00 -0.103343D+00
     11   0.337597D+00 -0.222032D+00 -0.794392D+00 -0.534855D+00 -0.153741D+00
     12  -0.313457D+00 -0.211551D+00  0.179920D+00 -0.526626D-01  0.137159D-01
     13   0.270271D+00  0.574937D-01 -0.322560D+00 -0.510813D-01 -0.891174D-01
     14   0.867392D+00  0.347522D+00 -0.412165D+00 -0.130155D-02 -0.523246D-01
     15  -0.876024D+00 -0.535480D+00  0.111240D+01  0.333944D+00  0.242083D+00
     16  -0.716338D-01 -0.130921D+00 -0.826878D-02 -0.509267D-01  0.154460D+00
 Unable to Open any file for archive entry.
 1\1\GINC-HEL25\SP\RSVWN5 TD-FC\Gen\C2H6O1\SABYASACHI\21-Mar-2022\0\\#P
  TD(Nstates=10000) svwn5/Gen SCF(maxcycles=100) Int(Grid=ultrafine)\\x
 GDB7_00001_tier4.com\\0,1\C,0,-1.208422,-0.239069,-0.021917\C,0,0.0838
 93,0.553452,0.046734\O,0,1.233467,-0.256002,-0.105864\H,0,-2.071999,0.
 425136,0.0517\H,0,-1.27067,-0.957756,0.799731\H,0,-1.270625,-0.78828,-
 0.962327\H,0,0.13003,1.119197,0.986112\H,0,0.125952,1.277026,-0.768547
 \H,0,1.236751,-0.913605,0.591341\\Version=EM64L-G16RevC.01\State=1-A\H
 F=-153.6349394\RMSD=3.604e-09\PG=C01 [X(C2H6O1)]\\@
 The archive entry for this job was punched.


 "THE TIME HAS COME", THE WALRUS SAID,
 "TO TALK OF MANY THINGS,
 OF SHOES AND SHIPS AND SEALING WAX,
 OF CABBAGES AND KINGS,
 AND WHY THE SEA IS BOILING HOT,
 AND WHETHER PIGS HAVE WINGS."
 Job cpu time:       0 days  0 hours 12 minutes 17.1 seconds.
 Elapsed time:       0 days  0 hours  1 minutes 32.7 seconds.
 File lengths (MBytes):  RWF=    480 Int=      0 D2E=      0 Chk=    291 Scr=      1
 Normal termination of Gaussian 16 at Mon Mar 21 19:59:02 2022.
