 Entering Gaussian System, Link 0=g16
 Input=000022.com
 Output=000022.log
 Initial command:
 /home/sabyasachi/g16/l1.exe "/scratch/sabyasachi/PBS_7975859.helios/Gau-23789.inp" -scrdir="/scratch/sabyasachi/PBS_7975859.helios/"
 Entering Link 1 = /home/sabyasachi/g16/l1.exe PID=     23791.
  
 Copyright (c) 1988-2019, Gaussian, Inc.  All Rights Reserved.
  
 This is part of the Gaussian(R) 16 program.  It is based on
 the Gaussian(R) 09 system (copyright 2009, Gaussian, Inc.),
 the Gaussian(R) 03 system (copyright 2003, Gaussian, Inc.),
 the Gaussian(R) 98 system (copyright 1998, Gaussian, Inc.),
 the Gaussian(R) 94 system (copyright 1995, Gaussian, Inc.),
 the Gaussian 92(TM) system (copyright 1992, Gaussian, Inc.),
 the Gaussian 90(TM) system (copyright 1990, Gaussian, Inc.),
 the Gaussian 88(TM) system (copyright 1988, Gaussian, Inc.),
 the Gaussian 86(TM) system (copyright 1986, Carnegie Mellon
 University), and the Gaussian 82(TM) system (copyright 1983,
 Carnegie Mellon University). Gaussian is a federally registered
 trademark of Gaussian, Inc.
  
 This software contains proprietary and confidential information,
 including trade secrets, belonging to Gaussian, Inc.
  
 This software is provided under written license and may be
 used, copied, transmitted, or stored only in accord with that
 written license.
  
 The following legend is applicable only to US Government
 contracts under FAR:
  
                    RESTRICTED RIGHTS LEGEND
  
 Use, reproduction and disclosure by the US Government is
 subject to restrictions as set forth in subparagraphs (a)
 and (c) of the Commercial Computer Software - Restricted
 Rights clause in FAR 52.227-19.
  
 Gaussian, Inc.
 340 Quinnipiac St., Bldg. 40, Wallingford CT 06492
  
  
 ---------------------------------------------------------------
 Warning -- This program may not be used in any manner that
 competes with the business of Gaussian, Inc. or will provide
 assistance to any competitor of Gaussian, Inc.  The licensee
 of this program is prohibited from giving any competitor of
 Gaussian, Inc. access to this program.  By using this program,
 the user acknowledges that Gaussian, Inc. is engaged in the
 business of creating and licensing software in the field of
 computational chemistry and represents and warrants to the
 licensee that it is not a competitor of Gaussian, Inc. and that
 it will not use this program in any manner prohibited above.
 ---------------------------------------------------------------
  

 Cite this work as:
 Gaussian 16, Revision C.01,
 M. J. Frisch, G. W. Trucks, H. B. Schlegel, G. E. Scuseria, 
 M. A. Robb, J. R. Cheeseman, G. Scalmani, V. Barone, 
 G. A. Petersson, H. Nakatsuji, X. Li, M. Caricato, A. V. Marenich, 
 J. Bloino, B. G. Janesko, R. Gomperts, B. Mennucci, H. P. Hratchian, 
 J. V. Ortiz, A. F. Izmaylov, J. L. Sonnenberg, D. Williams-Young, 
 F. Ding, F. Lipparini, F. Egidi, J. Goings, B. Peng, A. Petrone, 
 T. Henderson, D. Ranasinghe, V. G. Zakrzewski, J. Gao, N. Rega, 
 G. Zheng, W. Liang, M. Hada, M. Ehara, K. Toyota, R. Fukuda, 
 J. Hasegawa, M. Ishida, T. Nakajima, Y. Honda, O. Kitao, H. Nakai, 
 T. Vreven, K. Throssell, J. A. Montgomery, Jr., J. E. Peralta, 
 F. Ogliaro, M. J. Bearpark, J. J. Heyd, E. N. Brothers, K. N. Kudin, 
 V. N. Staroverov, T. A. Keith, R. Kobayashi, J. Normand, 
 K. Raghavachari, A. P. Rendell, J. C. Burant, S. S. Iyengar, 
 J. Tomasi, M. Cossi, J. M. Millam, M. Klene, C. Adamo, R. Cammi, 
 J. W. Ochterski, R. L. Martin, K. Morokuma, O. Farkas, 
 J. B. Foresman, and D. J. Fox, Gaussian, Inc., Wallingford CT, 2019.
 
 ******************************************
 Gaussian 16:  EM64L-G16RevC.01  3-Jul-2019
                21-Mar-2022 
 ******************************************
 %mem=64gb
 %nproc=8
 Will use up to    8 processors via shared memory.
 ---------------------------------------------------------------------
 #P TD(Nstates=10000) svwn5/Gen SCF(maxcycles=100) Int(Grid=ultrafine)
 ---------------------------------------------------------------------
 1/38=1,172=1/1;
 2/12=2,17=6,18=5,40=1/2;
 3/5=7,11=9,25=1,30=1,74=201,75=-5/1,2,3,8;
 4//1;
 5/5=2,7=100,38=5/2;
 8/6=1,10=1,108=10000/1;
 9/41=10000,42=1,70=2/14;
 6/7=2,8=2,9=2,10=2/1;
 99/5=1,9=1/99;
 Leave Link    1 at Mon Mar 21 20:02:37 2022, MaxMem=  8589934592 cpu:               0.4 elap:               0.1
 (Enter /home/sabyasachi/g16/l101.exe)
 ---------------------
 xGDB7_00001_tier4.com
 ---------------------
 Symbolic Z-matrix:
 Charge =  0 Multiplicity = 1
 6                     0.92625  -0.71906   0. 
 6                     0.        0.45928   0. 
 8                    -1.197     0.38714   0. 
 1                     1.57597  -0.66868   0.8777 
 1                     1.57597  -0.66868  -0.8777 
 1                     0.36673  -1.65224   0. 
 1                     0.49981   1.45118   0. 
 
 ITRead=  0  0  0  0  0  0  0
 MicOpt= -1 -1 -1 -1 -1 -1 -1
 NAtoms=      7 NQM=        7 NQMF=       0 NMMI=      0 NMMIF=      0
                NMic=       0 NMicF=      0.
                    Isotopes and Nuclear Properties:
 (Nuclear quadrupole moments (NQMom) in fm**2, nuclear magnetic moments (NMagM)
  in nuclear magnetons)

  Atom         1           2           3           4           5           6           7
 IAtWgt=          12          12          16           1           1           1           1
 AtmWgt=  12.0000000  12.0000000  15.9949146   1.0078250   1.0078250   1.0078250   1.0078250
 NucSpn=           0           0           0           1           1           1           1
 AtZEff=  -0.0000000  -0.0000000  -0.0000000  -0.0000000  -0.0000000  -0.0000000  -0.0000000
 NQMom=    0.0000000   0.0000000   0.0000000   0.0000000   0.0000000   0.0000000   0.0000000
 NMagM=    0.0000000   0.0000000   0.0000000   2.7928460   2.7928460   2.7928460   2.7928460
 AtZNuc=   6.0000000   6.0000000   8.0000000   1.0000000   1.0000000   1.0000000   1.0000000
 Leave Link  101 at Mon Mar 21 20:02:37 2022, MaxMem=  8589934592 cpu:               0.7 elap:               0.1
 (Enter /home/sabyasachi/g16/l202.exe)
                          Input orientation:                          
 ---------------------------------------------------------------------
 Center     Atomic      Atomic             Coordinates (Angstroms)
 Number     Number       Type             X           Y           Z
 ---------------------------------------------------------------------
      1          6           0        0.926252   -0.719055    0.000000
      2          6           0        0.000000    0.459276    0.000000
      3          8           0       -1.196998    0.387135    0.000000
      4          1           0        1.575966   -0.668677    0.877698
      5          1           0        1.575966   -0.668677   -0.877698
      6          1           0        0.366734   -1.652236    0.000000
      7          1           0        0.499812    1.451182    0.000000
 ---------------------------------------------------------------------
                    Distance matrix (angstroms):
                    1          2          3          4          5
     1  C    0.000000
     2  C    1.498802   0.000000
     3  O    2.394128   1.199170   0.000000
     4  H    1.093170   2.127510   3.094256   0.000000
     5  H    1.093170   2.127510   3.094256   1.755396   0.000000
     6  H    1.088066   2.143123   2.569882   1.788850   1.788850
     7  H    2.211737   1.110716   2.002838   2.534218   2.534218
                    6          7
     6  H    0.000000
     7  H    3.106270   0.000000
 Stoichiometry    C2H4O
 Framework group  CS[SG(C2H2O),X(H2)]
 Deg. of freedom    10
 Full point group                 CS      NOp   2
 Largest Abelian subgroup         CS      NOp   2
 Largest concise Abelian subgroup CS      NOp   2
                         Standard orientation:                         
 ---------------------------------------------------------------------
 Center     Atomic      Atomic             Coordinates (Angstroms)
 Number     Number       Type             X           Y           Z
 ---------------------------------------------------------------------
      1          6           0        0.926251   -0.719055    0.000000
      2          6           0        0.000000    0.459276    0.000000
      3          8           0       -1.196998    0.387136    0.000000
      4          1           0        1.575965   -0.668678    0.877698
      5          1           0        1.575965   -0.668678   -0.877698
      6          1           0        0.366733   -1.652236    0.000000
      7          1           0        0.499813    1.451182    0.000000
 ---------------------------------------------------------------------
 Rotational constants (GHZ):          57.4985089          10.2267038           9.1717854
 Leave Link  202 at Mon Mar 21 20:02:37 2022, MaxMem=  8589934592 cpu:               0.1 elap:               0.0
 (Enter /home/sabyasachi/g16/l301.exe)
 General basis read from cards:  (5D, 7F)
 Centers:       4      5      6      7
 S 3 1.00
     Exponent=  1.3010701000D+01 Coefficients=  1.9682158000D-02
     Exponent=  1.9622572000D+00 Coefficients=  1.3796524000D-01
     Exponent=  4.4453796000D-01 Coefficients=  4.7831935000D-01
 S 1 1.00
     Exponent=  1.2194962000D-01 Coefficients=  1.0000000000D+00
 P 1 1.00
     Exponent=  8.0000000000D-01 Coefficients=  1.0000000000D+00
 P 1 1.00
     Exponent=  1.1704099050D-01 Coefficients=  1.0000000000D+00
 ****
 Centers:       1      2
 S 5 1.00
     Exponent=  1.2384016938D+03 Coefficients=  5.4568832082D-03
     Exponent=  1.8629004992D+02 Coefficients=  4.0638409211D-02
     Exponent=  4.2251176346D+01 Coefficients=  1.8025593888D-01
     Exponent=  1.1676557932D+01 Coefficients=  4.6315121755D-01
     Exponent=  3.5930506482D+00 Coefficients=  4.4087173314D-01
 S 1 1.00
     Exponent=  4.0245147363D-01 Coefficients=  1.0000000000D+00
 S 1 1.00
     Exponent=  1.3090182668D-01 Coefficients=  1.0000000000D+00
 S 1 1.00
     Exponent=  6.7053540256D-02 Coefficients=  1.0000000000D+00
 P 3 1.00
     Exponent=  9.4680970621D+00 Coefficients=  3.8387871728D-02
     Exponent=  2.0103545142D+00 Coefficients=  2.1117025112D-01
     Exponent=  5.4771004707D-01 Coefficients=  5.1328172114D-01
 P 1 1.00
     Exponent=  1.5268613795D-01 Coefficients=  1.0000000000D+00
 D 1 1.00
     Exponent=  8.0000000000D-01 Coefficients=  1.0000000000D+00
 D 1 1.00
     Exponent=  1.1713185140D-01 Coefficients=  1.0000000000D+00
 ****
 Centers:       3
 S 5 1.00
     Exponent=  2.2661767785D+03 Coefficients= -5.3431809926D-03
     Exponent=  3.4087010191D+02 Coefficients= -3.9890039230D-02
     Exponent=  7.7363135167D+01 Coefficients= -1.7853911985D-01
     Exponent=  2.1479644940D+01 Coefficients= -4.6427684959D-01
     Exponent=  6.6589433124D+00 Coefficients= -4.4309745172D-01
 S 1 1.00
     Exponent=  8.0975975668D-01 Coefficients=  1.0000000000D+00
 S 1 1.00
     Exponent=  2.5530772234D-01 Coefficients=  1.0000000000D+00
 S 1 1.00
     Exponent=  7.6572453250D-02 Coefficients=  1.0000000000D+00
 P 3 1.00
     Exponent=  1.7721504317D+01 Coefficients=  4.3394573193D-02
     Exponent=  3.8635505440D+00 Coefficients=  2.3094120765D-01
     Exponent=  1.0480920883D+00 Coefficients=  5.1375311064D-01
 P 1 1.00
     Exponent=  2.7641544411D-01 Coefficients=  1.0000000000D+00
 P 1 1.00
     Exponent=  6.9002276350D-02 Coefficients=  1.0000000000D+00
 D 1 1.00
     Exponent=  1.2000000000D+00 Coefficients=  1.0000000000D+00
 D 1 1.00
     Exponent=  1.7992024323D-01 Coefficients=  1.0000000000D+00
 ****
 Ernie: Thresh=  0.10000D-02 Tol=  0.10000D-05 Strict=F.
 There are    70 symmetry adapted cartesian basis functions of A'  symmetry.
 There are    31 symmetry adapted cartesian basis functions of A"  symmetry.
 There are    64 symmetry adapted basis functions of A'  symmetry.
 There are    31 symmetry adapted basis functions of A"  symmetry.
    95 basis functions,   139 primitive gaussians,   101 cartesian basis functions
    12 alpha electrons       12 beta electrons
       nuclear repulsion energy        69.9674668624 Hartrees.
 IExCor=  201 DFT=T Ex=S Corr=VWN5 ExCW=0 ScaHFX=  0.000000
 ScaDFX=  1.000000  1.000000  1.000000  1.000000 ScalE2=  1.000000  1.000000
 IRadAn=      5 IRanWt=     -1 IRanGd=            0 ICorTp=0 IEmpDi=  4
 NAtoms=    7 NActive=    7 NUniq=    6 SFac= 1.36D+00 NAtFMM=   60 NAOKFM=F Big=F
 Integral buffers will be    131072 words long.
 Regular integral format.
 Two-electron integral symmetry is turned on.
 Leave Link  301 at Mon Mar 21 20:02:37 2022, MaxMem=  8589934592 cpu:               0.6 elap:               0.1
 (Enter /home/sabyasachi/g16/l302.exe)
 NPDir=0 NMtPBC=     1 NCelOv=     1 NCel=       1 NClECP=     1 NCelD=      1
         NCelK=      1 NCelE2=     1 NClLst=     1 CellRange=     0.0.
 One-electron integrals computed using PRISM.
 One-electron integral symmetry used in STVInt
 NBasis=    95 RedAO= T EigKep=  2.98D-04  NBF=    64    31
 NBsUse=    95 1.00D-06 EigRej= -1.00D+00 NBFU=    64    31
 Precomputing XC quadrature grid using
 IXCGrd= 4 IRadAn=           5 IRanWt=          -1 IRanGd=           0 AccXCQ= 0.00D+00.
 Generated NRdTot=       0 NPtTot=           0 NUsed=           0 NTot=          32
 NSgBfM=   101   101   101   101   101 MxSgAt=     7 MxSgA2=     7.
 Leave Link  302 at Mon Mar 21 20:02:37 2022, MaxMem=  8589934592 cpu:               1.0 elap:               0.2
 (Enter /home/sabyasachi/g16/l303.exe)
 DipDrv:  MaxL=1.
 Leave Link  303 at Mon Mar 21 20:02:37 2022, MaxMem=  8589934592 cpu:               0.2 elap:               0.0
 (Enter /home/sabyasachi/g16/l308.exe)
 Leave Link  308 at Mon Mar 21 20:02:37 2022, MaxMem=  8589934592 cpu:               0.2 elap:               0.1
 (Enter /home/sabyasachi/g16/l401.exe)
 ExpMin= 6.71D-02 ExpMax= 2.27D+03 ExpMxC= 3.41D+02 IAcc=3 IRadAn=         5 AccDes= 0.00D+00
 Harris functional with IExCor=  201 and IRadAn=       5 diagonalized for initial guess.
 HarFok:  IExCor=  201 AccDes= 0.00D+00 IRadAn=         5 IDoV= 1 UseB2=F ITyADJ=14
 ICtDFT=  3500011 ScaDFX=  1.000000  1.000000  1.000000  1.000000
 FoFCou: FMM=F IPFlag=           0 FMFlag=      100000 FMFlg1=           0
         NFxFlg=           0 DoJE=T BraDBF=F KetDBF=T FulRan=T
         wScrn=  0.000000 ICntrl=       500 IOpCl=  0 I1Cent=   200000004 NGrid=           0
         NMat0=    1 NMatS0=      1 NMatT0=    0 NMatD0=    1 NMtDS0=    0 NMtDT0=    0
 Petite list used in FoFCou.
 Harris En= -152.535305353878    
 JPrj=0 DoOrth=F DoCkMO=F.
 Initial guess orbital symmetries:
       Occupied  (A') (A') (A') (A') (A') (A') (A') (A') (A") (A')
                 (A") (A')
       Virtual   (A") (A') (A') (A") (A') (A') (A') (A") (A') (A')
                 (A") (A') (A') (A") (A") (A') (A') (A') (A') (A")
                 (A') (A") (A') (A') (A') (A") (A') (A") (A') (A')
                 (A') (A") (A') (A') (A") (A") (A') (A') (A') (A")
                 (A") (A') (A') (A') (A') (A") (A') (A') (A") (A')
                 (A') (A') (A") (A') (A") (A') (A") (A") (A') (A")
                 (A') (A') (A') (A") (A') (A') (A") (A') (A') (A")
                 (A') (A') (A") (A') (A') (A') (A") (A") (A') (A')
                 (A") (A') (A')
 The electronic state of the initial guess is 1-A'.
 Leave Link  401 at Mon Mar 21 20:02:38 2022, MaxMem=  8589934592 cpu:               1.6 elap:               0.2
 (Enter /home/sabyasachi/g16/l502.exe)
 Keep J ints in memory in symmetry-blocked form, NReq=17817956.
 FoFCou: FMM=F IPFlag=           0 FMFlag=           0 FMFlg1=           0
         NFxFlg=           0 DoJE=F BraDBF=F KetDBF=F FulRan=T
         wScrn=  0.000000 ICntrl=       600 IOpCl=  0 I1Cent=           0 NGrid=           0
         NMat0=    1 NMatS0=   4560 NMatT0=    0 NMatD0=    1 NMtDS0=    0 NMtDT0=    0
 Petite list used in FoFCou.
 Closed shell SCF:
 Using DIIS extrapolation, IDIIS=  1040.
 NGot=  8589934592 LenX=  8584613300 LenY=  8584602658
 Requested convergence on RMS density matrix=1.00D-08 within 100 cycles.
 Requested convergence on MAX density matrix=1.00D-06.
 Requested convergence on             energy=1.00D-06.
 No special actions if energy rises.
 Integral accuracy reduced to 1.0D-05 until final iterations.

 Cycle   1  Pass 0  IDiag  1:
 E= -152.349554559348    
 DIIS: error= 3.27D-02 at cycle   1 NSaved=   1.
 NSaved= 1 IEnMin= 1 EnMin= -152.349554559348     IErMin= 1 ErrMin= 3.27D-02
 ErrMax= 3.27D-02  0.00D+00 EMaxC= 1.00D-01 BMatC= 9.88D-02 BMatP= 9.88D-02
 IDIUse=3 WtCom= 6.73D-01 WtEn= 3.27D-01
 Coeff-Com:  0.100D+01
 Coeff-En:   0.100D+01
 Coeff:      0.100D+01
 Gap=     0.079 Goal=   None    Shift=    0.000
 GapD=    0.079 DampG=0.500 DampE=0.500 DampFc=0.2500 IDamp=-1.
 Damping current iteration by 2.50D-01
 RMSDP=1.07D-02 MaxDP=2.07D-01              OVMax= 2.86D-01

 Cycle   2  Pass 0  IDiag  1:
 E= -152.382047044594     Delta-E=       -0.032492485246 Rises=F Damp=T
 DIIS: error= 1.47D-02 at cycle   2 NSaved=   2.
 NSaved= 2 IEnMin= 2 EnMin= -152.382047044594     IErMin= 2 ErrMin= 1.47D-02
 ErrMax= 1.47D-02  0.00D+00 EMaxC= 1.00D-01 BMatC= 1.17D-02 BMatP= 9.88D-02
 IDIUse=3 WtCom= 8.53D-01 WtEn= 1.47D-01
 Coeff-Com: -0.253D+00 0.125D+01
 Coeff-En:   0.411D-01 0.959D+00
 Coeff:     -0.210D+00 0.121D+01
 Gap=     0.134 Goal=   None    Shift=    0.000
 RMSDP=3.10D-03 MaxDP=6.99D-02 DE=-3.25D-02 OVMax= 2.18D-01

 Cycle   3  Pass 0  IDiag  1:
 E= -152.418878437910     Delta-E=       -0.036831393315 Rises=F Damp=F
 DIIS: error= 1.35D-02 at cycle   3 NSaved=   3.
 NSaved= 3 IEnMin= 3 EnMin= -152.418878437910     IErMin= 3 ErrMin= 1.35D-02
 ErrMax= 1.35D-02  0.00D+00 EMaxC= 1.00D-01 BMatC= 3.17D-02 BMatP= 1.17D-02
 IDIUse=2 WtCom= 0.00D+00 WtEn= 1.00D+00
 EnCoef did   100 forward-backward iterations
 Coeff-En:   0.647D-01 0.309D-02 0.932D+00
 Coeff:      0.647D-01 0.309D-02 0.932D+00
 Gap=     0.108 Goal=   None    Shift=    0.000
 RMSDP=5.78D-03 MaxDP=1.49D-01 DE=-3.68D-02 OVMax= 2.84D-01

 Cycle   4  Pass 0  IDiag  1:
 E= -152.220532961772     Delta-E=        0.198345476137 Rises=F Damp=F
 DIIS: error= 3.95D-02 at cycle   4 NSaved=   4.
 NSaved= 4 IEnMin= 3 EnMin= -152.418878437910     IErMin= 3 ErrMin= 1.35D-02
 ErrMax= 3.95D-02  0.00D+00 EMaxC= 1.00D-01 BMatC= 2.75D-01 BMatP= 1.17D-02
 IDIUse=2 WtCom= 0.00D+00 WtEn= 1.00D+00
 Coeff-En:   0.000D+00 0.000D+00 0.826D+00 0.174D+00
 Coeff:      0.000D+00 0.000D+00 0.826D+00 0.174D+00
 Gap=     0.128 Goal=   None    Shift=    0.000
 RMSDP=3.23D-03 MaxDP=8.66D-02 DE= 1.98D-01 OVMax= 1.60D-01

 Cycle   5  Pass 0  IDiag  1:
 E= -152.427571039798     Delta-E=       -0.207038078026 Rises=F Damp=F
 DIIS: error= 1.13D-02 at cycle   5 NSaved=   5.
 NSaved= 5 IEnMin= 5 EnMin= -152.427571039798     IErMin= 5 ErrMin= 1.13D-02
 ErrMax= 1.13D-02  0.00D+00 EMaxC= 1.00D-01 BMatC= 2.26D-02 BMatP= 1.17D-02
 IDIUse=2 WtCom= 0.00D+00 WtEn= 1.00D+00
 Coeff-En:   0.000D+00 0.000D+00 0.436D+00 0.000D+00 0.564D+00
 Coeff:      0.000D+00 0.000D+00 0.436D+00 0.000D+00 0.564D+00
 Gap=     0.141 Goal=   None    Shift=    0.000
 RMSDP=1.55D-03 MaxDP=3.81D-02 DE=-2.07D-01 OVMax= 5.47D-02

 Cycle   6  Pass 0  IDiag  1:
 E= -152.447554271943     Delta-E=       -0.019983232144 Rises=F Damp=F
 DIIS: error= 1.60D-03 at cycle   6 NSaved=   6.
 NSaved= 6 IEnMin= 6 EnMin= -152.447554271943     IErMin= 6 ErrMin= 1.60D-03
 ErrMax= 1.60D-03  0.00D+00 EMaxC= 1.00D-01 BMatC= 2.44D-04 BMatP= 1.17D-02
 IDIUse=3 WtCom= 9.84D-01 WtEn= 1.60D-02
 Coeff-Com: -0.183D-01 0.254D-01 0.146D+00-0.299D-01 0.306D+00 0.571D+00
 Coeff-En:   0.000D+00 0.000D+00 0.000D+00 0.000D+00 0.000D+00 0.100D+01
 Coeff:     -0.180D-01 0.250D-01 0.144D+00-0.294D-01 0.301D+00 0.578D+00
 Gap=     0.141 Goal=   None    Shift=    0.000
 RMSDP=2.00D-04 MaxDP=5.20D-03 DE=-2.00D-02 OVMax= 4.01D-03

 Cycle   7  Pass 0  IDiag  1:
 E= -152.447790696543     Delta-E=       -0.000236424600 Rises=F Damp=F
 DIIS: error= 1.51D-04 at cycle   7 NSaved=   7.
 NSaved= 7 IEnMin= 7 EnMin= -152.447790696543     IErMin= 7 ErrMin= 1.51D-04
 ErrMax= 1.51D-04  0.00D+00 EMaxC= 1.00D-01 BMatC= 4.10D-06 BMatP= 2.44D-04
 IDIUse=3 WtCom= 9.98D-01 WtEn= 1.51D-03
 Coeff-Com:  0.725D-02-0.148D-01 0.138D-01-0.350D-02 0.445D-01 0.235D+00
 Coeff-Com:  0.718D+00
 Coeff-En:   0.000D+00 0.000D+00 0.000D+00 0.000D+00 0.000D+00 0.000D+00
 Coeff-En:   0.100D+01
 Coeff:      0.724D-02-0.148D-01 0.138D-01-0.349D-02 0.445D-01 0.235D+00
 Coeff:      0.718D+00
 Gap=     0.141 Goal=   None    Shift=    0.000
 RMSDP=2.44D-05 MaxDP=2.93D-04 DE=-2.36D-04 OVMax= 6.17D-04

 Cycle   8  Pass 0  IDiag  1:
 E= -152.447794416193     Delta-E=       -0.000003719650 Rises=F Damp=F
 DIIS: error= 2.74D-05 at cycle   8 NSaved=   8.
 NSaved= 8 IEnMin= 8 EnMin= -152.447794416193     IErMin= 8 ErrMin= 2.74D-05
 ErrMax= 2.74D-05  0.00D+00 EMaxC= 1.00D-01 BMatC= 9.96D-08 BMatP= 4.10D-06
 IDIUse=1 WtCom= 1.00D+00 WtEn= 0.00D+00
 Coeff-Com:  0.191D-02-0.296D-02 0.209D-02-0.787D-03 0.675D-02 0.466D-01
 Coeff-Com:  0.190D+00 0.756D+00
 Coeff:      0.191D-02-0.296D-02 0.209D-02-0.787D-03 0.675D-02 0.466D-01
 Coeff:      0.190D+00 0.756D+00
 Gap=     0.141 Goal=   None    Shift=    0.000
 RMSDP=3.42D-06 MaxDP=4.79D-05 DE=-3.72D-06 OVMax= 9.39D-05

 Initial convergence to 1.0D-05 achieved.  Increase integral accuracy.
 Cycle   9  Pass 1  IDiag  1:
 E= -152.447795136636     Delta-E=       -0.000000720443 Rises=F Damp=F
 DIIS: error= 6.29D-06 at cycle   1 NSaved=   1.
 NSaved= 1 IEnMin= 1 EnMin= -152.447795136636     IErMin= 1 ErrMin= 6.29D-06
 ErrMax= 6.29D-06  0.00D+00 EMaxC= 1.00D-01 BMatC= 6.63D-09 BMatP= 6.63D-09
 IDIUse=1 WtCom= 1.00D+00 WtEn= 0.00D+00
 Coeff-Com:  0.100D+01
 Coeff:      0.100D+01
 Gap=     0.141 Goal=   None    Shift=    0.000
 RMSDP=3.42D-06 MaxDP=4.79D-05 DE=-7.20D-07 OVMax= 1.22D-04

 Cycle  10  Pass 1  IDiag  1:
 E= -152.447795105769     Delta-E=        0.000000030866 Rises=F Damp=F
 DIIS: error= 1.78D-05 at cycle   2 NSaved=   2.
 NSaved= 2 IEnMin= 1 EnMin= -152.447795136636     IErMin= 1 ErrMin= 6.29D-06
 ErrMax= 1.78D-05  0.00D+00 EMaxC= 1.00D-01 BMatC= 4.58D-08 BMatP= 6.63D-09
 IDIUse=1 WtCom= 1.00D+00 WtEn= 0.00D+00
 Coeff-Com:  0.733D+00 0.267D+00
 Coeff:      0.733D+00 0.267D+00
 Gap=     0.141 Goal=   None    Shift=    0.000
 RMSDP=1.81D-06 MaxDP=5.79D-05 DE= 3.09D-08 OVMax= 9.21D-05

 Cycle  11  Pass 1  IDiag  1:
 E= -152.447795142378     Delta-E=       -0.000000036609 Rises=F Damp=F
 DIIS: error= 3.23D-06 at cycle   3 NSaved=   3.
 NSaved= 3 IEnMin= 3 EnMin= -152.447795142378     IErMin= 3 ErrMin= 3.23D-06
 ErrMax= 3.23D-06  0.00D+00 EMaxC= 1.00D-01 BMatC= 8.72D-10 BMatP= 6.63D-09
 IDIUse=1 WtCom= 1.00D+00 WtEn= 0.00D+00
 Coeff-Com:  0.365D+00 0.160D+00 0.475D+00
 Coeff:      0.365D+00 0.160D+00 0.475D+00
 Gap=     0.141 Goal=   None    Shift=    0.000
 RMSDP=3.84D-07 MaxDP=9.05D-06 DE=-3.66D-08 OVMax= 1.25D-05

 Cycle  12  Pass 1  IDiag  1:
 E= -152.447795143162     Delta-E=       -0.000000000784 Rises=F Damp=F
 DIIS: error= 5.07D-07 at cycle   4 NSaved=   4.
 NSaved= 4 IEnMin= 4 EnMin= -152.447795143162     IErMin= 4 ErrMin= 5.07D-07
 ErrMax= 5.07D-07  0.00D+00 EMaxC= 1.00D-01 BMatC= 3.89D-11 BMatP= 8.72D-10
 IDIUse=1 WtCom= 1.00D+00 WtEn= 0.00D+00
 Coeff-Com:  0.676D-01 0.349D-01 0.211D+00 0.687D+00
 Coeff:      0.676D-01 0.349D-01 0.211D+00 0.687D+00
 Gap=     0.141 Goal=   None    Shift=    0.000
 RMSDP=7.56D-08 MaxDP=2.54D-06 DE=-7.84D-10 OVMax= 2.07D-06

 Cycle  13  Pass 1  IDiag  1:
 E= -152.447795143201     Delta-E=       -0.000000000039 Rises=F Damp=F
 DIIS: error= 9.43D-08 at cycle   5 NSaved=   5.
 NSaved= 5 IEnMin= 5 EnMin= -152.447795143201     IErMin= 5 ErrMin= 9.43D-08
 ErrMax= 9.43D-08  0.00D+00 EMaxC= 1.00D-01 BMatC= 1.94D-12 BMatP= 3.89D-11
 IDIUse=1 WtCom= 1.00D+00 WtEn= 0.00D+00
 Coeff-Com:  0.673D-03 0.371D-02 0.482D-01 0.261D+00 0.687D+00
 Coeff:      0.673D-03 0.371D-02 0.482D-01 0.261D+00 0.687D+00
 Gap=     0.141 Goal=   None    Shift=    0.000
 RMSDP=2.21D-08 MaxDP=3.76D-07 DE=-3.91D-11 OVMax= 4.95D-07

 Cycle  14  Pass 1  IDiag  1:
 E= -152.447795143203     Delta-E=       -0.000000000001 Rises=F Damp=F
 DIIS: error= 3.90D-08 at cycle   6 NSaved=   6.
 NSaved= 6 IEnMin= 6 EnMin= -152.447795143203     IErMin= 6 ErrMin= 3.90D-08
 ErrMax= 3.90D-08  0.00D+00 EMaxC= 1.00D-01 BMatC= 1.19D-13 BMatP= 1.94D-12
 IDIUse=1 WtCom= 1.00D+00 WtEn= 0.00D+00
 Coeff-Com: -0.815D-03 0.147D-02 0.222D-01 0.128D+00 0.373D+00 0.476D+00
 Coeff:     -0.815D-03 0.147D-02 0.222D-01 0.128D+00 0.373D+00 0.476D+00
 Gap=     0.141 Goal=   None    Shift=    0.000
 RMSDP=4.79D-09 MaxDP=1.25D-07 DE=-1.28D-12 OVMax= 9.68D-08

 SCF Done:  E(RS-VWN5) =  -152.447795143     A.U. after   14 cycles
            NFock= 14  Conv=0.48D-08     -V/T= 2.0054
 KE= 1.516330602678D+02 PE=-4.978176502047D+02 EE= 1.237693279313D+02
 Leave Link  502 at Mon Mar 21 20:02:39 2022, MaxMem=  8589934592 cpu:               7.4 elap:               1.0
 (Enter /home/sabyasachi/g16/l801.exe)
 DoSCS=F DFT=T ScalE2(SS,OS)=  1.000000  1.000000
 ExpMin= 6.71D-02 ExpMax= 2.27D+03 ExpMxC= 3.41D+02 IAcc=3 IRadAn=         5 AccDes= 0.00D+00
 HarFok:  IExCor=  205 AccDes= 0.00D+00 IRadAn=         5 IDoV=-2 UseB2=F ITyADJ=14
 ICtDFT= 12500011 ScaDFX=  1.000000  1.000000  1.000000  1.000000
 Largest valence mixing into a core orbital is  7.92D-05
 Largest core mixing into a valence orbital is  1.57D-06
 Range of M.O.s used for correlation:     4    95
 NBasis=    95 NAE=    12 NBE=    12 NFC=     3 NFV=     0
 NROrb=     92 NOA=     9 NOB=     9 NVA=    83 NVB=    83

 **** Warning!!: The largest alpha MO coefficient is  0.29421213D+02

 Leave Link  801 at Mon Mar 21 20:02:39 2022, MaxMem=  8589934592 cpu:               0.5 elap:               0.1
 (Enter /home/sabyasachi/g16/l914.exe)
 RHF ground state
 Keep J ints in memory in symmetry-blocked form, NReq=638123968.
 FoFCou: FMM=F IPFlag=           0 FMFlag=           0 FMFlg1=           0
         NFxFlg=           0 DoJE=F BraDBF=F KetDBF=F FulRan=T
         wScrn=  0.000000 ICntrl=       600 IOpCl=  0 I1Cent=           0 NGrid=           0
         NMat0=    1 NMatS0=   4560 NMatT0=    0 NMatD0=    1 NMtDS0=    0 NMtDT0=    0
 Petite list used in FoFCou.
 MDV=  8589934592 DFT=T DoStab=F Mixed=F DoRPA=T DoScal=T NonHer=F
 Making orbital integer symmetry assigments:
 Orbital symmetries:
       Occupied  (A') (A') (A') (A') (A') (A') (A') (A") (A') (A')
                 (A") (A')
       Virtual   (A") (A') (A') (A") (A') (A') (A") (A') (A') (A")
                 (A') (A') (A') (A") (A") (A') (A') (A') (A") (A')
                 (A') (A") (A') (A') (A') (A") (A') (A") (A') (A')
                 (A') (A") (A') (A") (A') (A") (A') (A') (A') (A")
                 (A") (A') (A') (A') (A') (A") (A') (A') (A") (A')
                 (A') (A') (A") (A") (A') (A') (A") (A") (A') (A")
                 (A') (A') (A') (A") (A') (A') (A") (A') (A') (A")
                 (A') (A') (A") (A') (A') (A') (A") (A") (A') (A')
                 (A") (A') (A')
   747 initial guesses have been made.
 Convergence on wavefunction:    0.001000000000000
 Davidson Disk Diagonalization:  ConvIn= 1.00D-03 SkipCon=T Conv= 1.00D-03.
 Max sub-space:  2988 roots to seek:  1494 dimension of matrix:         1494
 *** WARNING: Number of orthogonal guesses is          747
 Iteration     1 Dimension   747 NMult     0 NNew    747
 CISAX will form   747 AO SS matrices at one time.
 NMat=   747 NSing=   747 JSym2X=-1.
 New state      4 was old state      5
 New state      5 was old state      6
 New state      6 was old state      7
 New state      7 was old state      8
 New state      8 was old state      4
 New state      9 was old state     10
 New state     10 was old state     11
 New state     11 was old state      9
 New state     12 was old state     13
 New state     13 was old state     14
 New state     14 was old state     17
 New state     15 was old state     16
 New state     16 was old state     15
 New state     17 was old state     18
 New state     18 was old state     19
 New state     19 was old state     20
 New state     20 was old state     21
 New state     21 was old state     22
 New state     22 was old state     23
 New state     23 was old state     24
 New state     24 was old state     12
 New state     31 was old state     36
 New state     32 was old state     35
 New state     34 was old state     37
 New state     35 was old state     34
 New state     36 was old state     31
 New state     37 was old state     38
 New state     38 was old state     39
 New state     39 was old state     40
 New state     40 was old state     41
 New state     41 was old state     42
 New state     42 was old state     32
 New state     45 was old state     46
 New state     46 was old state     48
 New state     47 was old state     45
 New state     48 was old state     50
 New state     50 was old state     52
 New state     51 was old state     54
 New state     52 was old state     53
 New state     53 was old state     47
 New state     54 was old state     56
 New state     55 was old state     57
 New state     56 was old state     51
 New state     57 was old state     61
 New state     61 was old state     66
 New state     62 was old state     64
 New state     64 was old state     62
 New state     65 was old state     69
 New state     66 was old state     65
 New state     68 was old state     72
 New state     69 was old state     68
 New state     70 was old state     71
 New state     71 was old state     74
 New state     72 was old state     70
 New state     74 was old state     77
 New state     76 was old state     89
 New state     77 was old state     76
 New state     78 was old state     81
 New state     79 was old state     80
 New state     80 was old state     83
 New state     81 was old state     82
 New state     82 was old state     84
 New state     83 was old state     78
 New state     84 was old state     85
 New state     85 was old state     86
 New state     86 was old state     87
 New state     87 was old state     88
 New state     88 was old state     90
 New state     89 was old state     92
 New state     90 was old state     98
 New state     92 was old state     97
 New state     93 was old state     94
 New state     94 was old state     96
 New state     95 was old state     93
 New state     96 was old state    101
 New state     97 was old state    100
 No map to state     98
 New state     99 was old state     95
 New state    100 was old state    102
 New state    101 was old state    107
 New state    102 was old state    103
 New state    103 was old state    104
 New state    104 was old state    105
 New state    105 was old state    106
 New state    106 was old state    108
 New state    107 was old state     99
 New state    108 was old state    109
 No map to state    109
 New state    110 was old state    112
 New state    111 was old state    110
 New state    112 was old state    111
 New state    117 was old state    118
 New state    118 was old state    117
 New state    124 was old state    126
 New state    125 was old state    129
 New state    126 was old state    127
 New state    127 was old state    128
 New state    128 was old state    124
 New state    129 was old state    130
 New state    130 was old state    125
 New state    132 was old state    134
 New state    133 was old state    132
 New state    134 was old state    136
 New state    136 was old state    140
 New state    137 was old state    141
 New state    138 was old state    137
 New state    139 was old state    133
 New state    140 was old state    139
 New state    141 was old state    138
 New state    146 was old state    147
 New state    147 was old state    146
 New state    148 was old state    150
 New state    149 was old state    152
 New state    150 was old state    149
 New state    152 was old state    154
 New state    153 was old state    155
 New state    154 was old state    156
 New state    155 was old state    157
 New state    156 was old state    153
 New state    157 was old state    160
 New state    158 was old state    161
 New state    159 was old state    164
 New state    160 was old state    158
 New state    161 was old state    159
 New state    162 was old state    163
 New state    163 was old state    162
 New state    164 was old state    167
 New state    166 was old state    169
 New state    167 was old state    166
 New state    169 was old state    173
 New state    170 was old state    172
 New state    171 was old state    170
 New state    172 was old state    175
 New state    173 was old state    174
 New state    174 was old state    179
 New state    175 was old state    178
 New state    178 was old state    181
 New state    179 was old state    182
 New state    180 was old state    183
 New state    181 was old state    180
 New state    182 was old state    185
 New state    183 was old state    186
 New state    184 was old state    187
 New state    185 was old state    190
 New state    186 was old state    184
 New state    187 was old state    189
 New state    189 was old state    191
 New state    190 was old state    192
 New state    191 was old state    196
 New state    192 was old state    194
 New state    194 was old state    195
 New state    195 was old state    198
 New state    196 was old state    197
 New state    197 was old state    199
 New state    198 was old state    200
 New state    199 was old state    201
 New state    200 was old state    203
 New state    201 was old state    205
 New state    203 was old state    207
 New state    204 was old state    206
 New state    205 was old state    204
 New state    206 was old state    208
 New state    207 was old state    209
 New state    208 was old state    213
 New state    209 was old state    212
 New state    212 was old state    218
 New state    213 was old state    217
 New state    214 was old state    215
 New state    215 was old state    219
 New state    216 was old state    221
 New state    217 was old state    216
 New state    218 was old state    220
 New state    219 was old state    222
 New state    220 was old state    229
 New state    221 was old state    223
 New state    222 was old state    224
 New state    223 was old state    226
 New state    224 was old state    230
 New state    225 was old state    227
 New state    226 was old state    232
 New state    227 was old state    225
 New state    228 was old state    231
 New state    229 was old state    234
 New state    230 was old state    233
 New state    231 was old state    236
 New state    232 was old state    228
 New state    233 was old state    243
 New state    234 was old state    239
 New state    235 was old state    240
 New state    236 was old state    241
 New state    237 was old state    235
 New state    239 was old state    242
 New state    240 was old state    248
 New state    241 was old state    260
 New state    242 was old state    244
 New state    243 was old state    245
 New state    244 was old state    247
 New state    245 was old state    246
 New state    246 was old state    249
 New state    247 was old state    254
 New state    248 was old state    253
 No map to state    249
 New state    251 was old state    252
 New state    252 was old state    237
 New state    253 was old state    251
 New state    254 was old state    255
 New state    255 was old state    256
 New state    256 was old state    257
 New state    257 was old state    258
 New state    258 was old state    259
 New state    259 was old state    261
 New state    260 was old state    270
 New state    261 was old state    264
 New state    262 was old state    265
 New state    263 was old state    266
 New state    264 was old state    263
 New state    265 was old state    267
 New state    266 was old state    269
 New state    267 was old state    271
 New state    268 was old state    272
 New state    269 was old state    268
 New state    270 was old state    262
 New state    271 was old state    275
 New state    272 was old state    273
 New state    273 was old state    280
 New state    275 was old state    276
 New state    276 was old state    277
 New state    277 was old state    281
 New state    279 was old state    282
 New state    280 was old state    279
 New state    281 was old state    283
 New state    282 was old state    286
 New state    283 was old state    284
 New state    284 was old state    288
 New state    286 was old state    292
 New state    288 was old state    298
 New state    292 was old state    293
 New state    293 was old state    294
 New state    294 was old state    295
 New state    295 was old state    296
 New state    296 was old state    297
 New state    297 was old state    299
 New state    298 was old state    300
 New state    299 was old state    302
 New state    300 was old state    301
 New state    301 was old state    305
 New state    302 was old state    303
 New state    303 was old state    304
 New state    304 was old state    306
 New state    305 was old state    311
 New state    306 was old state    308
 New state    308 was old state    309
 New state    309 was old state    314
 New state    311 was old state    312
 New state    312 was old state    315
 New state    314 was old state    320
 New state    315 was old state    316
 New state    316 was old state    318
 New state    318 was old state    319
 New state    319 was old state    324
 New state    320 was old state    321
 New state    321 was old state    322
 New state    322 was old state    332
 New state    324 was old state    326
 New state    326 was old state    327
 New state    327 was old state    329
 No map to state    329
 New state    330 was old state    333
 New state    331 was old state    330
 New state    332 was old state    331
 New state    333 was old state    337
 New state    335 was old state    339
 New state    337 was old state    335
 New state    339 was old state    342
 New state    340 was old state    341
 New state    341 was old state    343
 New state    342 was old state    344
 New state    343 was old state    340
 New state    344 was old state    345
 New state    345 was old state    346
 New state    346 was old state    348
 New state    347 was old state    362
 New state    348 was old state    347
 New state    350 was old state    351
 New state    351 was old state    350
 New state    352 was old state    353
 New state    353 was old state    352
 New state    354 was old state    355
 New state    355 was old state    356
 New state    356 was old state    357
 New state    357 was old state    354
 New state    362 was old state    364
 New state    363 was old state    365
 New state    364 was old state    366
 New state    365 was old state    367
 New state    366 was old state    363
 New state    367 was old state    368
 New state    368 was old state    371
 New state    369 was old state    370
 New state    370 was old state    369
 New state    371 was old state    379
 New state    372 was old state    373
 New state    373 was old state    372
 New state    375 was old state    376
 New state    376 was old state    377
 New state    377 was old state    380
 New state    379 was old state    375
 New state    380 was old state    383
 New state    381 was old state    382
 New state    382 was old state    381
 New state    383 was old state    387
 New state    385 was old state    388
 New state    387 was old state    385
 New state    388 was old state    390
 New state    390 was old state    392
 New state    392 was old state    393
 New state    393 was old state    394
 New state    394 was old state    396
 New state    395 was old state    398
 New state    396 was old state    397
 New state    397 was old state    399
 New state    398 was old state    395
 New state    399 was old state    400
 New state    400 was old state    401
 New state    401 was old state    403
 New state    403 was old state    404
 New state    404 was old state    406
 New state    405 was old state    408
 New state    406 was old state    407
 New state    407 was old state    409
 New state    408 was old state    412
 New state    409 was old state    413
 New state    410 was old state    411
 New state    411 was old state    416
 New state    412 was old state    410
 New state    413 was old state    415
 New state    415 was old state    417
 New state    416 was old state    422
 New state    417 was old state    421
 New state    421 was old state    423
 New state    422 was old state    424
 New state    423 was old state    427
 New state    424 was old state    428
 New state    427 was old state    429
 New state    428 was old state    431
 New state    429 was old state    430
 New state    430 was old state    435
 New state    431 was old state    432
 New state    432 was old state    433
 New state    433 was old state    436
 New state    435 was old state    440
 New state    436 was old state    437
 New state    437 was old state    438
 New state    438 was old state    439
 New state    439 was old state    441
 No map to state    440
 New state    441 was old state    442
 New state    442 was old state    443
 New state    443 was old state    444
 New state    444 was old state    451
 New state    451 was old state    453
 New state    453 was old state    454
 New state    454 was old state    455
 New state    455 was old state    458
 New state    456 was old state    457
 New state    457 was old state    456
 New state    458 was old state    460
 New state    460 was old state    461
 No map to state    461
 New state    462 was old state    463
 New state    463 was old state    462
 New state    464 was old state    466
 New state    465 was old state    464
 New state    466 was old state    465
 New state    467 was old state    470
 New state    468 was old state    467
 New state    470 was old state    468
 New state    473 was old state    475
 New state    474 was old state    476
 New state    475 was old state    477
 New state    476 was old state    473
 New state    477 was old state    479
 New state    479 was old state    480
 New state    480 was old state    481
 New state    481 was old state    485
 New state    482 was old state    484
 New state    484 was old state    486
 New state    485 was old state    482
 New state    486 was old state    489
 New state    489 was old state    490
 New state    490 was old state    491
 New state    491 was old state    492
 New state    492 was old state    497
 New state    493 was old state    495
 New state    494 was old state    496
 New state    495 was old state    494
 New state    496 was old state    498
 New state    497 was old state    499
 New state    498 was old state    500
 New state    499 was old state    493
 New state    500 was old state    503
 New state    501 was old state    502
 New state    502 was old state    501
 New state    503 was old state    505
 New state    504 was old state    506
 New state    505 was old state    507
 New state    506 was old state    504
 New state    507 was old state    509
 New state    509 was old state    511
 New state    510 was old state    512
 New state    511 was old state    510
 New state    512 was old state    514
 New state    513 was old state    517
 New state    514 was old state    515
 New state    515 was old state    513
 New state    517 was old state    518
 New state    518 was old state    520
 New state    520 was old state    521
 New state    521 was old state    522
 New state    522 was old state    524
 New state    524 was old state    526
 New state    525 was old state    528
 New state    526 was old state    525
 New state    528 was old state    529
 New state    529 was old state    531
 New state    530 was old state    533
 New state    531 was old state    532
 New state    532 was old state    534
 New state    533 was old state    536
 New state    534 was old state    535
 New state    535 was old state    537
 New state    536 was old state    544
 New state    537 was old state    530
 New state    541 was old state    542
 New state    542 was old state    543
 New state    543 was old state    541
 New state    544 was old state    545
 New state    545 was old state    558
 New state    546 was old state    547
 New state    547 was old state    546
 New state    552 was old state    553
 New state    553 was old state    552
 New state    554 was old state    556
 New state    556 was old state    554
 New state    558 was old state    559
 New state    559 was old state    562
 New state    560 was old state    564
 New state    562 was old state    560
 New state    564 was old state    567
 New state    565 was old state    566
 New state    566 was old state    565
 New state    567 was old state    568
 New state    568 was old state    570
 New state    570 was old state    571
 New state    571 was old state    572
 New state    572 was old state    581
 New state    577 was old state    579
 New state    578 was old state    580
 New state    579 was old state    577
 New state    580 was old state    578
 New state    581 was old state    583
 New state    583 was old state    584
 New state    584 was old state    591
 New state    585 was old state    587
 New state    586 was old state    585
 New state    587 was old state    586
 New state    588 was old state    589
 New state    589 was old state    590
 New state    590 was old state    588
 No map to state    591
 New state    593 was old state    594
 New state    594 was old state    593
 New state    601 was old state    602
 New state    602 was old state    601
 New state    603 was old state    606
 New state    604 was old state    603
 New state    605 was old state    604
 New state    606 was old state    605
 New state    608 was old state    609
 New state    609 was old state    608
 New state    613 was old state    614
 New state    614 was old state    613
 New state    617 was old state    618
 New state    618 was old state    617
 New state    619 was old state    620
 New state    620 was old state    619
 New state    621 was old state    622
 New state    622 was old state    621
 New state    625 was old state    626
 New state    626 was old state    627
 New state    627 was old state    625
 New state    630 was old state    631
 New state    631 was old state    630
 New state    632 was old state    633
 New state    633 was old state    634
 New state    634 was old state    632
 New state    635 was old state    637
 New state    637 was old state    639
 New state    639 was old state    635
 New state    640 was old state    641
 New state    641 was old state    640
 New state    642 was old state    643
 New state    643 was old state    642
 New state    644 was old state    645
 New state    645 was old state    646
 New state    646 was old state    647
 New state    647 was old state    644
 New state    649 was old state    651
 New state    651 was old state    652
 New state    652 was old state    653
 New state    653 was old state    649
 New state    656 was old state    657
 New state    657 was old state    656
 New state    658 was old state    659
 New state    659 was old state    660
 New state    660 was old state    661
 New state    661 was old state    662
 New state    662 was old state    668
 New state    663 was old state    664
 New state    664 was old state    663
 New state    668 was old state    658
 New state    671 was old state    672
 New state    672 was old state    673
 New state    673 was old state    676
 New state    675 was old state    677
 New state    676 was old state    675
 New state    677 was old state    678
 New state    678 was old state    681
 New state    681 was old state    682
 New state    682 was old state    683
 New state    683 was old state    684
 New state    684 was old state    685
 New state    685 was old state    686
 New state    686 was old state    693
 New state    687 was old state    688
 New state    688 was old state    689
 New state    689 was old state    687
 New state    693 was old state    694
 New state    694 was old state    695
 New state    695 was old state    696
 New state    696 was old state    698
 New state    698 was old state    702
 New state    700 was old state    701
 New state    701 was old state    700
 New state    702 was old state    703
 New state    703 was old state    706
 New state    706 was old state    707
 No map to state    707
 New state    708 was old state    709
 New state    709 was old state    710
 New state    710 was old state    711
 New state    711 was old state    708
 New state    714 was old state    715
 New state    715 was old state    716
 New state    716 was old state    717
 New state    717 was old state    714
 New state    718 was old state    720
 New state    720 was old state    721
 New state    721 was old state    718
 New state    722 was old state    723
 New state    723 was old state    722
 New state    724 was old state    725
 New state    725 was old state    724
 New state    727 was old state    729
 New state    728 was old state    730
 New state    729 was old state    728
 New state    730 was old state    727
 New state    733 was old state    734
 New state    734 was old state    733
 New state    739 was old state    740
 New state    740 was old state    741
 New state    741 was old state    742
 New state    742 was old state    743
 New state    743 was old state    739
 Excitation Energies [eV] at current iteration:
 Root      1 :     4.122534533300836
 Root      2 :     6.272155368556219
 Root      3 :     7.006610882301152
 Root      4 :     7.704535810850949
 Root      5 :     7.871748876049585
 Root      6 :     8.086509729225163
 Root      7 :     8.202926547315219
 Root      8 :     8.484904496664470
 Root      9 :     8.754868646576947
 Root     10 :     8.798043911035860
 Root     11 :     9.055608482846701
 Root     12 :     9.365973564483017
 Root     13 :     9.505059696306674
 Root     14 :     9.911352484452646
 Root     15 :     9.990253020680045
 Root     16 :    10.033058228419160
 Root     17 :    10.268590225953070
 Root     18 :    10.383989988826750
 Root     19 :    10.532840261453860
 Root     20 :    10.791298776491600
 Root     21 :    10.890931140034890
 Root     22 :    11.041278144360560
 Root     23 :    11.197573760848670
 Root     24 :    11.296061901433100
 Root     25 :    11.357416795942950
 Root     26 :    11.474301130008900
 Root     27 :    11.489763598477720
 Root     28 :    11.659279157907870
 Root     29 :    11.760452565973580
 Root     30 :    11.847745360232600
 Root     31 :    12.011030976440870
 Root     32 :    12.102807310049050
 Root     33 :    12.142529703777480
 Root     34 :    12.199753481491870
 Root     35 :    12.203169427508240
 Root     36 :    12.242914297112190
 Root     37 :    12.451273642081140
 Root     38 :    12.588886798098260
 Root     39 :    12.598132188107320
 Root     40 :    12.636492703552470
 Root     41 :    12.681422878048400
 Root     42 :    12.718041738132420
 Root     43 :    12.849752903331280
 Root     44 :    12.867070954667230
 Root     45 :    12.986305789153540
 Root     46 :    13.108244679459890
 Root     47 :    13.112364465730700
 Root     48 :    13.278462701379400
 Root     49 :    13.318535281831970
 Root     50 :    13.465810359502430
 Root     51 :    13.509199234551860
 Root     52 :    13.536683050357680
 Root     53 :    13.641767824871240
 Root     54 :    13.662916211082290
 Root     55 :    13.692086539975880
 Root     56 :    13.709198595920400
 Root     57 :    13.809484282687450
 Root     58 :    13.942708348061500
 Root     59 :    13.958355448732910
 Root     60 :    14.103694684021400
 Root     61 :    14.112596620596060
 Root     62 :    14.121996679280630
 Root     63 :    14.236434992138880
 Root     64 :    14.354320408907610
 Root     65 :    14.392974823638330
 Root     66 :    14.467027717790070
 Root     67 :    14.486733712208410
 Root     68 :    14.489681764808050
 Root     69 :    14.581978545232200
 Root     70 :    14.587649983402360
 Root     71 :    14.666370271387980
 Root     72 :    14.685281036420230
 Root     73 :    14.779042442753780
 Root     74 :    14.835756629916430
 Root     75 :    14.857917947102300
 Root     76 :    15.085912363253860
 Root     77 :    15.107777590261950
 Root     78 :    15.231314206233810
 Root     79 :    15.287516222236050
 Root     80 :    15.350882715784940
 Root     81 :    15.485607718513460
 Root     82 :    15.505884047305440
 Root     83 :    15.625031749183330
 Root     84 :    15.634949004083320
 Root     85 :    15.708276889088250
 Root     86 :    15.791957606641680
 Root     87 :    15.823501977670730
 Root     88 :    15.884236611117030
 Root     89 :    15.896715511854620
 Root     90 :    15.927775754583260
 Root     91 :    16.044900188267480
 Root     92 :    16.045840701845920
 Root     93 :    16.179971295163200
 Root     94 :    16.237243255641630
 Root     95 :    16.293353869916620
 Root     96 :    16.338042496538750
 Root     97 :    16.360629797628020
 Root     98 :    16.416206256784650
 Root     99 :    16.440884185126810
 Root    100 :    16.589109944682520
 Root    101 :    16.716459441340320
 Root    102 :    16.729422230023590
 Root    103 :    16.780153999527540
 Root    104 :    16.841532057892010
 Root    105 :    16.879290997745430
 Root    106 :    16.942345905161360
 Root    107 :    17.067903136575340
 Root    108 :    17.088815957894520
 Root    109 :    17.143230488486200
 Root    110 :    17.196129061695950
 Root    111 :    17.285375230863440
 Root    112 :    17.312867967363980
 Root    113 :    17.426396199819440
 Root    114 :    17.567929331692110
 Root    115 :    17.625150564360890
 Root    116 :    17.656453187112300
 Root    117 :    17.684567380830290
 Root    118 :    17.743777730175310
 Root    119 :    17.816122421993300
 Root    120 :    17.887570221244510
 Root    121 :    17.991040269686600
 Root    122 :    18.079919525542350
 Root    123 :    18.100995254029290
 Root    124 :    18.113398565260160
 Root    125 :    18.182951468413070
 Root    126 :    18.186309533730200
 Root    127 :    18.269976388518790
 Root    128 :    18.275059764755600
 Root    129 :    18.364371857335100
 Root    130 :    18.452240506279900
 Root    131 :    18.490769568715720
 Root    132 :    18.534100056618120
 Root    133 :    18.607962233378670
 Root    134 :    18.691126853226470
 Root    135 :    18.736402281891220
 Root    136 :    18.789961516679010
 Root    137 :    18.804527442409680
 Root    138 :    18.858002224282380
 Root    139 :    18.944841527831220
 Root    140 :    18.962164629686590
 Root    141 :    18.998461007183070
 Root    142 :    19.139752304389450
 Root    143 :    19.177643284764130
 Root    144 :    19.313808889055730
 Root    145 :    19.327234774743580
 Root    146 :    19.336416424208260
 Root    147 :    19.470197486940450
 Root    148 :    19.576771196572150
 Root    149 :    19.586946200159510
 Root    150 :    19.607987129195930
 Root    151 :    19.680221818536950
 Root    152 :    19.723667385132900
 Root    153 :    19.747423524357440
 Root    154 :    19.769696570863860
 Root    155 :    19.896508482054750
 Root    156 :    19.916266216796070
 Root    157 :    20.002848038440160
 Root    158 :    20.107462116358580
 Root    159 :    20.179870732598490
 Root    160 :    20.184332024869350
 Root    161 :    20.193774336433710
 Root    162 :    20.222396056349520
 Root    163 :    20.255503115555980
 Root    164 :    20.315564033627070
 Root    165 :    20.351992465033680
 Root    166 :    20.358677691717850
 Root    167 :    20.366842853030380
 Root    168 :    20.504541359489070
 Root    169 :    20.544533795103210
 Root    170 :    20.565089043066190
 Root    171 :    20.639645894212350
 Root    172 :    20.676074094247300
 Root    173 :    20.692005632707170
 Root    174 :    20.741577608666420
 Root    175 :    20.755862680003670
 Root    176 :    20.801674836024630
 Root    177 :    20.913429980436850
 Root    178 :    20.931089095073620
 Root    179 :    20.939720277985790
 Root    180 :    21.025407510987560
 Root    181 :    21.032857076364410
 Root    182 :    21.097641128089410
 Root    183 :    21.188737965404790
 Root    184 :    21.211104169992570
 Root    185 :    21.258643668808010
 Root    186 :    21.287557060431380
 Root    187 :    21.315882917362070
 Root    188 :    21.412704000293900
 Root    189 :    21.422143616688560
 Root    190 :    21.479624966950990
 Root    191 :    21.525335584967130
 Root    192 :    21.548143727578310
 Root    193 :    21.616633126115700
 Root    194 :    21.681657463510220
 Root    195 :    21.701865178445990
 Root    196 :    21.748007926039550
 Root    197 :    21.852060632103270
 Root    198 :    21.902309293461560
 Root    199 :    21.978512925610450
 Root    200 :    22.003745205656650
 Root    201 :    22.106439211534020
 Root    202 :    22.167644553806050
 Root    203 :    22.230504918527400
 Root    204 :    22.278572722340690
 Root    205 :    22.321523693887010
 Root    206 :    22.352024068620610
 Root    207 :    22.395137551441600
 Root    208 :    22.473940705681300
 Root    209 :    22.548714690045980
 Root    210 :    22.595924567390260
 Root    211 :    22.599322456364390
 Root    212 :    22.878639285221800
 Root    213 :    22.913122974446980
 Root    214 :    22.915862356159330
 Root    215 :    22.975587791529160
 Root    216 :    23.074099954559140
 Root    217 :    23.078645007470180
 Root    218 :    23.090728548199300
 Root    219 :    23.110305227445650
 Root    220 :    23.160689234386100
 Root    221 :    23.179799304006250
 Root    222 :    23.314254501395330
 Root    223 :    23.333045118751060
 Root    224 :    23.386022670148400
 Root    225 :    23.402946205366550
 Root    226 :    23.539023838811400
 Root    227 :    23.570357571306550
 Root    228 :    23.579816516720610
 Root    229 :    23.634882000734500
 Root    230 :    23.641098145480350
 Root    231 :    23.711715706467600
 Root    232 :    23.798241618274190
 Root    233 :    23.909778530803840
 Root    234 :    23.965981647471280
 Root    235 :    23.992751129336310
 Root    236 :    24.064084905886820
 Root    237 :    24.094699191155050
 Root    238 :    24.130162552024220
 Root    239 :    24.137494804123550
 Root    240 :    24.217538955870350
 Root    241 :    24.344707578535630
 Root    242 :    24.376265395051550
 Root    243 :    24.405318167059630
 Root    244 :    24.548005989306900
 Root    245 :    24.600687740582450
 Root    246 :    24.657073537900470
 Root    247 :    24.777115886295200
 Root    248 :    24.856404401341970
 Root    249 :    24.899638668366720
 Root    250 :    24.961003472218820
 Root    251 :    25.047454098247650
 Root    252 :    25.162587523733110
 Root    253 :    25.187784456864480
 Root    254 :    25.304186759019090
 Root    255 :    25.351346342598100
 Root    256 :    25.462199158283180
 Root    257 :    25.571118319628800
 Root    258 :    25.665520339250370
 Root    259 :    25.831835605199370
 Root    260 :    25.891310036957630
 Root    261 :    25.980608383425110
 Root    262 :    26.051030462040350
 Root    263 :    26.073613080773380
 Root    264 :    26.202796624218390
 Root    265 :    26.279747189730020
 Root    266 :    26.391738444819540
 Root    267 :    26.418116883991890
 Root    268 :    26.421315018440600
 Root    269 :    26.499351618572430
 Root    270 :    26.612578360900740
 Root    271 :    26.667921726116860
 Root    272 :    26.736528646310840
 Root    273 :    26.901419106297150
 Root    274 :    26.911614417275730
 Root    275 :    26.986277053311130
 Root    276 :    27.017021630458960
 Root    277 :    27.111633918816910
 Root    278 :    27.133409140902240
 Root    279 :    27.227608434477930
 Root    280 :    27.305620921460540
 Root    281 :    27.357300451153330
 Root    282 :    27.448996943938550
 Root    283 :    27.483569920706120
 Root    284 :    27.600954662452900
 Root    285 :    27.612793738539750
 Root    286 :    27.789364387698630
 Root    287 :    27.830018839088510
 Root    288 :    27.830400918522360
 Root    289 :    27.930257449766850
 Root    290 :    27.974465372968670
 Root    291 :    28.048339026826260
 Root    292 :    28.171987251584310
 Root    293 :    28.224542180932260
 Root    294 :    28.331419532122910
 Root    295 :    28.412645205838520
 Root    296 :    28.467018107376590
 Root    297 :    28.501259711022850
 Root    298 :    28.568112233689260
 Root    299 :    28.652830777431570
 Root    300 :    28.688192122376820
 Root    301 :    28.742428115933710
 Root    302 :    28.803922365381530
 Root    303 :    28.898159646488920
 Root    304 :    28.903454787707600
 Root    305 :    28.932012866783100
 Root    306 :    28.973498530951260
 Root    307 :    29.046856959335930
 Root    308 :    29.102460183587790
 Root    309 :    29.326162694769150
 Root    310 :    29.416984017499750
 Root    311 :    29.449624757940170
 Root    312 :    29.532840805476780
 Root    313 :    29.671163005878950
 Root    314 :    29.692917665279950
 Root    315 :    29.752494082177310
 Root    316 :    29.786881103337080
 Root    317 :    29.846747417020080
 Root    318 :    30.047073456608840
 Root    319 :    30.085697285697100
 Root    320 :    30.184638265363130
 Root    321 :    30.459152684946870
 Root    322 :    30.499075805267090
 Root    323 :    30.657712740951060
 Root    324 :    30.690460847949790
 Root    325 :    30.692451482329230
 Root    326 :    30.727056027724190
 Root    327 :    30.836213279037760
 Root    328 :    30.877327583727090
 Root    329 :    31.053828259477540
 Root    330 :    31.206049339903360
 Root    331 :    31.272328072865630
 Root    332 :    31.277266663278980
 Root    333 :    31.321163481555220
 Root    334 :    31.496200478719480
 Root    335 :    31.745385802177160
 Root    336 :    31.752591785158710
 Root    337 :    31.850834022495270
 Root    338 :    31.905038294662240
 Root    339 :    31.969064921542500
 Root    340 :    32.021245490098060
 Root    341 :    32.182820528821980
 Root    342 :    32.258799506153690
 Root    343 :    32.281589991742510
 Root    344 :    32.327078466579010
 Root    345 :    32.415710650725640
 Root    346 :    32.547688046327000
 Root    347 :    32.590986102075510
 Root    348 :    32.679262814811270
 Root    349 :    32.754577054962250
 Root    350 :    32.885517373646510
 Root    351 :    32.894851634680680
 Root    352 :    33.074153792582860
 Root    353 :    33.282521114656910
 Root    354 :    33.338276740022070
 Root    355 :    33.552008894701390
 Root    356 :    33.643973118886600
 Root    357 :    33.671857248504070
 Root    358 :    33.836760076147170
 Root    359 :    34.040093658347420
 Root    360 :    34.178616258217180
 Root    361 :    34.327893332533690
 Root    362 :    34.414755120300030
 Root    363 :    34.437563039526990
 Root    364 :    34.476792252772480
 Root    365 :    34.618615907967710
 Root    366 :    34.641542154043780
 Root    367 :    34.718137296202580
 Root    368 :    34.729986893457610
 Root    369 :    34.770346975339730
 Root    370 :    34.798362928649330
 Root    371 :    34.989746337263510
 Root    372 :    35.065751408565280
 Root    373 :    35.140629939585500
 Root    374 :    35.184165760268730
 Root    375 :    35.251683294515810
 Root    376 :    35.350719177159750
 Root    377 :    35.444463578143750
 Root    378 :    35.458744766331620
 Root    379 :    35.571145388237050
 Root    380 :    35.640545816747770
 Root    381 :    35.650513447513180
 Root    382 :    35.737730110740380
 Root    383 :    35.829535492966390
 Root    384 :    35.884167011570580
 Root    385 :    36.093840967390700
 Root    386 :    36.131902481864030
 Root    387 :    36.169132177404490
 Root    388 :    36.258847322034650
 Root    389 :    36.345931877561410
 Root    390 :    36.395493447339550
 Root    391 :    36.429313697637830
 Root    392 :    36.521267924480640
 Root    393 :    36.529813777025250
 Root    394 :    36.557822117581620
 Root    395 :    36.666922927579160
 Root    396 :    36.831034822876750
 Root    397 :    36.934291915105400
 Root    398 :    36.971041552757600
 Root    399 :    37.112971534394260
 Root    400 :    37.132232648735200
 Root    401 :    37.343339385251710
 Root    402 :    37.359884254700790
 Root    403 :    37.413413771885960
 Root    404 :    37.736479892818860
 Root    405 :    37.839438104607510
 Root    406 :    37.889304106879880
 Root    407 :    37.950889912890690
 Root    408 :    38.139020182730850
 Root    409 :    38.256490460255710
 Root    410 :    38.297940366760140
 Root    411 :    38.433001836601080
 Root    412 :    38.460357881597840
 Root    413 :    38.631318267789400
 Root    414 :    38.789878616941970
 Root    415 :    38.854889909468350
 Root    416 :    39.004046330286250
 Root    417 :    39.049237147311500
 Root    418 :    39.101674007340040
 Root    419 :    39.637837872501370
 Root    420 :    39.837675325129260
 Root    421 :    40.022937919672840
 Root    422 :    40.282010960226200
 Root    423 :    40.370862836671970
 Root    424 :    40.385410614963480
 Root    425 :    40.446249000083410
 Root    426 :    40.555318226092480
 Root    427 :    40.673818558481210
 Root    428 :    41.013151275269610
 Root    429 :    41.200263336050370
 Root    430 :    41.473514442159260
 Root    431 :    41.512581222491050
 Root    432 :    41.654166920435870
 Root    433 :    41.954692686178230
 Root    434 :    42.019040426066260
 Root    435 :    42.212990277615450
 Root    436 :    42.327472939994510
 Root    437 :    42.378392060107560
 Root    438 :    42.907879751954810
 Root    439 :    42.985644900027280
 Root    440 :    43.289578443650210
 Root    441 :    43.357725428009720
 Root    442 :    43.449520241422440
 Root    443 :    43.564765340562670
 Root    444 :    43.634588678279730
 Root    445 :    43.850500156755990
 Root    446 :    43.923959954914610
 Root    447 :    43.987484264117280
 Root    448 :    44.253059751378980
 Root    449 :    44.300833730368880
 Root    450 :    44.356997273307260
 Root    451 :    44.955324626895400
 Root    452 :    45.042035363781810
 Root    453 :    45.487264100810600
 Root    454 :    45.514836056590220
 Root    455 :    45.814647416728150
 Root    456 :    46.521809971558900
 Root    457 :    46.817154273960430
 Root    458 :    46.836297129305930
 Root    459 :    46.890528522044760
 Root    460 :    47.252741994076950
 Root    461 :    47.558240187013850
 Root    462 :    48.065664958383660
 Root    463 :    48.165482508175480
 Root    464 :    48.729287599803900
 Root    465 :    48.865384380191840
 Root    466 :    48.889026088636650
 Root    467 :    49.109825570030050
 Root    468 :    49.132484952866360
 Root    469 :    49.277692616568310
 Root    470 :    49.451268856508510
 Root    471 :    49.691714836108610
 Root    472 :    49.760946077685300
 Root    473 :    49.882610398547040
 Root    474 :    50.107881280917790
 Root    475 :    50.183181394745300
 Root    476 :    50.227257371300580
 Root    477 :    50.273845767542430
 Root    478 :    50.350654192786150
 Root    479 :    50.575230135421070
 Root    480 :    50.593345149590210
 Root    481 :    50.744272976310730
 Root    482 :    50.780041701563660
 Root    483 :    50.805364797827290
 Root    484 :    50.962421767492150
 Root    485 :    51.080162827012830
 Root    486 :    51.364433187544480
 Root    487 :    51.403822077809570
 Root    488 :    51.511985199137950
 Root    489 :    51.535028920468780
 Root    490 :    51.627219022459090
 Root    491 :    51.862781251581790
 Root    492 :    52.064734427747370
 Root    493 :    52.167772193105240
 Root    494 :    52.229204323145770
 Root    495 :    52.440090369206300
 Root    496 :    52.576135473198380
 Root    497 :    52.624283441660650
 Root    498 :    52.864404636936300
 Root    499 :    52.864813971051480
 Root    500 :    53.113716079630290
 Root    501 :    53.173086395455540
 Root    502 :    53.280813375887420
 Root    503 :    53.551892719381880
 Root    504 :    53.793004227157830
 Root    505 :    53.894958004840770
 Root    506 :    54.114589104103490
 Root    507 :    54.446841579546110
 Root    508 :    54.639314534049700
 Root    509 :    54.751162773628780
 Root    510 :    54.808773875932550
 Root    511 :    54.852014494894370
 Root    512 :    55.021366249327180
 Root    513 :    55.121942934774630
 Root    514 :    55.218904002103620
 Root    515 :    55.336167736122970
 Root    516 :    55.759857973505400
 Root    517 :    55.970626726523750
 Root    518 :    56.317052792900000
 Root    519 :    56.362866080983740
 Root    520 :    56.487487812467170
 Root    521 :    56.838513908968000
 Root    522 :    56.881009927606340
 Root    523 :    56.986695573144370
 Root    524 :    57.155851137479840
 Root    525 :    57.251289449660710
 Root    526 :    57.315342600678100
 Root    527 :    57.344455808473330
 Root    528 :    57.746962208071420
 Root    529 :    57.925459218131040
 Root    530 :    58.037334895548610
 Root    531 :    58.090836015727840
 Root    532 :    58.150765893825880
 Root    533 :    58.163158872277720
 Root    534 :    58.238654662172070
 Root    535 :    58.274534267636080
 Root    536 :    58.452330353556870
 Root    537 :    58.500201294111170
 Root    538 :    58.751734360897230
 Root    539 :    59.177863416170830
 Root    540 :    59.324311790695520
 Root    541 :    59.372618706748580
 Root    542 :    59.484620544453640
 Root    543 :    59.597549811378540
 Root    544 :    59.873756124405460
 Root    545 :    59.892193681027560
 Root    546 :    59.967121269284260
 Root    547 :    60.090929783689480
 Root    548 :    60.148426446112080
 Root    549 :    60.321613396208010
 Root    550 :    60.492501292883090
 Root    551 :    60.568617381060180
 Root    552 :    60.793368397690120
 Root    553 :    61.030487087263650
 Root    554 :    61.178781572030640
 Root    555 :    61.394665384398340
 Root    556 :    61.411049780168000
 Root    557 :    61.450602255062360
 Root    558 :    61.542930018726460
 Root    559 :    61.817297237449520
 Root    560 :    61.867177367268280
 Root    561 :    61.916438258543610
 Root    562 :    62.090423856747260
 Root    563 :    62.187732585733680
 Root    564 :    62.395973540962450
 Root    565 :    62.502930494518350
 Root    566 :    62.731950558590460
 Root    567 :    62.780794499454720
 Root    568 :    62.986034219219990
 Root    569 :    63.128138991750240
 Root    570 :    63.263815038700240
 Root    571 :    63.537099337942650
 Root    572 :    63.540078144719140
 Root    573 :    63.962776880926490
 Root    574 :    64.114982872648200
 Root    575 :    64.369127483770700
 Root    576 :    64.419687523274050
 Root    577 :    64.488619956974120
 Root    578 :    64.631209416118420
 Root    579 :    64.802609662007030
 Root    580 :    64.902803400478160
 Root    581 :    64.971929657351400
 Root    582 :    64.981577484808600
 Root    583 :    65.164670614189020
 Root    584 :    65.356492555568200
 Root    585 :    65.416212199904350
 Root    586 :    65.577236842255670
 Root    587 :    65.682251491606100
 Root    588 :    65.810655363681850
 Root    589 :    65.935413256893970
 Root    590 :    66.074802715354370
 Root    591 :    66.588709993873750
 Root    592 :    66.746841376664970
 Root    593 :    66.942608090437460
 Root    594 :    67.078125674864200
 Root    595 :    67.521117113036610
 Root    596 :    67.668058793304810
 Root    597 :    67.769615047986680
 Root    598 :    68.220439872887430
 Root    599 :    68.618601336347620
 Root    600 :    68.878791507957260
 Root    601 :    68.955343617121810
 Root    602 :    69.059361132438780
 Root    603 :    69.155285895641340
 Root    604 :    69.250144733309880
 Root    605 :    69.293877339795200
 Root    606 :    69.362570821459540
 Root    607 :    69.687125914054090
 Root    608 :    69.915886803180940
 Root    609 :    70.096307770810410
 Root    610 :    70.363323717332360
 Root    611 :    70.624674992608580
 Root    612 :    70.817084754672710
 Root    613 :    71.094632581773870
 Root    614 :    71.245005280964390
 Root    615 :    72.023436640498840
 Root    616 :    72.025065878331420
 Root    617 :    72.538923019600730
 Root    618 :    72.632932488881290
 Root    619 :    73.198550723351000
 Root    620 :    73.289188857969730
 Root    621 :    73.351447850190520
 Root    622 :    73.453501794002890
 Root    623 :    74.470943560578040
 Root    624 :    74.748689916370570
 Root    625 :    75.050219779426710
 Root    626 :    75.076243211018730
 Root    627 :    75.116776200874280
 Root    628 :    75.749300115738010
 Root    629 :    75.930023554058000
 Root    630 :    76.326771338013490
 Root    631 :    76.429223208543500
 Root    632 :    76.477478411970030
 Root    633 :    76.636371299419790
 Root    634 :    76.825534212370680
 Root    635 :    76.925435824029780
 Root    636 :    76.993123872517530
 Root    637 :    77.025945157371280
 Root    638 :    77.068148127899160
 Root    639 :    77.701986036401520
 Root    640 :    77.747695660254350
 Root    641 :    77.826202296583030
 Root    642 :    78.021054913067450
 Root    643 :    78.275079715795140
 Root    644 :    78.731091278088410
 Root    645 :    78.762410355682380
 Root    646 :    78.960221876536040
 Root    647 :    79.024020628923320
 Root    648 :    79.182391192844920
 Root    649 :    79.707004570128890
 Root    650 :    79.995581063322750
 Root    651 :    79.999465931289510
 Root    652 :    80.114798906417630
 Root    653 :    80.492370103560960
 Root    654 :    80.937451759630850
 Root    655 :    81.308511342253450
 Root    656 :    81.320592888528650
 Root    657 :    81.526421796632960
 Root    658 :    82.634815384292210
 Root    659 :    83.160959812943840
 Root    660 :    83.229941990155920
 Root    661 :    83.750924935598890
 Root    662 :    83.992877370326680
 Root    663 :    84.149225345865420
 Root    664 :    84.385877834852660
 Root    665 :    84.503222198519340
 Root    666 :    84.582461913449390
 Root    667 :    84.714282870622640
 Root    668 :    85.181329502233750
 Root    669 :    85.306696254590390
 Root    670 :    85.393086496905670
 Root    671 :    85.744805742745470
 Root    672 :    85.852918925386460
 Root    673 :    85.896639958944750
 Root    674 :    85.929906903569730
 Root    675 :    86.053930352166320
 Root    676 :    86.129369973381320
 Root    677 :    86.925946413896710
 Root    678 :    87.051123450857840
 Root    679 :    87.195748346573350
 Root    680 :    87.485226523844190
 Root    681 :    87.617168037585490
 Root    682 :    87.664803169841720
 Root    683 :    88.418686892911620
 Root    684 :    89.085324762029070
 Root    685 :    89.197324865646920
 Root    686 :    89.644806304943300
 Root    687 :    89.711456487820730
 Root    688 :    89.760708379821140
 Root    689 :    89.842758381006120
 Root    690 :    90.415353454384670
 Root    691 :    90.625261486355200
 Root    692 :    90.746611688989830
 Root    693 :    90.966434544446240
 Root    694 :    91.187454594915830
 Root    695 :    91.418552500416300
 Root    696 :    91.457230141840810
 Root    697 :    91.576291515399120
 Root    698 :    91.777873855335490
 Root    699 :    91.888783215671950
 Root    700 :    91.979946676083400
 Root    701 :    92.009676957003750
 Root    702 :    92.250623345948630
 Root    703 :    92.583170644040690
 Root    704 :    92.899749775560120
 Root    705 :    93.366626228599780
 Root    706 :    93.502491186294040
 Root    707 :    93.670129700377440
 Root    708 :    94.059824585475250
 Root    709 :    94.286451601623720
 Root    710 :    94.518796073327370
 Root    711 :    94.525181639345210
 Root    712 :    94.728460638149400
 Root    713 :    95.516735221938190
 Root    714 :    95.798332284087250
 Root    715 :    96.122399854211810
 Root    716 :    96.163418850777190
 Root    717 :    97.702337155257310
 Root    718 :    98.560637058309840
 Root    719 :    98.601268045545300
 Root    720 :    99.164589384199690
 Root    721 :    99.167891475969710
 Root    722 :   100.318410747033400
 Root    723 :   100.429472960044400
 Root    724 :   100.915964692619300
 Root    725 :   101.266953052433000
 Root    726 :   101.604211744735300
 Root    727 :   102.815830449828500
 Root    728 :   103.200371134843900
 Root    729 :   103.261613515721800
 Root    730 :   103.347395874303200
 Root    731 :   104.007374679915100
 Root    732 :   105.596840186880000
 Root    733 :   106.041587646196300
 Root    734 :   106.265906432574000
 Root    735 :   106.537192177857800
 Root    736 :   107.833636570959800
 Root    737 :   108.343031197300900
 Root    738 :   108.635375479835200
 Root    739 :   110.026161844815900
 Root    740 :   110.280775720727200
 Root    741 :   110.421806239189500
 Root    742 :   111.683877259418100
 Root    743 :   111.937967475803700
 Root    744 :   113.439891743344700
 Root    745 :   117.278639634038200
 Root    746 :   118.369843989715900
 Root    747 :   125.882315257116400
 Convergence achieved for final wavefunctions.
 ***********************************************************************
 Excited states from <AA,BB:AA,BB> singles matrix:
 ***********************************************************************
 
 1PDM for each excited state written to RWF  633
 Ground to excited state transition densities written to RWF  633
 Ground to excited state transition electric dipole moments (Au):
       state          X           Y           Z        Dip. S.      Osc.
         1        -0.0000      0.0000      0.0224      0.0005      0.0001
         2         0.3778     -0.0355      0.0000      0.1440      0.0221
         3         0.1643      0.6468     -0.0000      0.4453      0.0764
         4        -0.0000     -0.0000     -0.0306      0.0009      0.0002
         5        -0.0000      0.0000     -0.3054      0.0933      0.0180
         6        -0.1276     -0.5238     -0.0000      0.2906      0.0576
         7        -0.3690     -0.0071      0.0000      0.1362      0.0274
         8        -0.9051      0.2757      0.0000      0.8951      0.1861
         9        -0.0000     -0.0000      0.0674      0.0045      0.0010
        10        -0.5448      0.3202     -0.0000      0.3993      0.0861
        11        -0.0000     -0.0000     -0.0205      0.0004      0.0001
        12         0.1164     -0.1747     -0.0000      0.0441      0.0101
        13         0.0000      0.0000      0.2066      0.0427      0.0099
        14        -0.0000      0.0000      0.0749      0.0056      0.0014
        15         0.3586      0.0163     -0.0000      0.1288      0.0315
        16         0.0000     -0.0000      0.1718      0.0295      0.0073
        17        -0.0000      0.0000     -0.2172      0.0472      0.0119
        18         0.5236      0.0104     -0.0000      0.2743      0.0698
        19        -0.0336     -0.1534     -0.0000      0.0247      0.0064
        20        -0.0240     -0.5005     -0.0000      0.2511      0.0664
        21         0.2955      0.3566      0.0000      0.2144      0.0572
        22         0.2395      0.3938     -0.0000      0.2125      0.0575
        23         0.4445     -0.0727      0.0000      0.2029      0.0557
        24        -0.0830      0.2374     -0.0000      0.0632      0.0175
        25         0.0000      0.0000     -0.1814      0.0329      0.0092
        26         0.0000      0.0000     -0.5673      0.3218      0.0905
        27        -0.0000     -0.0000     -0.3901      0.1522      0.0428
        28        -0.0000     -0.0000     -0.2504      0.0627      0.0179
        29         0.1556     -0.2300      0.0000      0.0771      0.0222
[...]
      4   0.730143D-01  0.000000D+00  0.000000D+00 -0.931723D-01  0.000000D+00
      5   0.000000D+00  0.195152D-01 -0.525929D-01  0.000000D+00 -0.167039D-01
      6   0.000000D+00 -0.491119D-01 -0.477593D+00  0.000000D+00 -0.845447D-01
      7  -0.213279D+00  0.000000D+00  0.000000D+00  0.253993D+00  0.000000D+00
      8  -0.454292D+00  0.000000D+00  0.000000D+00  0.154931D+00  0.000000D+00
      9  -0.866364D+00  0.000000D+00  0.000000D+00  0.453930D+00  0.000000D+00
     10   0.000000D+00 -0.256722D+00  0.445757D+00  0.000000D+00 -0.854533D-01
     11   0.000000D+00  0.575200D+00  0.233017D+00  0.000000D+00 -0.231867D+00
     12   0.000000D+00  0.660223D+00 -0.254580D+00  0.000000D+00 -0.903352D-01
     13   0.000000D+00  0.402406D-01  0.178058D-01  0.000000D+00  0.865758D-01
     14   0.000000D+00 -0.478851D+00  0.328521D+00  0.000000D+00 -0.545123D-01
     15   0.858499D+00  0.000000D+00  0.000000D+00 -0.399720D+00  0.000000D+00
     16  -0.652359D+00  0.000000D+00  0.000000D+00 -0.120214D-02  0.000000D+00
               681           682           683           684           685 
      1  -0.149228D+03 -0.149226D+03 -0.149198D+03 -0.149174D+03 -0.149170D+03
      2  -0.304314D-02  0.440438D-01  0.000000D+00  0.419438D-01 -0.294359D-02
      3   0.272987D-01  0.179689D-01  0.000000D+00 -0.112787D+00 -0.264643D+00
      4   0.000000D+00  0.000000D+00 -0.129908D+00  0.000000D+00  0.000000D+00
      5   0.975550D-02 -0.123826D+00  0.000000D+00 -0.120706D+00 -0.402793D-03
      6  -0.726157D-01 -0.232625D-01  0.000000D+00  0.326439D+00  0.726832D+00
      7   0.000000D+00  0.000000D+00  0.361935D+00  0.000000D+00  0.000000D+00
      8   0.000000D+00  0.000000D+00  0.265671D+00  0.000000D+00  0.000000D+00
      9   0.000000D+00  0.000000D+00  0.695576D+00  0.000000D+00  0.000000D+00
     10   0.425968D-01 -0.372456D+00  0.000000D+00 -0.414099D+00 -0.111072D+01
     11  -0.116680D+00 -0.585764D+00  0.000000D+00 -0.428607D+00  0.856853D+00
     12   0.424505D-01  0.183332D+00  0.000000D+00 -0.842894D-01  0.116086D+01
     13   0.185030D+00  0.338240D-03  0.000000D+00  0.171885D+00  0.199460D-01
     14   0.251536D-01  0.391687D-01  0.000000D+00  0.157035D+00 -0.158886D+01
     15   0.000000D+00  0.000000D+00 -0.679228D+00  0.000000D+00  0.000000D+00
     16   0.000000D+00  0.000000D+00  0.407323D+00  0.000000D+00  0.000000D+00
               686           687           688           689           690 
      1  -0.149153D+03 -0.149151D+03 -0.149149D+03 -0.149146D+03 -0.149125D+03
      2  -0.343882D-01  0.000000D+00  0.794561D-02  0.000000D+00  0.000000D+00
      3   0.258662D+00  0.000000D+00 -0.758165D-01  0.000000D+00  0.000000D+00
      4   0.000000D+00 -0.890522D-01  0.000000D+00 -0.120770D+00 -0.287010D-01
      5   0.917155D-01  0.000000D+00 -0.110331D-01  0.000000D+00  0.000000D+00
      6  -0.716125D+00  0.000000D+00  0.203635D+00  0.000000D+00  0.000000D+00
      7   0.000000D+00  0.255300D+00  0.000000D+00  0.332211D+00  0.788777D-01
      8   0.000000D+00 -0.231638D+00  0.000000D+00  0.447661D+00  0.186376D+00
      9   0.000000D+00 -0.266092D+00  0.000000D+00  0.115709D+01  0.412217D+00
     10   0.173608D+01  0.000000D+00 -0.264798D+00  0.000000D+00  0.000000D+00
     11   0.677807D+00  0.000000D+00 -0.500260D-01  0.000000D+00  0.000000D+00
     12  -0.109373D+01  0.000000D+00  0.211821D+00  0.000000D+00  0.000000D+00
     13   0.930035D-01  0.000000D+00  0.117186D+00  0.000000D+00  0.000000D+00
     14   0.124065D+01  0.000000D+00 -0.200325D+00  0.000000D+00  0.000000D+00
     15   0.000000D+00  0.184257D+00  0.000000D+00 -0.118564D+01 -0.352064D+00
     16   0.000000D+00 -0.120349D+00  0.000000D+00  0.636999D+00  0.740093D-01
               691           692           693           694           695 
      1  -0.149117D+03 -0.149113D+03 -0.149105D+03 -0.149097D+03 -0.149088D+03
      2   0.000000D+00  0.000000D+00  0.000000D+00 -0.642143D-01  0.913938D-01
      3   0.000000D+00  0.000000D+00  0.000000D+00  0.123771D+00  0.962474D-01
      4  -0.576897D-02  0.308838D-01  0.698636D-01  0.000000D+00  0.000000D+00
      5   0.000000D+00  0.000000D+00  0.000000D+00  0.198144D+00 -0.247822D+00
      6   0.000000D+00  0.000000D+00  0.000000D+00 -0.357242D+00 -0.272174D+00
      7   0.170622D-01 -0.979889D-01 -0.208663D+00  0.000000D+00  0.000000D+00
      8  -0.210452D-01 -0.201556D+00 -0.596053D-01  0.000000D+00  0.000000D+00
      9  -0.815896D-01 -0.475240D+00 -0.128356D+00  0.000000D+00  0.000000D+00
     10   0.000000D+00  0.000000D+00  0.000000D+00  0.105293D+01 -0.119826D+00
     11   0.000000D+00  0.000000D+00  0.000000D+00 -0.201521D+00 -0.931417D+00
     12   0.000000D+00  0.000000D+00  0.000000D+00 -0.512983D+00  0.831737D-02
     13   0.000000D+00  0.000000D+00  0.000000D+00 -0.135041D+00 -0.454298D-01
     14   0.000000D+00  0.000000D+00  0.000000D+00  0.111866D+01  0.562254D+00
     15   0.696832D-01  0.531920D+00  0.216779D+00  0.000000D+00  0.000000D+00
     16   0.127967D+00  0.554994D-01 -0.163521D+00  0.000000D+00  0.000000D+00
               696           697           698           699           700 
      1  -0.149087D+03 -0.149082D+03 -0.149075D+03 -0.149071D+03 -0.149068D+03
      2   0.378482D-01  0.000000D+00  0.478334D-01  0.000000D+00  0.915049D-03
      3   0.150762D+00  0.000000D+00 -0.861456D-02  0.000000D+00 -0.191950D-01
      4   0.000000D+00 -0.176405D+00  0.000000D+00  0.107685D+00  0.000000D+00
      5  -0.128585D+00  0.000000D+00 -0.137625D+00  0.000000D+00  0.158537D-01
      6  -0.427915D+00  0.000000D+00  0.319070D-01  0.000000D+00  0.600918D-01
      7   0.000000D+00  0.491850D+00  0.000000D+00 -0.305057D+00  0.000000D+00
      8   0.000000D+00  0.177431D+00  0.000000D+00  0.260246D+00  0.000000D+00
      9   0.000000D+00  0.881449D+00  0.000000D+00  0.131414D+00  0.000000D+00
     10   0.606320D+00  0.000000D+00  0.556699D+00  0.000000D+00 -0.594388D+00
     11   0.853724D+00  0.000000D+00 -0.104361D+00  0.000000D+00 -0.346966D+00
     12  -0.586498D+00  0.000000D+00 -0.876997D+00  0.000000D+00  0.389645D+00
     13  -0.453495D-01  0.000000D+00 -0.499020D-01  0.000000D+00  0.144708D+00
     14   0.378819D+00  0.000000D+00  0.759005D+00  0.000000D+00 -0.630773D+00
     15   0.000000D+00 -0.853486D+00  0.000000D+00 -0.220344D+00  0.000000D+00
     16   0.000000D+00  0.165072D+00  0.000000D+00  0.309238D+00  0.000000D+00
               701           702           703           704           705 
      1  -0.149067D+03 -0.149058D+03 -0.149045D+03 -0.149034D+03 -0.149017D+03
      2  -0.355244D-01 -0.123041D-01 -0.288694D-01  0.000000D+00  0.000000D+00
      3   0.690477D-01  0.157489D+00 -0.113746D+00  0.000000D+00  0.000000D+00
      4   0.000000D+00  0.000000D+00  0.000000D+00 -0.290814D-01 -0.865710D-01
      5   0.109287D+00  0.220841D-01  0.884948D-01  0.000000D+00  0.000000D+00
      6  -0.195481D+00 -0.451997D+00  0.325454D+00  0.000000D+00  0.000000D+00
      7   0.000000D+00  0.000000D+00  0.000000D+00  0.872786D-01  0.244540D+00
      8   0.000000D+00  0.000000D+00  0.000000D+00 -0.317165D+00  0.138959D+00
      9   0.000000D+00  0.000000D+00  0.000000D+00 -0.520169D+00  0.273437D+00
     10   0.485900D-01  0.110198D+01  0.606551D-01  0.000000D+00  0.000000D+00
     11  -0.229495D+00 -0.568381D-01  0.324542D+00  0.000000D+00  0.000000D+00
     12  -0.189056D+00 -0.106112D+01 -0.285162D+00  0.000000D+00  0.000000D+00
     13   0.618170D-01  0.244388D+00 -0.308241D-01  0.000000D+00  0.000000D+00
     14  -0.411463D-01  0.126586D+01 -0.397128D+00  0.000000D+00  0.000000D+00
     15   0.000000D+00  0.000000D+00  0.000000D+00  0.462027D+00 -0.154127D+00
     16   0.000000D+00  0.000000D+00  0.000000D+00 -0.202678D+00  0.297658D+00
               706           707           708           709           710 
      1  -0.149012D+03 -0.149005D+03 -0.148991D+03 -0.148983D+03 -0.148974D+03
      2  -0.417335D-01 -0.648720D-02  0.000000D+00 -0.497039D-01  0.000000D+00
      3   0.377067D-01 -0.284090D-02  0.000000D+00  0.489035D-01  0.000000D+00
      4   0.000000D+00  0.000000D+00  0.410003D-01  0.000000D+00  0.510697D-01
      5   0.121802D+00  0.117752D-01  0.000000D+00  0.144824D+00  0.000000D+00
      6  -0.907776D-01  0.239320D-01  0.000000D+00 -0.135496D+00  0.000000D+00
      7   0.000000D+00  0.000000D+00 -0.112598D+00  0.000000D+00 -0.139271D+00
      8   0.000000D+00  0.000000D+00  0.807640D-01  0.000000D+00 -0.260508D+00
      9   0.000000D+00  0.000000D+00  0.120202D+00  0.000000D+00 -0.620577D+00
     10  -0.329478D+00  0.772846D-01  0.000000D+00  0.274106D+00  0.000000D+00
     11   0.385119D+00 -0.114249D+00  0.000000D+00 -0.241882D+00  0.000000D+00
     12   0.418241D+00 -0.594981D-01  0.000000D+00  0.162766D+00  0.000000D+00
     13  -0.153716D+00 -0.510088D-01  0.000000D+00 -0.150157D+00  0.000000D+00
     14  -0.684701D+00 -0.959734D-02  0.000000D+00  0.280823D+00  0.000000D+00
     15   0.000000D+00  0.000000D+00 -0.956786D-01  0.000000D+00  0.720950D+00
     16   0.000000D+00  0.000000D+00  0.627440D-01  0.000000D+00 -0.293245D+00
               711           712           713           714           715 
      1  -0.148974D+03 -0.148967D+03 -0.148938D+03 -0.148927D+03 -0.148915D+03
      2  -0.131749D+00  0.000000D+00  0.466145D-01  0.293702D-01 -0.908819D-01
      3  -0.446639D-01  0.000000D+00 -0.119864D+00 -0.599552D-02 -0.166672D-01
      4   0.000000D+00 -0.771434D-02  0.000000D+00  0.000000D+00  0.000000D+00
      5   0.416125D+00  0.000000D+00 -0.172216D+00 -0.952900D-01  0.298535D+00
      6   0.150048D+00  0.000000D+00  0.348563D+00  0.248899D-01  0.370556D-01
      7   0.000000D+00  0.215064D-01  0.000000D+00  0.000000D+00  0.000000D+00
      8   0.000000D+00 -0.106786D+00  0.000000D+00  0.000000D+00  0.000000D+00
      9   0.000000D+00 -0.194364D+00  0.000000D+00  0.000000D+00  0.000000D+00
     10  -0.355692D+00  0.000000D+00 -0.251439D+00 -0.548618D-01 -0.496275D+00
     11  -0.128395D+01  0.000000D+00  0.111794D+01  0.330814D+00 -0.114920D+01
     12  -0.113440D+00  0.000000D+00  0.290987D+00  0.180717D+00  0.983664D-01
     13   0.683648D-01  0.000000D+00  0.675777D-01  0.167053D-01 -0.875380D-01
     14   0.704757D-02  0.000000D+00 -0.393653D+00 -0.173361D+00  0.201790D+00
     15   0.000000D+00  0.146931D+00  0.000000D+00  0.000000D+00  0.000000D+00
     16   0.000000D+00 -0.279037D+00  0.000000D+00  0.000000D+00  0.000000D+00
               716           717           718           719           720 
      1  -0.148914D+03 -0.148857D+03 -0.148826D+03 -0.148824D+03 -0.148804D+03
      2   0.000000D+00  0.000000D+00  0.641944D-01  0.000000D+00  0.000000D+00
      3   0.000000D+00  0.000000D+00  0.997158D-02  0.000000D+00  0.000000D+00
      4  -0.643962D-01 -0.252158D+00  0.000000D+00 -0.107360D+00 -0.185823D+00
      5   0.000000D+00  0.000000D+00 -0.178357D+00  0.000000D+00  0.000000D+00
      6   0.000000D+00  0.000000D+00 -0.334313D-01  0.000000D+00  0.000000D+00
      7   0.203793D+00  0.797615D+00  0.000000D+00  0.320780D+00  0.579501D+00
      8   0.168348D+00  0.526251D+00  0.000000D+00 -0.322015D+00  0.519980D+00
      9   0.677646D+00  0.186218D+01  0.000000D+00 -0.291801D+00  0.136974D+01
     10   0.000000D+00  0.000000D+00 -0.176520D+00  0.000000D+00  0.000000D+00
     11   0.000000D+00  0.000000D+00 -0.185195D+00  0.000000D+00  0.000000D+00
     12   0.000000D+00  0.000000D+00  0.787843D-02  0.000000D+00  0.000000D+00
     13   0.000000D+00  0.000000D+00 -0.103724D-01  0.000000D+00  0.000000D+00
     14   0.000000D+00  0.000000D+00  0.216626D-01  0.000000D+00  0.000000D+00
     15  -0.868203D+00 -0.246391D+01  0.000000D+00  0.600150D-01 -0.168029D+01
     16   0.147431D+00  0.542067D+00  0.000000D+00 -0.361803D+00  0.449077D+00
               721           722           723           724           725 
      1  -0.148803D+03 -0.148761D+03 -0.148757D+03 -0.148739D+03 -0.148726D+03
      2   0.179489D+00  0.776346D-01  0.493993D-01  0.000000D+00  0.399923D-01
      3  -0.146901D-01  0.626223D-01  0.142881D-01  0.000000D+00  0.105250D+00
      4   0.000000D+00  0.000000D+00  0.000000D+00  0.161312D-01  0.000000D+00
      5  -0.622276D+00 -0.243228D+00 -0.168224D+00  0.000000D+00 -0.156598D+00
      6   0.398484D-01 -0.182504D+00 -0.532652D-01  0.000000D+00 -0.326790D+00
      7   0.000000D+00  0.000000D+00  0.000000D+00 -0.465696D-01  0.000000D+00
      8   0.000000D+00  0.000000D+00  0.000000D+00  0.427557D-02  0.000000D+00
      9   0.000000D+00  0.000000D+00  0.000000D+00 -0.571589D-01  0.000000D+00
     10   0.420823D+00 -0.552017D+00  0.319034D+00  0.000000D+00  0.479116D+00
     11   0.347105D+01 -0.292079D+00  0.892822D+00  0.000000D+00  0.711188D+00
     12   0.929847D-01  0.482880D+00  0.261766D+00  0.000000D+00 -0.429458D+00
     13   0.297851D-01  0.495800D-01 -0.619002D+00  0.000000D+00 -0.220538D+00
     14  -0.576214D+00 -0.233599D+00 -0.955570D-02  0.000000D+00  0.205184D+00
     15   0.000000D+00  0.000000D+00  0.000000D+00  0.125280D+00  0.000000D+00
     16   0.000000D+00  0.000000D+00  0.000000D+00 -0.698852D-02  0.000000D+00
               726           727           728           729           730 
      1  -0.148714D+03 -0.148669D+03 -0.148655D+03 -0.148653D+03 -0.148650D+03
      2   0.703516D-01  0.000000D+00  0.000000D+00  0.893190D-01  0.000000D+00
      3  -0.630590D-01  0.000000D+00  0.000000D+00  0.632967D-01  0.000000D+00
      4   0.000000D+00 -0.627064D-02 -0.551901D-01  0.000000D+00  0.370406D-02
      5  -0.249494D+00  0.000000D+00  0.000000D+00 -0.308609D+00  0.000000D+00
      6   0.204580D+00  0.000000D+00  0.000000D+00 -0.201001D+00  0.000000D+00
      7   0.000000D+00  0.192332D-01  0.160391D+00  0.000000D+00 -0.125640D-01
      8   0.000000D+00 -0.228962D-01  0.463768D-02  0.000000D+00 -0.340532D-01
      9   0.000000D+00 -0.855340D-01 -0.374288D-01  0.000000D+00 -0.662934D-01
     10  -0.455631D+00  0.000000D+00  0.000000D+00  0.109497D+01  0.000000D+00
     11   0.180691D+00  0.000000D+00  0.000000D+00  0.749243D+00  0.000000D+00
     12   0.317810D+00  0.000000D+00  0.000000D+00 -0.526776D+00  0.000000D+00
     13   0.937426D-01  0.000000D+00  0.000000D+00  0.725800D-01  0.000000D+00
     14  -0.584364D+00  0.000000D+00  0.000000D+00  0.106276D+01  0.000000D+00
     15   0.000000D+00  0.283121D-01  0.737659D-02  0.000000D+00  0.158433D-01
     16   0.000000D+00 -0.712360D-01  0.615671D-02  0.000000D+00  0.562103D+00
               731           732           733           734           735 
      1  -0.148626D+03 -0.148567D+03 -0.148551D+03 -0.148543D+03 -0.148533D+03
      2   0.830063D-01 -0.337213D-01  0.000000D+00  0.642657D-02  0.251373D-01
      3  -0.440330D-01  0.139760D+00  0.000000D+00  0.198631D+00  0.662606D-01
      4   0.000000D+00  0.000000D+00  0.133478D-01  0.000000D+00  0.000000D+00
      5  -0.298224D+00  0.121736D+00  0.000000D+00 -0.371708D-01 -0.818078D-01
      6   0.136064D+00 -0.478206D+00  0.000000D+00 -0.669930D+00 -0.225016D+00
      7   0.000000D+00  0.000000D+00 -0.460072D-01  0.000000D+00  0.000000D+00
      8   0.000000D+00  0.000000D+00 -0.114806D+00  0.000000D+00  0.000000D+00
      9   0.000000D+00  0.000000D+00 -0.217911D+00  0.000000D+00  0.000000D+00
     10  -0.158530D+00  0.116164D+01  0.000000D+00  0.137033D+01  0.363005D+00
     11   0.114739D+01 -0.549423D+00  0.000000D+00  0.235589D+00  0.215318D+00
     12  -0.465060D-01 -0.765575D+00  0.000000D+00 -0.815410D+00 -0.706768D+00
     13  -0.247121D-01  0.261481D-02  0.000000D+00 -0.250944D-01  0.191490D+00
     14  -0.958856D+00  0.166625D+01  0.000000D+00  0.158258D+01  0.282984D+00
     15   0.000000D+00  0.000000D+00  0.168443D+00  0.000000D+00  0.000000D+00
     16   0.000000D+00  0.000000D+00 -0.207533D+00  0.000000D+00  0.000000D+00
               736           737           738           739           740 
      1  -0.148485D+03 -0.148466D+03 -0.148456D+03 -0.148404D+03 -0.148395D+03
      2  -0.273392D-01  0.000000D+00  0.474536D-01  0.000000D+00  0.190100D-01
      3   0.441617D-02  0.000000D+00  0.484601D-01  0.000000D+00 -0.273238D-01
      4   0.000000D+00  0.106004D+00  0.000000D+00  0.695599D-01  0.000000D+00
      5   0.105301D+00  0.000000D+00 -0.169980D+00  0.000000D+00 -0.591517D-01
      6  -0.136262D-01  0.000000D+00 -0.160703D+00  0.000000D+00  0.706037D-01
      7   0.000000D+00 -0.372668D+00  0.000000D+00 -0.238131D+00  0.000000D+00
      8   0.000000D+00 -0.293713D+00  0.000000D+00 -0.144754D+00  0.000000D+00
      9   0.000000D+00 -0.929252D+00  0.000000D+00 -0.601697D+00  0.000000D+00
     10  -0.142304D+00  0.000000D+00  0.466188D+00  0.000000D+00 -0.566459D-01
     11  -0.778895D+00  0.000000D+00  0.785890D+00  0.000000D+00  0.276364D+00
     12   0.232845D+00  0.000000D+00 -0.193610D+00  0.000000D+00 -0.191175D+00
     13  -0.371682D-01  0.000000D+00  0.687389D-02  0.000000D+00  0.401393D-01
     14   0.690480D-01  0.000000D+00  0.289384D+00  0.000000D+00  0.121030D-01
     15   0.000000D+00  0.113691D+01  0.000000D+00  0.810778D+00  0.000000D+00
     16   0.000000D+00 -0.260531D+00  0.000000D+00 -0.148405D+00  0.000000D+00
               741           742           743           744           745 
      1  -0.148390D+03 -0.148343D+03 -0.148334D+03 -0.148279D+03 -0.148138D+03
      2  -0.794163D-01  0.000000D+00 -0.203417D+00 -0.121338D+00  0.167967D-01
      3   0.673870D-01  0.000000D+00 -0.362785D-01  0.175410D-02  0.421694D-03
      4   0.000000D+00 -0.966126D-01  0.000000D+00  0.000000D+00  0.000000D+00
      5   0.286808D+00  0.000000D+00  0.772055D+00  0.491473D+00 -0.485445D-01
      6  -0.235232D+00  0.000000D+00  0.129497D+00 -0.412639D-02  0.163978D-02
      7   0.000000D+00  0.341437D+00  0.000000D+00  0.000000D+00  0.000000D+00
      8   0.000000D+00  0.236058D+00  0.000000D+00  0.000000D+00  0.000000D+00
      9   0.000000D+00  0.744461D+00  0.000000D+00  0.000000D+00  0.000000D+00
     10   0.361568D+00  0.000000D+00 -0.920912D+00 -0.272853D+00 -0.181169D-02
     11  -0.123435D+01  0.000000D+00 -0.354520D+01 -0.361915D+01 -0.431827D+00
     12  -0.333455D+00  0.000000D+00  0.291466D+00  0.144979D+00  0.889813D-01
     13   0.244833D-01  0.000000D+00  0.752115D-01  0.199893D+00  0.801198D-01
     14   0.108722D+01  0.000000D+00  0.128837D+00  0.402110D+00 -0.170514D+00
     15   0.000000D+00 -0.652755D+00  0.000000D+00  0.000000D+00  0.000000D+00
     16   0.000000D+00  0.242954D+00  0.000000D+00  0.000000D+00  0.000000D+00
               746           747 
      1  -0.148098D+03 -0.147822D+03
      2  -0.717884D-02  0.707017D-02
      3   0.306705D-01  0.190783D-02
      4   0.000000D+00  0.000000D+00
      5   0.277540D-01  0.313764D-01
      6  -0.128138D+00 -0.515848D-02
      7   0.000000D+00  0.000000D+00
      8   0.000000D+00  0.000000D+00
      9   0.000000D+00  0.000000D+00
     10   0.476508D+00  0.522617D-02
     11  -0.101501D+00 -0.643160D+00
     12  -0.159297D+00 -0.899555D-01
     13   0.241826D-01 -0.604269D-01
     14   0.482379D+00  0.209263D-01
     15   0.000000D+00  0.000000D+00
     16   0.000000D+00  0.000000D+00
 Unable to Open any file for archive entry.
 1\1\GINC-HEL11\SP\RSVWN5 TD-FC\Gen\C2H4O1\SABYASACHI\21-Mar-2022\0\\#P
  TD(Nstates=10000) svwn5/Gen SCF(maxcycles=100) Int(Grid=ultrafine)\\x
 GDB7_00001_tier4.com\\0,1\C,0,0.926252,-0.719055,0.\C,0,0.,0.459276,0.
 \O,0,-1.196998,0.387135,0.\H,0,1.575966,-0.668677,0.877698\H,0,1.57596
 6,-0.668677,-0.877698\H,0,0.366734,-1.652236,0.\H,0,0.499812,1.451182,
 0.\\Version=EM64L-G16RevC.01\State=1-A'\HF=-152.4477951\RMSD=4.790e-09
 \PG=CS [SG(C2H2O1),X(H2)]\\@
 The archive entry for this job was punched.


 AN AIRPLANE IS A COLLECTION OF SPARE PARTS
 FLYING IN CLOSE FORMATION.
 Job cpu time:       0 days  0 hours  3 minutes  6.1 seconds.
 Elapsed time:       0 days  0 hours  0 minutes 23.6 seconds.
 File lengths (MBytes):  RWF=    280 Int=      0 D2E=      0 Chk=    165 Scr=      1
 Normal termination of Gaussian 16 at Mon Mar 21 20:03:01 2022.
