 Entering Gaussian System, Link 0=g16
 Input=000015.com
 Output=000015.log
 Initial command:
 /home/sabyasachi/g16/l1.exe "/scratch/sabyasachi/PBS_7975852.helios/Gau-103636.inp" -scrdir="/scratch/sabyasachi/PBS_7975852.helios/"
 Entering Link 1 = /home/sabyasachi/g16/l1.exe PID=    103637.
  
 Copyright (c) 1988-2019, Gaussian, Inc.  All Rights Reserved.
  
 This is part of the Gaussian(R) 16 program.  It is based on
 the Gaussian(R) 09 system (copyright 2009, Gaussian, Inc.),
 the Gaussian(R) 03 system (copyright 2003, Gaussian, Inc.),
 the Gaussian(R) 98 system (copyright 1998, Gaussian, Inc.),
 the Gaussian(R) 94 system (copyright 1995, Gaussian, Inc.),
 the Gaussian 92(TM) system (copyright 1992, Gaussian, Inc.),
 the Gaussian 90(TM) system (copyright 1990, Gaussian, Inc.),
 the Gaussian 88(TM) system (copyright 1988, Gaussian, Inc.),
 the Gaussian 86(TM) system (copyright 1986, Carnegie Mellon
 University), and the Gaussian 82(TM) system (copyright 1983,
 Carnegie Mellon University). Gaussian is a federally registered
 trademark of Gaussian, Inc.
  
 This software contains proprietary and confidential information,
 including trade secrets, belonging to Gaussian, Inc.
  
 This software is provided under written license and may be
 used, copied, transmitted, or stored only in accord with that
 written license.
  
 The following legend is applicable only to US Government
 contracts under FAR:
  
                    RESTRICTED RIGHTS LEGEND
  
 Use, reproduction and disclosure by the US Government is
 subject to restrictions as set forth in subparagraphs (a)
 and (c) of the Commercial Computer Software - Restricted
 Rights clause in FAR 52.227-19.
  
 Gaussian, Inc.
 340 Quinnipiac St., Bldg. 40, Wallingford CT 06492
  
  
 ---------------------------------------------------------------
 Warning -- This program may not be used in any manner that
 competes with the business of Gaussian, Inc. or will provide
 assistance to any competitor of Gaussian, Inc.  The licensee
 of this program is prohibited from giving any competitor of
 Gaussian, Inc. access to this program.  By using this program,
 the user acknowledges that Gaussian, Inc. is engaged in the
 business of creating and licensing software in the field of
 computational chemistry and represents and warrants to the
 licensee that it is not a competitor of Gaussian, Inc. and that
 it will not use this program in any manner prohibited above.
 ---------------------------------------------------------------
  

 Cite this work as:
 Gaussian 16, Revision C.01,
 M. J. Frisch, G. W. Trucks, H. B. Schlegel, G. E. Scuseria, 
 M. A. Robb, J. R. Cheeseman, G. Scalmani, V. Barone, 
 G. A. Petersson, H. Nakatsuji, X. Li, M. Caricato, A. V. Marenich, 
 J. Bloino, B. G. Janesko, R. Gomperts, B. Mennucci, H. P. Hratchian, 
 J. V. Ortiz, A. F. Izmaylov, J. L. Sonnenberg, D. Williams-Young, 
 F. Ding, F. Lipparini, F. Egidi, J. Goings, B. Peng, A. Petrone, 
 T. Henderson, D. Ranasinghe, V. G. Zakrzewski, J. Gao, N. Rega, 
 G. Zheng, W. Liang, M. Hada, M. Ehara, K. Toyota, R. Fukuda, 
 J. Hasegawa, M. Ishida, T. Nakajima, Y. Honda, O. Kitao, H. Nakai, 
 T. Vreven, K. Throssell, J. A. Montgomery, Jr., J. E. Peralta, 
 F. Ogliaro, M. J. Bearpark, J. J. Heyd, E. N. Brothers, K. N. Kudin, 
 V. N. Staroverov, T. A. Keith, R. Kobayashi, J. Normand, 
 K. Raghavachari, A. P. Rendell, J. C. Burant, S. S. Iyengar, 
 J. Tomasi, M. Cossi, J. M. Millam, M. Klene, C. Adamo, R. Cammi, 
 J. W. Ochterski, R. L. Martin, K. Morokuma, O. Farkas, 
 J. B. Foresman, and D. J. Fox, Gaussian, Inc., Wallingford CT, 2019.
 
 ******************************************
 Gaussian 16:  EM64L-G16RevC.01  3-Jul-2019
                21-Mar-2022 
 ******************************************
 %mem=64gb
 %nproc=8
 Will use up to    8 processors via shared memory.
 ---------------------------------------------------------------------
 #P TD(Nstates=10000) svwn5/Gen SCF(maxcycles=100) Int(Grid=ultrafine)
 ---------------------------------------------------------------------
 1/38=1,172=1/1;
 2/12=2,17=6,18=5,40=1/2;
 3/5=7,11=9,25=1,30=1,74=201,75=-5/1,2,3,8;
 4//1;
 5/5=2,7=100,38=5/2;
 8/6=1,10=1,108=10000/1;
 9/41=10000,42=1,70=2/14;
 6/7=2,8=2,9=2,10=2/1;
 99/5=1,9=1/99;
 Leave Link    1 at Mon Mar 21 03:59:57 2022, MaxMem=  8589934592 cpu:               0.4 elap:               0.1
 (Enter /home/sabyasachi/g16/l101.exe)
 ---------------------
 xGDB7_00001_tier4.com
 ---------------------
 Symbolic Z-matrix:
 Charge =  0 Multiplicity = 1
 6                    -1.24079  -0.23762  -0.02753 
 6                     0.04895   0.55921   0.05371 
 7                     1.20234  -0.31761  -0.1167 
 1                    -2.10982   0.41583   0.0647 
 1                    -1.29293  -0.97621   0.77681 
 1                    -1.30033  -0.76988  -0.97775 
 1                     0.06631   1.12282   0.99797 
 1                     0.06996   1.29657  -0.75259 
 1                     1.23641  -1.00308   0.62716 
 1                     2.06508   0.20771  -0.07648 
 
 ITRead=  0  0  0  0  0  0  0  0  0  0
 MicOpt= -1 -1 -1 -1 -1 -1 -1 -1 -1 -1
 NAtoms=     10 NQM=       10 NQMF=       0 NMMI=      0 NMMIF=      0
                NMic=       0 NMicF=      0.
                    Isotopes and Nuclear Properties:
 (Nuclear quadrupole moments (NQMom) in fm**2, nuclear magnetic moments (NMagM)
  in nuclear magnetons)

  Atom         1           2           3           4           5           6           7           8           9          10
 IAtWgt=          12          12          14           1           1           1           1           1           1           1
 AtmWgt=  12.0000000  12.0000000  14.0030740   1.0078250   1.0078250   1.0078250   1.0078250   1.0078250   1.0078250   1.0078250
 NucSpn=           0           0           2           1           1           1           1           1           1           1
 AtZEff=  -0.0000000  -0.0000000  -0.0000000  -0.0000000  -0.0000000  -0.0000000  -0.0000000  -0.0000000  -0.0000000  -0.0000000
 NQMom=    0.0000000   0.0000000   2.0440000   0.0000000   0.0000000   0.0000000   0.0000000   0.0000000   0.0000000   0.0000000
 NMagM=    0.0000000   0.0000000   0.4037610   2.7928460   2.7928460   2.7928460   2.7928460   2.7928460   2.7928460   2.7928460
 AtZNuc=   6.0000000   6.0000000   7.0000000   1.0000000   1.0000000   1.0000000   1.0000000   1.0000000   1.0000000   1.0000000
 Leave Link  101 at Mon Mar 21 03:59:57 2022, MaxMem=  8589934592 cpu:               0.8 elap:               0.1
 (Enter /home/sabyasachi/g16/l202.exe)
                          Input orientation:                          
 ---------------------------------------------------------------------
 Center     Atomic      Atomic             Coordinates (Angstroms)
 Number     Number       Type             X           Y           Z
 ---------------------------------------------------------------------
      1          6           0       -1.240791   -0.237624   -0.027525
      2          6           0        0.048946    0.559205    0.053709
      3          7           0        1.202342   -0.317606   -0.116703
      4          1           0       -2.109817    0.415828    0.064703
      5          1           0       -1.292929   -0.976209    0.776809
      6          1           0       -1.300329   -0.769884   -0.977746
      7          1           0        0.066306    1.122818    0.997967
      8          1           0        0.069957    1.296574   -0.752592
      9          1           0        1.236408   -1.003082    0.627159
     10          1           0        2.065080    0.207710   -0.076483
 ---------------------------------------------------------------------
                    Distance matrix (angstroms):
                    1          2          3          4          5
     1  C    0.000000
     2  C    1.518208   0.000000
     3  N    2.446068   1.458821   0.000000
     4  H    1.091197   2.163547   3.397239   0.000000
     5  H    1.093243   2.163561   2.731025   1.764134   0.000000
     6  H    1.090764   2.156599   2.685016   1.774228   1.766660
     7  H    2.147310   1.099811   2.146599   2.471099   2.510447
     8  H    2.144189   1.092829   2.071769   2.488996   3.059750
     9  H    2.674145   2.044420   1.012111   3.677891   2.533903
    10  H    3.336091   2.050682   1.010886   4.182465   3.661420
                    6          7          8          9         10
     6  H    0.000000
     7  H    3.058342   0.000000
     8  H    2.489704   1.759165   0.000000
     9  H    3.010836   2.454809   2.924507   0.000000
    10  H    3.618555   2.446827   2.371342   1.627214   0.000000
 Stoichiometry    C2H7N
 Framework group  C1[X(C2H7N)]
 Deg. of freedom    24
 Full point group                 C1      NOp   1
 Largest Abelian subgroup         C1      NOp   1
 Largest concise Abelian subgroup C1      NOp   1
                         Standard orientation:                         
 ---------------------------------------------------------------------
 Center     Atomic      Atomic             Coordinates (Angstroms)
 Number     Number       Type             X           Y           Z
 ---------------------------------------------------------------------
      1          6           0       -1.240791   -0.237624   -0.027525
      2          6           0        0.048946    0.559205    0.053709
      3          7           0        1.202342   -0.317606   -0.116703
      4          1           0       -2.109817    0.415828    0.064703
      5          1           0       -1.292929   -0.976209    0.776809
      6          1           0       -1.300329   -0.769884   -0.977746
      7          1           0        0.066306    1.122818    0.997967
      8          1           0        0.069957    1.296574   -0.752592
      9          1           0        1.236408   -1.003082    0.627159
     10          1           0        2.065080    0.207710   -0.076483
 ---------------------------------------------------------------------
 Rotational constants (GHZ):          32.9271088           8.9927821           7.8881896
 Leave Link  202 at Mon Mar 21 03:59:57 2022, MaxMem=  8589934592 cpu:               0.1 elap:               0.0
 (Enter /home/sabyasachi/g16/l301.exe)
 General basis read from cards:  (5D, 7F)
 Centers:       4      5      6      7      8      9     10
 S 3 1.00
     Exponent=  1.3010701000D+01 Coefficients=  1.9682158000D-02
     Exponent=  1.9622572000D+00 Coefficients=  1.3796524000D-01
     Exponent=  4.4453796000D-01 Coefficients=  4.7831935000D-01
 S 1 1.00
     Exponent=  1.2194962000D-01 Coefficients=  1.0000000000D+00
 P 1 1.00
     Exponent=  8.0000000000D-01 Coefficients=  1.0000000000D+00
 P 1 1.00
     Exponent=  1.1704099050D-01 Coefficients=  1.0000000000D+00
 ****
 Centers:       1      2
 S 5 1.00
     Exponent=  1.2384016938D+03 Coefficients=  5.4568832082D-03
     Exponent=  1.8629004992D+02 Coefficients=  4.0638409211D-02
     Exponent=  4.2251176346D+01 Coefficients=  1.8025593888D-01
     Exponent=  1.1676557932D+01 Coefficients=  4.6315121755D-01
     Exponent=  3.5930506482D+00 Coefficients=  4.4087173314D-01
 S 1 1.00
     Exponent=  4.0245147363D-01 Coefficients=  1.0000000000D+00
 S 1 1.00
     Exponent=  1.3090182668D-01 Coefficients=  1.0000000000D+00
 S 1 1.00
     Exponent=  6.7053540256D-02 Coefficients=  1.0000000000D+00
 P 3 1.00
     Exponent=  9.4680970621D+00 Coefficients=  3.8387871728D-02
     Exponent=  2.0103545142D+00 Coefficients=  2.1117025112D-01
     Exponent=  5.4771004707D-01 Coefficients=  5.1328172114D-01
 P 1 1.00
     Exponent=  1.5268613795D-01 Coefficients=  1.0000000000D+00
 D 1 1.00
     Exponent=  8.0000000000D-01 Coefficients=  1.0000000000D+00
 D 1 1.00
     Exponent=  1.1713185140D-01 Coefficients=  1.0000000000D+00
 ****
 Centers:       3
 S 5 1.00
     Exponent=  1.7128415853D+03 Coefficients= -5.3934125305D-03
     Exponent=  2.5764812677D+02 Coefficients= -4.0221581118D-02
     Exponent=  5.8458245853D+01 Coefficients= -1.7931144990D-01
     Exponent=  1.6198367905D+01 Coefficients= -4.6376317823D-01
     Exponent=  5.0052600809D+00 Coefficients= -4.4171422662D-01
 S 1 1.00
     Exponent=  5.8731856571D-01 Coefficients=  1.0000000000D+00
 S 1 1.00
     Exponent=  1.8764592253D-01 Coefficients=  1.0000000000D+00
 S 1 1.00
     Exponent=  9.6171241529D-02 Coefficients=  1.0000000000D+00
 P 3 1.00
     Exponent=  1.3571470233D+01 Coefficients= -4.0072398852D-02
     Exponent=  2.9257372874D+00 Coefficients= -2.1807045028D-01
     Exponent=  7.9927750754D-01 Coefficients= -5.1294466049D-01
 P 1 1.00
     Exponent=  2.1954348034D-01 Coefficients=  1.0000000000D+00
 D 1 1.00
     Exponent=  1.0000000000D+00 Coefficients=  1.0000000000D+00
 D 1 1.00
     Exponent=  1.6697708112D-01 Coefficients=  1.0000000000D+00
 ****
 Ernie: Thresh=  0.10000D-02 Tol=  0.10000D-05 Strict=F.
 There are   122 symmetry adapted cartesian basis functions of A   symmetry.
 There are   116 symmetry adapted basis functions of A   symmetry.
   116 basis functions,   166 primitive gaussians,   122 cartesian basis functions
    13 alpha electrons       13 beta electrons
       nuclear repulsion energy        83.1592446738 Hartrees.
 IExCor=  201 DFT=T Ex=S Corr=VWN5 ExCW=0 ScaHFX=  0.000000
 ScaDFX=  1.000000  1.000000  1.000000  1.000000 ScalE2=  1.000000  1.000000
 IRadAn=      5 IRanWt=     -1 IRanGd=            0 ICorTp=0 IEmpDi=  4
 NAtoms=   10 NActive=   10 NUniq=   10 SFac= 1.00D+00 NAtFMM=   60 NAOKFM=F Big=F
 Integral buffers will be    131072 words long.
 Regular integral format.
 Two-electron integral symmetry is turned on.
 Leave Link  301 at Mon Mar 21 03:59:57 2022, MaxMem=  8589934592 cpu:               0.5 elap:               0.1
 (Enter /home/sabyasachi/g16/l302.exe)
 NPDir=0 NMtPBC=     1 NCelOv=     1 NCel=       1 NClECP=     1 NCelD=      1
         NCelK=      1 NCelE2=     1 NClLst=     1 CellRange=     0.0.
 One-electron integrals computed using PRISM.
 One-electron integral symmetry used in STVInt
 NBasis=   116 RedAO= T EigKep=  2.68D-04  NBF=   116
 NBsUse=   116 1.00D-06 EigRej= -1.00D+00 NBFU=   116
 Precomputing XC quadrature grid using
 IXCGrd= 4 IRadAn=           5 IRanWt=          -1 IRanGd=           0 AccXCQ= 0.00D+00.
 Generated NRdTot=       0 NPtTot=           0 NUsed=           0 NTot=          32
 NSgBfM=   122   122   122   122   122 MxSgAt=    10 MxSgA2=    10.
 Leave Link  302 at Mon Mar 21 03:59:57 2022, MaxMem=  8589934592 cpu:               1.2 elap:               0.2
 (Enter /home/sabyasachi/g16/l303.exe)
 DipDrv:  MaxL=1.
 Leave Link  303 at Mon Mar 21 03:59:57 2022, MaxMem=  8589934592 cpu:               0.2 elap:               0.1
 (Enter /home/sabyasachi/g16/l308.exe)
 Leave Link  308 at Mon Mar 21 03:59:57 2022, MaxMem=  8589934592 cpu:               0.2 elap:               0.1
 (Enter /home/sabyasachi/g16/l401.exe)
 ExpMin= 6.71D-02 ExpMax= 1.71D+03 ExpMxC= 2.58D+02 IAcc=3 IRadAn=         5 AccDes= 0.00D+00
 Harris functional with IExCor=  201 and IRadAn=       5 diagonalized for initial guess.
 HarFok:  IExCor=  201 AccDes= 0.00D+00 IRadAn=         5 IDoV= 1 UseB2=F ITyADJ=14
 ICtDFT=  3500011 ScaDFX=  1.000000  1.000000  1.000000  1.000000
 FoFCou: FMM=F IPFlag=           0 FMFlag=      100000 FMFlg1=           0
         NFxFlg=           0 DoJE=T BraDBF=F KetDBF=T FulRan=T
         wScrn=  0.000000 ICntrl=       500 IOpCl=  0 I1Cent=   200000004 NGrid=           0
         NMat0=    1 NMatS0=      1 NMatT0=    0 NMatD0=    1 NMtDS0=    0 NMtDT0=    0
 Petite list used in FoFCou.
 Harris En= -133.986224106434    
 JPrj=0 DoOrth=F DoCkMO=F.
 Leave Link  401 at Mon Mar 21 03:59:58 2022, MaxMem=  8589934592 cpu:               2.6 elap:               0.4
 (Enter /home/sabyasachi/g16/l502.exe)
 Keep J ints in memory in canonical form, NReq=30603975.
 FoFCou: FMM=F IPFlag=           0 FMFlag=           0 FMFlg1=           0
         NFxFlg=           0 DoJE=F BraDBF=F KetDBF=F FulRan=T
         wScrn=  0.000000 ICntrl=       600 IOpCl=  0 I1Cent=           0 NGrid=           0
         NMat0=    1 NMatS0=   6786 NMatT0=    0 NMatD0=    1 NMtDS0=    0 NMtDT0=    0
 Symmetry not used in FoFCou.
 Two-electron integral symmetry not used.
 Closed shell SCF:
 Using DIIS extrapolation, IDIIS=  1040.
 NGot=  8589934592 LenX=  8566873951 LenY=  8566858626
 Requested convergence on RMS density matrix=1.00D-08 within 100 cycles.
 Requested convergence on MAX density matrix=1.00D-06.
 Requested convergence on             energy=1.00D-06.
 No special actions if energy rises.
 Integral accuracy reduced to 1.0D-05 until final iterations.

 Cycle   1  Pass 0  IDiag  1:
 E= -133.716324629352    
 DIIS: error= 3.22D-02 at cycle   1 NSaved=   1.
 NSaved= 1 IEnMin= 1 EnMin= -133.716324629352     IErMin= 1 ErrMin= 3.22D-02
 ErrMax= 3.22D-02  0.00D+00 EMaxC= 1.00D-01 BMatC= 1.35D-01 BMatP= 1.35D-01
 IDIUse=3 WtCom= 6.78D-01 WtEn= 3.22D-01
 Coeff-Com:  0.100D+01
 Coeff-En:   0.100D+01
 Coeff:      0.100D+01
 Gap=     0.095 Goal=   None    Shift=    0.000
 GapD=    0.095 DampG=0.500 DampE=0.500 DampFc=0.2500 IDamp=-1.
 Damping current iteration by 2.50D-01
 RMSDP=2.49D-02 MaxDP=1.66D+00              OVMax= 2.76D-01

 Cycle   2  Pass 0  IDiag  1:
 E= -133.769607732066     Delta-E=       -0.053283102714 Rises=F Damp=T
 DIIS: error= 1.07D-02 at cycle   2 NSaved=   2.
 NSaved= 2 IEnMin= 2 EnMin= -133.769607732066     IErMin= 2 ErrMin= 1.07D-02
 ErrMax= 1.07D-02  0.00D+00 EMaxC= 1.00D-01 BMatC= 1.53D-02 BMatP= 1.35D-01
 IDIUse=3 WtCom= 8.93D-01 WtEn= 1.07D-01
 Coeff-Com: -0.434D+00 0.143D+01
 Coeff-En:   0.000D+00 0.100D+01
 Coeff:     -0.388D+00 0.139D+01
 Gap=     0.198 Goal=   None    Shift=    0.000
 RMSDP=2.88D-03 MaxDP=7.80D-02 DE=-5.33D-02 OVMax= 1.94D-01

 Cycle   3  Pass 0  IDiag  1:
 E= -133.858433052619     Delta-E=       -0.088825320553 Rises=F Damp=F
 DIIS: error= 3.90D-03 at cycle   3 NSaved=   3.
 NSaved= 3 IEnMin= 3 EnMin= -133.858433052619     IErMin= 3 ErrMin= 3.90D-03
 ErrMax= 3.90D-03  0.00D+00 EMaxC= 1.00D-01 BMatC= 3.29D-03 BMatP= 1.53D-02
 IDIUse=3 WtCom= 9.61D-01 WtEn= 3.90D-02
 Coeff-Com: -0.211D+00 0.711D+00 0.499D+00
 Coeff-En:   0.000D+00 0.000D+00 0.100D+01
 Coeff:     -0.203D+00 0.684D+00 0.519D+00
 Gap=     0.199 Goal=   None    Shift=    0.000
 RMSDP=1.04D-03 MaxDP=5.02D-02 DE=-8.88D-02 OVMax= 1.74D-02

 Cycle   4  Pass 0  IDiag  1:
 E= -133.861087305240     Delta-E=       -0.002654252622 Rises=F Damp=F
 DIIS: error= 1.99D-03 at cycle   4 NSaved=   4.
 NSaved= 4 IEnMin= 4 EnMin= -133.861087305240     IErMin= 4 ErrMin= 1.99D-03
 ErrMax= 1.99D-03  0.00D+00 EMaxC= 1.00D-01 BMatC= 5.91D-04 BMatP= 3.29D-03
 IDIUse=3 WtCom= 9.80D-01 WtEn= 1.99D-02
 Coeff-Com: -0.647D-01 0.212D+00 0.305D+00 0.547D+00
 Coeff-En:   0.000D+00 0.000D+00 0.138D+00 0.862D+00
 Coeff:     -0.634D-01 0.208D+00 0.302D+00 0.553D+00
 Gap=     0.202 Goal=   None    Shift=    0.000
 RMSDP=4.70D-04 MaxDP=2.84D-02 DE=-2.65D-03 OVMax= 6.15D-03

 Cycle   5  Pass 0  IDiag  1:
 E= -133.861618674446     Delta-E=       -0.000531369205 Rises=F Damp=F
 DIIS: error= 3.01D-04 at cycle   5 NSaved=   5.
 NSaved= 5 IEnMin= 5 EnMin= -133.861618674446     IErMin= 5 ErrMin= 3.01D-04
 ErrMax= 3.01D-04  0.00D+00 EMaxC= 1.00D-01 BMatC= 2.01D-05 BMatP= 5.91D-04
 IDIUse=3 WtCom= 9.97D-01 WtEn= 3.01D-03
 Coeff-Com: -0.837D-02 0.215D-01 0.695D-01 0.223D+00 0.694D+00
 Coeff-En:   0.000D+00 0.000D+00 0.000D+00 0.000D+00 0.100D+01
 Coeff:     -0.835D-02 0.215D-01 0.693D-01 0.222D+00 0.695D+00
 Gap=     0.201 Goal=   None    Shift=    0.000
 RMSDP=9.40D-05 MaxDP=4.75D-03 DE=-5.31D-04 OVMax= 1.35D-03

 Cycle   6  Pass 0  IDiag  1:
 E= -133.861635626256     Delta-E=       -0.000016951811 Rises=F Damp=F
 DIIS: error= 1.03D-04 at cycle   6 NSaved=   6.
 NSaved= 6 IEnMin= 6 EnMin= -133.861635626256     IErMin= 6 ErrMin= 1.03D-04
 ErrMax= 1.03D-04  0.00D+00 EMaxC= 1.00D-01 BMatC= 1.73D-06 BMatP= 2.01D-05
 IDIUse=3 WtCom= 9.99D-01 WtEn= 1.03D-03
 Coeff-Com: -0.188D-02 0.301D-02 0.242D-01 0.955D-01 0.369D+00 0.511D+00
 Coeff-En:   0.000D+00 0.000D+00 0.000D+00 0.000D+00 0.000D+00 0.100D+01
 Coeff:     -0.188D-02 0.301D-02 0.242D-01 0.954D-01 0.368D+00 0.511D+00
 Gap=     0.201 Goal=   None    Shift=    0.000
 RMSDP=1.47D-05 MaxDP=4.42D-04 DE=-1.70D-05 OVMax= 3.50D-04

 Cycle   7  Pass 0  IDiag  1:
 E= -133.861637226906     Delta-E=       -0.000001600650 Rises=F Damp=F
 DIIS: error= 2.38D-05 at cycle   7 NSaved=   7.
 NSaved= 7 IEnMin= 7 EnMin= -133.861637226906     IErMin= 7 ErrMin= 2.38D-05
 ErrMax= 2.38D-05  0.00D+00 EMaxC= 1.00D-01 BMatC= 1.01D-07 BMatP= 1.73D-06
 IDIUse=1 WtCom= 1.00D+00 WtEn= 0.00D+00
 Coeff-Com: -0.236D-03-0.243D-03 0.636D-02 0.289D-01 0.126D+00 0.253D+00
 Coeff-Com:  0.585D+00
 Coeff:     -0.236D-03-0.243D-03 0.636D-02 0.289D-01 0.126D+00 0.253D+00
 Coeff:      0.585D+00
 Gap=     0.201 Goal=   None    Shift=    0.000
 RMSDP=4.20D-06 MaxDP=8.79D-05 DE=-1.60D-06 OVMax= 9.98D-05

 Initial convergence to 1.0D-05 achieved.  Increase integral accuracy.
 Cycle   8  Pass 1  IDiag  1:
 E= -133.861645354342     Delta-E=       -0.000008127436 Rises=F Damp=F
 DIIS: error= 4.73D-06 at cycle   1 NSaved=   1.
 NSaved= 1 IEnMin= 1 EnMin= -133.861645354342     IErMin= 1 ErrMin= 4.73D-06
 ErrMax= 4.73D-06  0.00D+00 EMaxC= 1.00D-01 BMatC= 4.56D-09 BMatP= 4.56D-09
 IDIUse=1 WtCom= 1.00D+00 WtEn= 0.00D+00
 Coeff-Com:  0.100D+01
 Coeff:      0.100D+01
 Gap=     0.201 Goal=   None    Shift=    0.000
 RMSDP=4.20D-06 MaxDP=8.79D-05 DE=-8.13D-06 OVMax= 4.19D-05

 Cycle   9  Pass 1  IDiag  1:
 E= -133.861645354365     Delta-E=       -0.000000000023 Rises=F Damp=F
 DIIS: error= 5.28D-06 at cycle   2 NSaved=   2.
 NSaved= 2 IEnMin= 2 EnMin= -133.861645354365     IErMin= 1 ErrMin= 4.73D-06
 ErrMax= 5.28D-06  0.00D+00 EMaxC= 1.00D-01 BMatC= 5.25D-09 BMatP= 4.56D-09
 IDIUse=1 WtCom= 1.00D+00 WtEn= 0.00D+00
 Coeff-Com:  0.519D+00 0.481D+00
 Coeff:      0.519D+00 0.481D+00
 Gap=     0.201 Goal=   None    Shift=    0.000
 RMSDP=1.13D-06 MaxDP=4.73D-05 DE=-2.29D-11 OVMax= 2.43D-05

 Cycle  10  Pass 1  IDiag  1:
 E= -133.861645359614     Delta-E=       -0.000000005248 Rises=F Damp=F
 DIIS: error= 1.23D-06 at cycle   3 NSaved=   3.
 NSaved= 3 IEnMin= 3 EnMin= -133.861645359614     IErMin= 3 ErrMin= 1.23D-06
 ErrMax= 1.23D-06  0.00D+00 EMaxC= 1.00D-01 BMatC= 3.24D-10 BMatP= 4.56D-09
 IDIUse=1 WtCom= 1.00D+00 WtEn= 0.00D+00
 Coeff-Com:  0.188D+00 0.247D+00 0.565D+00
 Coeff:      0.188D+00 0.247D+00 0.565D+00
 Gap=     0.201 Goal=   None    Shift=    0.000
 RMSDP=3.31D-07 MaxDP=1.86D-05 DE=-5.25D-09 OVMax= 4.90D-06

 Cycle  11  Pass 1  IDiag  1:
 E= -133.861645359874     Delta-E=       -0.000000000261 Rises=F Damp=F
 DIIS: error= 3.39D-07 at cycle   4 NSaved=   4.
 NSaved= 4 IEnMin= 4 EnMin= -133.861645359874     IErMin= 4 ErrMin= 3.39D-07
 ErrMax= 3.39D-07  0.00D+00 EMaxC= 1.00D-01 BMatC= 3.15D-11 BMatP= 3.24D-10
 IDIUse=1 WtCom= 1.00D+00 WtEn= 0.00D+00
 Coeff-Com:  0.238D-01 0.610D-01 0.280D+00 0.635D+00
 Coeff:      0.238D-01 0.610D-01 0.280D+00 0.635D+00
 Gap=     0.201 Goal=   None    Shift=    0.000
 RMSDP=1.57D-07 MaxDP=9.86D-06 DE=-2.61D-10 OVMax= 2.16D-06

 Cycle  12  Pass 1  IDiag  1:
 E= -133.861645359899     Delta-E=       -0.000000000025 Rises=F Damp=F
 DIIS: error= 1.64D-07 at cycle   5 NSaved=   5.
 NSaved= 5 IEnMin= 5 EnMin= -133.861645359899     IErMin= 5 ErrMin= 1.64D-07
 ErrMax= 1.64D-07  0.00D+00 EMaxC= 1.00D-01 BMatC= 5.75D-12 BMatP= 3.15D-11
 IDIUse=1 WtCom= 1.00D+00 WtEn= 0.00D+00
 Coeff-Com:  0.383D-02 0.235D-01 0.141D+00 0.399D+00 0.433D+00
 Coeff:      0.383D-02 0.235D-01 0.141D+00 0.399D+00 0.433D+00
 Gap=     0.201 Goal=   None    Shift=    0.000
 RMSDP=5.08D-08 MaxDP=3.34D-06 DE=-2.46D-11 OVMax= 7.40D-07

 Cycle  13  Pass 1  IDiag  1:
 E= -133.861645359902     Delta-E=       -0.000000000003 Rises=F Damp=F
 DIIS: error= 1.88D-08 at cycle   6 NSaved=   6.
 NSaved= 6 IEnMin= 6 EnMin= -133.861645359902     IErMin= 6 ErrMin= 1.88D-08
 ErrMax= 1.88D-08  0.00D+00 EMaxC= 1.00D-01 BMatC= 1.11D-13 BMatP= 5.75D-12
 IDIUse=1 WtCom= 1.00D+00 WtEn= 0.00D+00
 Coeff-Com: -0.202D-03 0.575D-02 0.417D-01 0.130D+00 0.189D+00 0.634D+00
 Coeff:     -0.202D-03 0.575D-02 0.417D-01 0.130D+00 0.189D+00 0.634D+00
 Gap=     0.201 Goal=   None    Shift=    0.000
 RMSDP=5.18D-09 MaxDP=1.28D-07 DE=-3.24D-12 OVMax= 8.49D-08

 SCF Done:  E(RS-VWN5) =  -133.861645360     A.U. after   13 cycles
            NFock= 13  Conv=0.52D-08     -V/T= 2.0070
 KE= 1.329261066180D+02 PE=-4.782924190760D+02 EE= 1.283454224243D+02
 Leave Link  502 at Mon Mar 21 04:00:01 2022, MaxMem=  8589934592 cpu:              18.9 elap:               2.7
 (Enter /home/sabyasachi/g16/l801.exe)
 DoSCS=F DFT=T ScalE2(SS,OS)=  1.000000  1.000000
 ExpMin= 6.71D-02 ExpMax= 1.71D+03 ExpMxC= 2.58D+02 IAcc=3 IRadAn=         5 AccDes= 0.00D+00
 HarFok:  IExCor=  205 AccDes= 0.00D+00 IRadAn=         5 IDoV=-2 UseB2=F ITyADJ=14
 ICtDFT= 12500011 ScaDFX=  1.000000  1.000000  1.000000  1.000000
 Largest valence mixing into a core orbital is  8.05D-05
 Largest core mixing into a valence orbital is  2.42D-06
 Range of M.O.s used for correlation:     4   116
 NBasis=   116 NAE=    13 NBE=    13 NFC=     3 NFV=     0
 NROrb=    113 NOA=    10 NOB=    10 NVA=   103 NVB=   103

 **** Warning!!: The largest alpha MO coefficient is  0.19779793D+02

 Leave Link  801 at Mon Mar 21 04:00:01 2022, MaxMem=  8589934592 cpu:               0.7 elap:               0.1
 (Enter /home/sabyasachi/g16/l914.exe)
 RHF ground state
 Keep J ints in memory in canonical form, NReq=1236284467.
 FoFCou: FMM=F IPFlag=           0 FMFlag=           0 FMFlg1=           0
         NFxFlg=           0 DoJE=F BraDBF=F KetDBF=F FulRan=T
         wScrn=  0.000000 ICntrl=       600 IOpCl=  0 I1Cent=           0 NGrid=           0
         NMat0=    1 NMatS0=   6786 NMatT0=    0 NMatD0=    1 NMtDS0=    0 NMtDT0=    0
 Symmetry not used in FoFCou.
 Two-electron integral symmetry not used.
 MDV=  8589934592 DFT=T DoStab=F Mixed=F DoRPA=T DoScal=T NonHer=F
 Making orbital integer symmetry assigments:
 Orbital symmetries:
       Occupied  (A) (A) (A) (A) (A) (A) (A) (A) (A) (A) (A) (A)
                 (A)
       Virtual   (A) (A) (A) (A) (A) (A) (A) (A) (A) (A) (A) (A)
                 (A) (A) (A) (A) (A) (A) (A) (A) (A) (A) (A) (A)
                 (A) (A) (A) (A) (A) (A) (A) (A) (A) (A) (A) (A)
                 (A) (A) (A) (A) (A) (A) (A) (A) (A) (A) (A) (A)
                 (A) (A) (A) (A) (A) (A) (A) (A) (A) (A) (A) (A)
                 (A) (A) (A) (A) (A) (A) (A) (A) (A) (A) (A) (A)
                 (A) (A) (A) (A) (A) (A) (A) (A) (A) (A) (A) (A)
                 (A) (A) (A) (A) (A) (A) (A) (A) (A) (A) (A) (A)
                 (A) (A) (A) (A) (A) (A) (A)
  1030 initial guesses have been made.
 Convergence on wavefunction:    0.001000000000000
 Davidson Disk Diagonalization:  ConvIn= 1.00D-03 SkipCon=T Conv= 1.00D-03.
 Max sub-space:  4120 roots to seek:  2060 dimension of matrix:         2060
 *** WARNING: Number of orthogonal guesses is         1030
 Iteration     1 Dimension  1030 NMult     0 NNew   1030
 CISAX will form  1030 AO SS matrices at one time.
 NMat=  1030 NSing=  1030 JSym2X= 0.
 New state     19 was old state     20
 New state     20 was old state     19
 New state     27 was old state     28
 New state     28 was old state     27
 New state     32 was old state     33
 New state     33 was old state     32
 New state     40 was old state     41
 New state     41 was old state     40
 New state     46 was old state     47
 New state     47 was old state     46
 New state     50 was old state     51
 New state     51 was old state     50
 New state     59 was old state     60
 New state     60 was old state     59
 New state     61 was old state     62
 New state     62 was old state     61
 New state     64 was old state     65
 New state     65 was old state     68
 New state     67 was old state     70
 New state     68 was old state     69
 New state     69 was old state     71
 New state     70 was old state     74
 New state     71 was old state     72
 New state     72 was old state     73
 New state     73 was old state     67
 New state     74 was old state     64
 New state     75 was old state     78
 New state     78 was old state     79
 New state     79 was old state     81
 New state     80 was old state     82
 New state     81 was old state     83
 New state     82 was old state     84
 New state     83 was old state     80
 New state     84 was old state     87
 New state     85 was old state     88
 New state     87 was old state     91
 New state     88 was old state     90
 New state     89 was old state     93
 New state     90 was old state     89
 New state     91 was old state     94
 New state     93 was old state     95
 New state     94 was old state     97
 New state     95 was old state     98
 New state     97 was old state    100
 New state     98 was old state     99
 New state     99 was old state    103
 New state    100 was old state    102
 New state    102 was old state    104
 New state    103 was old state    106
 New state    104 was old state    107
 New state    105 was old state    108
 New state    106 was old state    110
 New state    107 was old state    105
 New state    108 was old state    111
 New state    109 was old state    112
 New state    110 was old state    109
 New state    111 was old state    122
 New state    112 was old state    113
 New state    113 was old state    118
 New state    116 was old state    119
 New state    117 was old state    120
 New state    118 was old state    117
 New state    119 was old state    116
 New state    120 was old state    123
 New state    121 was old state    124
 New state    122 was old state    125
 New state    123 was old state    129
 New state    124 was old state    128
 New state    125 was old state    126
 New state    126 was old state    127
 New state    127 was old state    130
 New state    128 was old state    131
 New state    129 was old state    132
 New state    130 was old state    121
 New state    131 was old state    134
 New state    132 was old state    136
 New state    133 was old state    139
 New state    134 was old state    133
 New state    136 was old state    138
 New state    138 was old state    143
 New state    139 was old state    141
 New state    140 was old state    146
 New state    141 was old state    140
 New state    142 was old state    145
 New state    143 was old state    144
 New state    144 was old state    142
 New state    145 was old state    147
 New state    146 was old state    148
 New state    147 was old state    150
 New state    148 was old state    152
 New state    150 was old state    154
 New state    152 was old state    153
 New state    153 was old state    155
 New state    154 was old state    157
 New state    155 was old state    158
 New state    157 was old state    166
 New state    158 was old state    160
 New state    159 was old state    162
 New state    160 was old state    159
 New state    161 was old state    163
 New state    162 was old state    167
 New state    163 was old state    165
 New state    164 was old state    161
 New state    165 was old state    169
 New state    166 was old state    164
 New state    167 was old state    168
 New state    168 was old state    172
 New state    169 was old state    170
 New state    170 was old state    173
 New state    171 was old state    175
 New state    172 was old state    174
 New state    173 was old state    171
 New state    174 was old state    178
 New state    175 was old state    176
 New state    176 was old state    179
 New state    178 was old state    187
 New state    179 was old state    180
 New state    180 was old state    183
 New state    182 was old state    184
 New state    183 was old state    190
 New state    184 was old state    192
 New state    186 was old state    191
 New state    187 was old state    182
 New state    190 was old state    197
 New state    191 was old state    195
 New state    192 was old state    198
 New state    193 was old state    194
 New state    194 was old state    193
 New state    195 was old state    203
 New state    196 was old state    202
 New state    197 was old state    196
 New state    198 was old state    199
 New state    199 was old state    201
 New state    201 was old state    205
 New state    202 was old state    207
 New state    203 was old state    206
 New state    204 was old state    210
 New state    205 was old state    204
 New state    206 was old state    208
 New state    207 was old state    209
 New state    208 was old state    213
 New state    209 was old state    215
 New state    210 was old state    212
 New state    211 was old state    214
 New state    212 was old state    216
 New state    213 was old state    217
 New state    214 was old state    220
 New state    215 was old state    211
 New state    216 was old state    224
 New state    217 was old state    218
 New state    218 was old state    221
 New state    220 was old state    232
 New state    221 was old state    226
 New state    222 was old state    223
 New state    223 was old state    227
 New state    224 was old state    225
 New state    225 was old state    228
 New state    226 was old state    230
 New state    227 was old state    229
 New state    228 was old state    234
 New state    229 was old state    222
 New state    230 was old state    233
 New state    232 was old state    235
 New state    233 was old state    240
 New state    234 was old state    238
 New state    235 was old state    236
 New state    236 was old state    242
 New state    237 was old state    239
 New state    238 was old state    237
 New state    239 was old state    249
 New state    240 was old state    246
 New state    241 was old state    248
 New state    242 was old state    257
 New state    243 was old state    241
 New state    244 was old state    245
 New state    245 was old state    244
 New state    246 was old state    243
 New state    247 was old state    250
 New state    248 was old state    253
 New state    249 was old state    252
 New state    250 was old state    256
 New state    251 was old state    259
 New state    252 was old state    254
 New state    253 was old state    258
 New state    254 was old state    251
 New state    256 was old state    270
 New state    257 was old state    262
 New state    258 was old state    261
 New state    259 was old state    260
 New state    260 was old state    267
 New state    261 was old state    263
 New state    262 was old state    266
 New state    263 was old state    264
 New state    264 was old state    272
 New state    265 was old state    271
 New state    266 was old state    273
 New state    267 was old state    275
 New state    268 was old state    265
 New state    270 was old state    278
 New state    271 was old state    268
 New state    272 was old state    277
 New state    273 was old state    276
 New state    274 was old state    279
 New state    275 was old state    282
 New state    276 was old state    274
 New state    277 was old state    280
 New state    278 was old state    292
 New state    279 was old state    285
 New state    280 was old state    290
 New state    281 was old state    286
 New state    282 was old state    283
 New state    283 was old state    281
 New state    284 was old state    287
 New state    285 was old state    288
 New state    286 was old state    284
 New state    287 was old state    293
 New state    288 was old state    291
 New state    289 was old state    294
 New state    290 was old state    295
 New state    291 was old state    289
 New state    292 was old state    296
 New state    293 was old state    297
 New state    294 was old state    300
 New state    295 was old state    298
 New state    296 was old state    302
 New state    297 was old state    303
 New state    298 was old state    307
 New state    299 was old state    301
 New state    300 was old state    304
 New state    301 was old state    305
 New state    302 was old state    306
 New state    303 was old state    309
 New state    304 was old state    299
 New state    305 was old state    313
 New state    306 was old state    311
 New state    307 was old state    308
 New state    308 was old state    310
 New state    309 was old state    312
 New state    310 was old state    316
 New state    311 was old state    320
 New state    312 was old state    317
 New state    313 was old state    315
 New state    314 was old state    322
 New state    315 was old state    314
 New state    316 was old state    319
 New state    317 was old state    321
 New state    318 was old state    325
 New state    319 was old state    318
 New state    320 was old state    324
 New state    321 was old state    323
 New state    322 was old state    327
 New state    323 was old state    328
 New state    324 was old state    326
 New state    325 was old state    330
 New state    326 was old state    331
 New state    327 was old state    329
 New state    328 was old state    333
 New state    329 was old state    332
 New state    330 was old state    334
 New state    331 was old state    335
 New state    332 was old state    336
 New state    333 was old state    340
 New state    334 was old state    345
 New state    335 was old state    338
 New state    336 was old state    339
 New state    337 was old state    342
 New state    338 was old state    337
 New state    339 was old state    348
 New state    340 was old state    346
 New state    341 was old state    344
 New state    342 was old state    349
 New state    344 was old state    347
 New state    345 was old state    341
 New state    346 was old state    353
 New state    347 was old state    352
 New state    348 was old state    351
 New state    349 was old state    354
 New state    350 was old state    356
 New state    351 was old state    355
 New state    352 was old state    357
 New state    353 was old state    359
 New state    354 was old state    350
 New state    355 was old state    358
 New state    356 was old state    360
 New state    357 was old state    363
 New state    358 was old state    361
 New state    359 was old state    362
 New state    360 was old state    369
 New state    361 was old state    364
 New state    362 was old state    367
 New state    363 was old state    365
 New state    364 was old state    366
 New state    365 was old state    368
 New state    366 was old state    370
 New state    367 was old state    372
 New state    368 was old state    373
 New state    369 was old state    375
 New state    370 was old state    374
 New state    372 was old state    376
 New state    373 was old state    377
 New state    374 was old state    382
 New state    375 was old state    388
 New state    376 was old state    379
 New state    377 was old state    381
 New state    379 was old state    383
 New state    381 was old state    394
 New state    382 was old state    384
 New state    383 was old state    395
 New state    384 was old state    386
 New state    386 was old state    387
 New state    387 was old state    390
 New state    388 was old state    389
 New state    389 was old state    392
 New state    390 was old state    393
 New state    392 was old state    401
 No map to state    393
 New state    394 was old state    396
 New state    395 was old state    399
 New state    396 was old state    402
 New state    397 was old state    398
 New state    398 was old state    400
 New state    399 was old state    416
 New state    400 was old state    397
 New state    401 was old state    404
 New state    402 was old state    403
 New state    403 was old state    411
 New state    404 was old state    405
 New state    405 was old state    407
 New state    406 was old state    409
 New state    407 was old state    406
 New state    409 was old state    410
 New state    410 was old state    414
 New state    411 was old state    412
 New state    412 was old state    413
 New state    413 was old state    415
 New state    414 was old state    417
 New state    415 was old state    419
 New state    416 was old state    421
 New state    417 was old state    418
 New state    418 was old state    422
 New state    419 was old state    426
 New state    421 was old state    430
 New state    422 was old state    423
 New state    423 was old state    433
 New state    424 was old state    425
 New state    425 was old state    424
 New state    426 was old state    427
 New state    427 was old state    432
 New state    428 was old state    431
 New state    429 was old state    428
 New state    430 was old state    429
 New state    431 was old state    435
 New state    432 was old state    436
 New state    433 was old state    438
 New state    435 was old state    440
 No map to state    436
 New state    438 was old state    441
 New state    439 was old state    442
 New state    440 was old state    439
 New state    441 was old state    446
 New state    442 was old state    443
 New state    443 was old state    445
 New state    444 was old state    447
 New state    445 was old state    449
 New state    446 was old state    448
 New state    447 was old state    444
 New state    448 was old state    450
 New state    449 was old state    451
 New state    450 was old state    454
 New state    451 was old state    453
 New state    452 was old state    461
 New state    453 was old state    455
 New state    454 was old state    456
 New state    455 was old state    458
 New state    456 was old state    459
 New state    457 was old state    452
 New state    458 was old state    460
 New state    459 was old state    462
 New state    460 was old state    457
 New state    461 was old state    463
 New state    462 was old state    467
 New state    463 was old state    464
 New state    464 was old state    466
 New state    465 was old state    469
 New state    466 was old state    472
 New state    467 was old state    470
 New state    468 was old state    465
 New state    469 was old state    468
 New state    470 was old state    471
 No map to state    471
 New state    472 was old state    474
 New state    474 was old state    475
 New state    475 was old state    476
 New state    476 was old state    477
 New state    477 was old state    479
 New state    478 was old state    480
 New state    479 was old state    481
 New state    480 was old state    478
 New state    481 was old state    482
 New state    482 was old state    483
 New state    483 was old state    485
 New state    485 was old state    486
 New state    486 was old state    489
 New state    487 was old state    491
 New state    488 was old state    490
 New state    489 was old state    492
 New state    490 was old state    487
 New state    491 was old state    488
 New state    492 was old state    497
 New state    494 was old state    495
 New state    495 was old state    494
 New state    496 was old state    501
 New state    497 was old state    496
 New state    498 was old state    500
 New state    499 was old state    498
 New state    500 was old state    499
 New state    501 was old state    502
 New state    502 was old state    503
 New state    503 was old state    505
 New state    505 was old state    508
 New state    508 was old state    509
 New state    509 was old state    510
 New state    510 was old state    512
 New state    511 was old state    513
 New state    512 was old state    515
 New state    513 was old state    518
 New state    514 was old state    517
 New state    515 was old state    516
 New state    516 was old state    522
 New state    517 was old state    514
 New state    518 was old state    519
 New state    519 was old state    521
 New state    521 was old state    524
 New state    522 was old state    523
 New state    523 was old state    525
 New state    524 was old state    529
 New state    525 was old state    527
 New state    527 was old state    528
 New state    528 was old state    530
 New state    529 was old state    531
 New state    530 was old state    533
 New state    531 was old state    535
 New state    532 was old state    534
 New state    533 was old state    543
 New state    534 was old state    537
 New state    535 was old state    536
 New state    536 was old state    538
 New state    537 was old state    539
 New state    538 was old state    540
 New state    539 was old state    541
 New state    540 was old state    532
 New state    541 was old state    542
 New state    542 was old state    544
 New state    543 was old state    545
 New state    544 was old state    547
 New state    545 was old state    546
 New state    546 was old state    548
 New state    547 was old state    553
 New state    548 was old state    550
 New state    550 was old state    551
 New state    551 was old state    556
 New state    553 was old state    562
 New state    554 was old state    555
 New state    555 was old state    554
 New state    556 was old state    558
 New state    557 was old state    561
 New state    558 was old state    559
 New state    559 was old state    557
 New state    561 was old state    563
 New state    562 was old state    567
 New state    563 was old state    566
 New state    564 was old state    565
 New state    565 was old state    568
 New state    566 was old state    572
 New state    567 was old state    574
 New state    568 was old state    573
 New state    572 was old state    575
 New state    573 was old state    578
 New state    574 was old state    579
 New state    575 was old state    577
 New state    576 was old state    580
 New state    577 was old state    576
 New state    578 was old state    582
 New state    579 was old state    581
 New state    580 was old state    585
 New state    581 was old state    584
 New state    582 was old state    583
 New state    583 was old state    588
 New state    584 was old state    586
 New state    585 was old state    587
 New state    586 was old state    589
 New state    587 was old state    594
 New state    588 was old state    590
 New state    589 was old state    591
 New state    590 was old state    593
 New state    591 was old state    592
 New state    592 was old state    595
 New state    593 was old state    596
 New state    594 was old state    598
 New state    595 was old state    597
 New state    596 was old state    599
 New state    597 was old state    600
 New state    598 was old state    607
 New state    599 was old state    604
 New state    600 was old state    601
 New state    601 was old state    602
 New state    602 was old state    603
 New state    603 was old state    606
 New state    604 was old state    605
 New state    605 was old state    610
 New state    606 was old state    609
 New state    607 was old state    608
 New state    608 was old state    611
 No map to state    609
 New state    610 was old state    616
 New state    611 was old state    612
 New state    612 was old state    614
 New state    614 was old state    615
 New state    615 was old state    621
 New state    616 was old state    618
 New state    617 was old state    620
 New state    618 was old state    617
 New state    620 was old state    625
 New state    621 was old state    623
 New state    623 was old state    626
 New state    625 was old state    628
 New state    626 was old state    627
 New state    627 was old state    629
 New state    628 was old state    634
 New state    629 was old state    631
 No map to state    631
 New state    632 was old state    635
 New state    633 was old state    636
 New state    634 was old state    633
 New state    635 was old state    632
 New state    636 was old state    637
 New state    637 was old state    640
 New state    638 was old state    639
 New state    639 was old state    638
 New state    640 was old state    641
 New state    641 was old state    642
 New state    642 was old state    643
 New state    643 was old state    649
 New state    645 was old state    646
 New state    646 was old state    648
 New state    647 was old state    645
 New state    648 was old state    647
 New state    649 was old state    650
 New state    650 was old state    651
 New state    651 was old state    656
 New state    652 was old state    653
 New state    653 was old state    655
 New state    654 was old state    652
 New state    655 was old state    654
 New state    656 was old state    663
 New state    658 was old state    659
 New state    659 was old state    658
 New state    663 was old state    665
 New state    665 was old state    666
 New state    666 was old state    667
 New state    667 was old state    668
 New state    668 was old state    669
 New state    669 was old state    670
 New state    670 was old state    671
 New state    671 was old state    672
 New state    672 was old state    675
 New state    675 was old state    677
 New state    676 was old state    679
 New state    677 was old state    678
 New state    678 was old state    676
 New state    679 was old state    680
 New state    680 was old state    683
 New state    682 was old state    684
 New state    683 was old state    682
 No map to state    684
 New state    687 was old state    688
 New state    688 was old state    689
 New state    689 was old state    687
 New state    690 was old state    691
 New state    691 was old state    690
 New state    692 was old state    693
 New state    693 was old state    692
 New state    700 was old state    701
 New state    701 was old state    700
 New state    706 was old state    709
 New state    707 was old state    706
 New state    708 was old state    707
 New state    709 was old state    711
 New state    710 was old state    708
 New state    711 was old state    710
 New state    721 was old state    722
 New state    722 was old state    723
 New state    723 was old state    721
 New state    730 was old state    731
 New state    731 was old state    730
 New state    733 was old state    735
 New state    735 was old state    733
 New state    737 was old state    738
 New state    738 was old state    739
 New state    739 was old state    737
 New state    742 was old state    743
 New state    743 was old state    744
 New state    744 was old state    748
 New state    748 was old state    750
 New state    750 was old state    742
 New state    753 was old state    754
 New state    754 was old state    753
 New state    755 was old state    757
 New state    756 was old state    755
 New state    757 was old state    756
 New state    759 was old state    760
 New state    760 was old state    761
 New state    761 was old state    765
 New state    762 was old state    764
 New state    763 was old state    769
 New state    764 was old state    763
 New state    765 was old state    766
 New state    766 was old state    768
 New state    768 was old state    776
 New state    769 was old state    771
 New state    771 was old state    759
 New state    772 was old state    773
 New state    773 was old state    772
 New state    776 was old state    777
 New state    777 was old state    778
 New state    778 was old state    779
 New state    779 was old state    787
 New state    783 was old state    784
 New state    784 was old state    786
 New state    786 was old state    793
 New state    787 was old state    789
 New state    789 was old state    790
 New state    790 was old state    792
 New state    792 was old state    796
 New state    793 was old state    795
 New state    795 was old state    797
 New state    796 was old state    805
 New state    797 was old state    798
 New state    798 was old state    800
 New state    800 was old state    801
 New state    801 was old state    803
 New state    803 was old state    806
 New state    804 was old state    808
 New state    805 was old state    804
 New state    806 was old state    807
 New state    807 was old state    811
 New state    808 was old state    809
 New state    809 was old state    813
 New state    811 was old state    812
 No map to state    812
 New state    813 was old state    814
 New state    814 was old state    818
 New state    815 was old state    816
 New state    816 was old state    815
 New state    818 was old state    819
 New state    819 was old state    820
 New state    820 was old state    823
 New state    823 was old state    824
 New state    824 was old state    825
 New state    825 was old state    827
 New state    826 was old state    831
 New state    827 was old state    826
 No map to state    831
 New state    833 was old state    834
 New state    834 was old state    836
 New state    836 was old state    837
 New state    837 was old state    838
 New state    838 was old state    839
 New state    839 was old state    833
 New state    840 was old state    841
 New state    841 was old state    842
 New state    842 was old state    844
 New state    843 was old state    845
 New state    844 was old state    843
 New state    845 was old state    840
 New state    848 was old state    849
 New state    849 was old state    848
 New state    852 was old state    853
 New state    853 was old state    852
 New state    860 was old state    861
 New state    861 was old state    860
 New state    875 was old state    876
 New state    876 was old state    875
 New state    877 was old state    878
 New state    878 was old state    877
 New state    882 was old state    883
 New state    883 was old state    884
 New state    884 was old state    882
 New state    892 was old state    893
 New state    893 was old state    892
 New state    902 was old state    903
 New state    903 was old state    902
 New state    905 was old state    907
 New state    907 was old state    908
 New state    908 was old state    905
 New state    916 was old state    917
 New state    917 was old state    916
 New state    923 was old state    924
 New state    924 was old state    923
 New state    930 was old state    931
 New state    931 was old state    930
 New state    933 was old state    934
 New state    934 was old state    935
 New state    935 was old state    936
 New state    936 was old state    937
 New state    937 was old state    938
 New state    938 was old state    933
 New state    943 was old state    944
 New state    944 was old state    943
 New state    947 was old state    948
 New state    948 was old state    947
 New state    952 was old state    953
 New state    953 was old state    954
 New state    954 was old state    955
 New state    955 was old state    952
 New state    957 was old state    958
 New state    958 was old state    957
 New state    960 was old state    961
 New state    961 was old state    962
 New state    962 was old state    963
 New state    963 was old state    960
 New state    980 was old state    982
 New state    982 was old state    980
 New state    984 was old state    985
 New state    985 was old state    984
 New state    986 was old state    987
 New state    987 was old state    986
 New state    989 was old state    990
 New state    990 was old state    989
 New state    991 was old state    992
 New state    992 was old state    993
 New state    993 was old state    994
 New state    994 was old state    991
 New state    995 was old state    996
 New state    996 was old state    995
 New state   1000 was old state   1001
 New state   1001 was old state   1000
 New state   1009 was old state   1010
 New state   1010 was old state   1009
 Excitation Energies [eV] at current iteration:
 Root      1 :     5.530266419031998
 Root      2 :     6.369381650636941
 Root      3 :     6.655334813909216
 Root      4 :     7.251639699689576
 Root      5 :     7.646006111616821
 Root      6 :     8.108175443704640
 Root      7 :     8.342448928889450
 Root      8 :     8.399955564937018
 Root      9 :     8.583481977395136
 Root     10 :     8.928172407917680
 Root     11 :     9.044931834366524
 Root     12 :     9.172975959050891
 Root     13 :     9.198189371548168
 Root     14 :     9.370691753309533
 Root     15 :     9.496675201689483
 Root     16 :     9.517486152256655
 Root     17 :     9.754301247752606
 Root     18 :     9.908891744104810
 Root     19 :     9.992249580307018
 Root     20 :    10.067822852937790
 Root     21 :    10.126714311710700
 Root     22 :    10.172101639040560
 Root     23 :    10.415547756975520
 Root     24 :    10.480663136910350
 Root     25 :    10.558578489548670
 Root     26 :    10.605379731577960
 Root     27 :    10.728167614991200
 Root     28 :    10.787433492877300
 Root     29 :    11.004643696033180
 Root     30 :    11.050622311154260
 Root     31 :    11.159855471785730
 Root     32 :    11.258699847809380
 Root     33 :    11.286949334906090
 Root     34 :    11.377191548534700
 Root     35 :    11.423148781062840
 Root     36 :    11.516825000194450
 Root     37 :    11.636409522572200
 Root     38 :    11.677209030931620
 Root     39 :    11.696864226045480
 Root     40 :    11.775747748897730
 Root     41 :    11.786773582798610
 Root     42 :    11.958526608024450
 Root     43 :    12.031303174928580
 Root     44 :    12.070040246690690
 Root     45 :    12.086456090808960
 Root     46 :    12.220912397888400
 Root     47 :    12.257795427909110
 Root     48 :    12.281649193608220
 Root     49 :    12.338441360015210
 Root     50 :    12.356317451006700
 Root     51 :    12.432435876687180
 Root     52 :    12.489776998700610
 Root     53 :    12.589822368188580
 Root     54 :    12.627335787956920
 Root     55 :    12.683950076903330
 Root     56 :    12.728185924330520
 Root     57 :    12.772900247675950
 Root     58 :    12.821722210983780
 Root     59 :    12.899751859503250
 Root     60 :    13.024374321455170
 Root     61 :    13.081081001940580
 Root     62 :    13.126684876725670
 Root     63 :    13.209914137514070
 Root     64 :    13.242969832144980
 Root     65 :    13.315085461093230
 Root     66 :    13.348917612443890
 Root     67 :    13.377191007975750
 Root     68 :    13.386807476593860
 Root     69 :    13.434901788640510
 Root     70 :    13.488149658554680
 Root     71 :    13.512263637613080
 Root     72 :    13.565250229148630
 Root     73 :    13.620948720597250
 Root     74 :    13.661428498278260
 Root     75 :    13.761539336691240
 Root     76 :    13.874984234869300
 Root     77 :    13.950565351842950
 Root     78 :    13.975002508866480
 Root     79 :    14.000895642574060
 Root     80 :    14.074224434057090
 Root     81 :    14.152194242811080
 Root     82 :    14.159072758385810
 Root     83 :    14.195532825043640
 Root     84 :    14.273533248279480
 Root     85 :    14.371495302474770
 Root     86 :    14.403434240978090
 Root     87 :    14.448049583054870
 Root     88 :    14.467409670608770
 Root     89 :    14.497143179011090
 Root     90 :    14.543308190918240
 Root     91 :    14.555279194296460
 Root     92 :    14.608363965196940
 Root     93 :    14.632380793903990
 Root     94 :    14.741341898398220
 Root     95 :    14.784769824700390
 Root     96 :    14.833011528961410
 Root     97 :    14.886406708945830
 Root     98 :    14.926558832001140
 Root     99 :    14.954552428945770
 Root    100 :    15.066367962443250
 Root    101 :    15.086453459428060
 Root    102 :    15.137577488723290
 Root    103 :    15.179992574697140
 Root    104 :    15.212147784261460
 Root    105 :    15.235754240061950
 Root    106 :    15.268038346640180
 Root    107 :    15.313358064359960
 Root    108 :    15.337790221987490
 Root    109 :    15.435830962660000
 Root    110 :    15.475150739420290
 Root    111 :    15.562802428498160
 Root    112 :    15.582444835147100
 Root    113 :    15.611043923658910
 Root    114 :    15.712121598443230
 Root    115 :    15.751190683409220
 Root    116 :    15.802906212043750
 Root    117 :    15.834941659101020
 Root    118 :    15.864909719017710
 Root    119 :    15.943879369245230
 Root    120 :    15.961974630570260
 Root    121 :    16.068894400978410
 Root    122 :    16.119775661898790
 Root    123 :    16.145080349085910
 Root    124 :    16.189616486134840
 Root    125 :    16.227917054691390
 Root    126 :    16.267542237463640
 Root    127 :    16.318627226721970
 Root    128 :    16.365038766121490
 Root    129 :    16.429042426445090
 Root    130 :    16.466398816519940
 Root    131 :    16.490255355014390
 Root    132 :    16.645890773144280
 Root    133 :    16.666198663595710
 Root    134 :    16.697196533935870
 Root    135 :    16.748315278315670
 Root    136 :    16.790879089690570
 Root    137 :    16.809152449302780
 Root    138 :    16.851808953464070
 Root    139 :    16.858777494961050
 Root    140 :    16.904343041982450
 Root    141 :    16.978608539374510
 Root    142 :    17.034971777777420
 Root    143 :    17.072828063425530
 Root    144 :    17.131421543346080
 Root    145 :    17.189142743132920
 Root    146 :    17.221484783154170
 Root    147 :    17.293320116337870
 Root    148 :    17.324872450498420
 Root    149 :    17.334540068162910
 Root    150 :    17.368468658423800
 Root    151 :    17.392714858767170
 Root    152 :    17.414014647492130
 Root    153 :    17.446333152187670
 Root    154 :    17.535376220339550
 Root    155 :    17.568745399124700
 Root    156 :    17.595248880014780
 Root    157 :    17.622979084449560
 Root    158 :    17.684014664135220
 Root    159 :    17.713086568979610
 Root    160 :    17.743102168322580
 Root    161 :    17.773550258819050
 Root    162 :    17.820087504972530
 Root    163 :    17.866177452230740
 Root    164 :    17.892960047518520
 Root    165 :    17.922253705987820
 Root    166 :    17.942888465707380
 Root    167 :    17.983215449150230
 Root    168 :    18.011615354017610
 Root    169 :    18.059443792592590
 Root    170 :    18.086191317541630
 Root    171 :    18.137978829720200
 Root    172 :    18.239023177387870
 Root    173 :    18.297322865631000
 Root    174 :    18.316221303873450
 Root    175 :    18.344555443651490
 Root    176 :    18.350920022377430
 Root    177 :    18.372897609428380
 Root    178 :    18.378217479161070
 Root    179 :    18.430232790166860
 Root    180 :    18.442923948166920
 Root    181 :    18.449112109812450
 Root    182 :    18.498388082122940
 Root    183 :    18.511680461212980
 Root    184 :    18.551575513915390
 Root    185 :    18.580509887853970
 Root    186 :    18.638517094775690
 Root    187 :    18.665022174858040
 Root    188 :    18.690231957473110
 Root    189 :    18.714892106446330
 Root    190 :    18.779993956386110
 Root    191 :    18.843397143466350
 Root    192 :    18.940260047231810
 Root    193 :    19.008106037500340
 Root    194 :    19.026844217658410
 Root    195 :    19.062361521722250
 Root    196 :    19.087224535452700
 Root    197 :    19.117437231703540
 Root    198 :    19.148119314540210
 Root    199 :    19.153563059316930
 Root    200 :    19.176050230167330
 Root    201 :    19.208557655235100
 Root    202 :    19.294534750438120
 Root    203 :    19.331374344256400
 Root    204 :    19.368061430244280
 Root    205 :    19.429126865652560
 Root    206 :    19.467073639223720
 Root    207 :    19.476340476375290
 Root    208 :    19.487747768279710
 Root    209 :    19.537573076660260
 Root    210 :    19.588722902329730
 Root    211 :    19.597159728780320
 Root    212 :    19.637181717390260
 Root    213 :    19.654720130165210
 Root    214 :    19.690232171137540
 Root    215 :    19.714503413321230
 Root    216 :    19.766552077195280
 Root    217 :    19.795018191010880
 Root    218 :    19.852764672311080
 Root    219 :    19.910509556571370
 Root    220 :    19.929004800458710
 Root    221 :    19.972394139428690
 Root    222 :    20.010059116817780
 Root    223 :    20.042856329831340
 Root    224 :    20.083757664216910
 Root    225 :    20.110181367640380
 Root    226 :    20.142972650831290
 Root    227 :    20.160670787917090
 Root    228 :    20.202952664241010
 Root    229 :    20.225117663735890
 Root    230 :    20.319387042608200
 Root    231 :    20.358071714723470
 Root    232 :    20.439089581823900
 Root    233 :    20.489342812804970
 Root    234 :    20.545893980014630
 Root    235 :    20.573352244959760
 Root    236 :    20.587897044304660
 Root    237 :    20.635076660441510
 Root    238 :    20.648407852488590
 Root    239 :    20.718747826372010
 Root    240 :    20.724519753925400
 Root    241 :    20.772157412452520
 Root    242 :    20.858185154214530
 Root    243 :    20.864510018285440
 Root    244 :    20.888910315242300
 Root    245 :    20.925031685909140
 Root    246 :    20.958821641096350
 Root    247 :    20.974729327760170
 Root    248 :    21.001183632466660
 Root    249 :    21.036394592459360
 Root    250 :    21.055816141078260
 Root    251 :    21.095191831829680
 Root    252 :    21.120666444178970
 Root    253 :    21.159010607730770
 Root    254 :    21.198774139671390
 Root    255 :    21.230025462583260
 Root    256 :    21.268112751490020
 Root    257 :    21.331674901745920
 Root    258 :    21.362158851477060
 Root    259 :    21.429837356322840
 Root    260 :    21.483381143879670
 Root    261 :    21.508620330759040
 Root    262 :    21.541972212136000
 Root    263 :    21.599148292126960
 Root    264 :    21.608007072291620
 Root    265 :    21.630891630130560
 Root    266 :    21.668788294620680
 Root    267 :    21.683256231671140
 Root    268 :    21.705821365451940
 Root    269 :    21.746669736536820
 Root    270 :    21.777418535032010
 Root    271 :    21.802887095009430
 Root    272 :    21.814628412775610
 Root    273 :    21.838721141309960
 Root    274 :    21.880513627752800
 Root    275 :    21.925873267788970
 Root    276 :    21.986834241498970
 Root    277 :    21.996705930242200
 Root    278 :    22.096162450978310
 Root    279 :    22.111188878384900
 Root    280 :    22.183287018106110
 Root    281 :    22.191310436606270
 Root    282 :    22.229159342535930
 Root    283 :    22.283556472387050
 Root    284 :    22.318661518167530
 Root    285 :    22.380247679621490
 Root    286 :    22.421514742791260
 Root    287 :    22.449449227001280
 Root    288 :    22.482790734924620
 Root    289 :    22.503201233924440
 Root    290 :    22.527705284075680
 Root    291 :    22.534968828879030
 Root    292 :    22.553593095051580
 Root    293 :    22.602632447507610
 Root    294 :    22.627132150040760
 Root    295 :    22.656934914314040
 Root    296 :    22.703728615519260
 Root    297 :    22.720059071857970
 Root    298 :    22.746703357505920
 Root    299 :    22.811910177674310
 Root    300 :    22.850798676359130
 Root    301 :    22.881409788567830
 Root    302 :    22.926879298293700
 Root    303 :    22.948085380970760
 Root    304 :    22.983940871033120
 Root    305 :    23.027419660554730
 Root    306 :    23.056111067153630
 Root    307 :    23.125748257150480
 Root    308 :    23.168880609225550
 Root    309 :    23.251362294070810
 Root    310 :    23.292742929264210
 Root    311 :    23.313562691158310
 Root    312 :    23.347337364598670
 Root    313 :    23.371936027354920
 Root    314 :    23.430822337708050
 Root    315 :    23.476353963740260
 Root    316 :    23.558425561018930
 Root    317 :    23.593979054403950
 Root    318 :    23.613840435195670
 Root    319 :    23.624563835354730
 Root    320 :    23.678076989675870
 Root    321 :    23.745308056626270
 Root    322 :    23.769786165247600
 Root    323 :    23.823384539146830
 Root    324 :    23.865166229978820
 Root    325 :    23.890594276587190
 Root    326 :    23.925239341236460
 Root    327 :    23.981932853247460
 Root    328 :    24.029984466588150
 Root    329 :    24.064375580196630
 Root    330 :    24.104365055208670
 Root    331 :    24.132452643118790
 Root    332 :    24.181329964074840
 Root    333 :    24.195418575070570
 Root    334 :    24.290525016498020
 Root    335 :    24.303106164134500
 Root    336 :    24.326740017985010
 Root    337 :    24.379965256150350
 Root    338 :    24.391799580588170
 Root    339 :    24.475249394065800
 Root    340 :    24.499550579641800
 Root    341 :    24.529049445343270
 Root    342 :    24.600240722266780
 Root    343 :    24.646213972688180
 Root    344 :    24.680610991933250
 Root    345 :    24.713456615011180
 Root    346 :    24.738190276732280
 Root    347 :    24.800705675337660
 Root    348 :    24.831526653986190
 Root    349 :    24.838267900736920
 Root    350 :    24.886821054863020
 Root    351 :    24.927769175832510
 Root    352 :    24.980307841436810
 Root    353 :    25.017643777848520
 Root    354 :    25.034486466434070
 Root    355 :    25.132445031383490
 Root    356 :    25.148312710125210
 Root    357 :    25.196863055556630
 Root    358 :    25.314990038357370
 Root    359 :    25.334169625305260
 Root    360 :    25.381104321360750
 Root    361 :    25.424830369348480
 Root    362 :    25.499850211010600
 Root    363 :    25.562877348299550
 Root    364 :    25.608131032364970
 Root    365 :    25.676347455076090
 Root    366 :    25.705217709118860
 Root    367 :    25.731847137120610
 Root    368 :    25.778728753027630
 Root    369 :    25.804144276067280
 Root    370 :    25.840133262274160
 Root    371 :    25.853956573620120
 Root    372 :    25.922163310514080
 Root    373 :    25.959471657269830
 Root    374 :    26.087878502150470
 Root    375 :    26.107189581755040
 Root    376 :    26.198643025942910
 Root    377 :    26.237482613970780
 Root    378 :    26.318511594216940
 Root    379 :    26.360371213756370
 Root    380 :    26.413105157892520
 Root    381 :    26.430232099050650
 Root    382 :    26.495522021147990
 Root    383 :    26.591461003506390
 Root    384 :    26.621531883847790
 Root    385 :    26.653263581616370
 Root    386 :    26.745962728775930
 Root    387 :    26.787011670033410
 Root    388 :    26.811741614522560
 Root    389 :    26.843001948827910
 Root    390 :    26.898319333355930
 Root    391 :    26.920618009141770
 Root    392 :    27.026794255564010
 Root    393 :    27.071255983461730
 Root    394 :    27.093287975267450
 Root    395 :    27.216676342081100
 Root    396 :    27.305866329352580
 Root    397 :    27.352719869777490
 Root    398 :    27.385237562060500
 Root    399 :    27.448786096362150
 Root    400 :    27.451036914641160
 Root    401 :    27.499092082756020
 Root    402 :    27.570083985085090
 Root    403 :    27.609963939759520
 Root    404 :    27.704034152540980
 Root    405 :    27.805010648677530
 Root    406 :    27.931883121154590
 Root    407 :    27.950950106394090
 Root    408 :    27.993981241865800
 Root    409 :    28.113158133411750
 Root    410 :    28.135630469629430
 Root    411 :    28.206360299531510
 Root    412 :    28.231740554429200
 Root    413 :    28.251992892353140
 Root    414 :    28.286199965573160
 Root    415 :    28.394391295512620
 Root    416 :    28.491232354368450
 Root    417 :    28.558858426934150
 Root    418 :    28.601656745337330
 Root    419 :    28.635917114154400
 Root    420 :    28.718151025211590
 Root    421 :    28.810209598453850
 Root    422 :    28.882517008860980
 Root    423 :    28.918037468079660
 Root    424 :    29.061805786540590
 Root    425 :    29.101818396162780
 Root    426 :    29.253967487722320
 Root    427 :    29.457367307087880
 Root    428 :    29.549517510162710
 Root    429 :    29.596793783295520
 Root    430 :    29.649030945389720
 Root    431 :    29.755865051353420
 Root    432 :    29.773519553033510
 Root    433 :    29.948052323668650
 Root    434 :    29.971450167362220
 Root    435 :    30.014675524237280
 Root    436 :    30.051809916838880
 Root    437 :    30.210771520886810
 Root    438 :    30.224454438352010
 Root    439 :    30.378347551705300
 Root    440 :    30.397171244983240
 Root    441 :    30.444494435669010
 Root    442 :    30.489681999414920
 Root    443 :    30.633410542074920
 Root    444 :    30.679467779348650
 Root    445 :    30.764096599068020
 Root    446 :    30.772073971394940
 Root    447 :    30.782633770823420
 Root    448 :    30.820355431002910
 Root    449 :    30.944710482871380
 Root    450 :    30.958882928639990
 Root    451 :    31.071843343825520
 Root    452 :    31.118031589012360
 Root    453 :    31.151134435408600
 Root    454 :    31.288649767809660
 Root    455 :    31.354276046176270
 Root    456 :    31.420992554480980
 Root    457 :    31.485542091569110
 Root    458 :    31.523814757482350
 Root    459 :    31.605831624546930
 Root    460 :    31.636189000892370
 Root    461 :    31.671381697893170
 Root    462 :    31.707608860812440
 Root    463 :    31.791097437747460
 Root    464 :    31.882249135095420
 Root    465 :    31.987367631443210
 Root    466 :    31.992867082274880
 Root    467 :    32.083972871097370
 Root    468 :    32.115362720236600
 Root    469 :    32.170798310249390
 Root    470 :    32.268079793888520
 Root    471 :    32.280650957194310
 Root    472 :    32.355327331507340
 Root    473 :    32.499079393323990
 Root    474 :    32.585343736742110
 Root    475 :    32.738675225010200
 Root    476 :    32.912273930934070
 Root    477 :    32.995313479091280
 Root    478 :    33.066575956770170
 Root    479 :    33.205266945990700
 Root    480 :    33.319468592596780
 Root    481 :    33.396492185871670
 Root    482 :    33.461173735893950
 Root    483 :    33.596981539455350
 Root    484 :    33.633945385164420
 Root    485 :    33.701280235740930
 Root    486 :    33.741838377174630
 Root    487 :    33.763014631514430
 Root    488 :    33.789491509937640
 Root    489 :    33.805363736608620
 Root    490 :    33.822845374311260
 Root    491 :    33.855414920182770
 Root    492 :    33.966888602616540
 Root    493 :    34.045648959669980
 Root    494 :    34.111454323620030
 Root    495 :    34.170972926213450
 Root    496 :    34.228601950289490
 Root    497 :    34.239174103995910
 Root    498 :    34.309221227774080
 Root    499 :    34.360339619345480
 Root    500 :    34.524973561902610
 Root    501 :    34.571413782181810
 Root    502 :    34.732979333481640
 Root    503 :    34.785084757312940
 Root    504 :    34.842962224529800
 Root    505 :    34.881997199165700
 Root    506 :    34.927637678840050
 Root    507 :    34.991235914664320
 Root    508 :    35.095102703846030
 Root    509 :    35.126179761980590
 Root    510 :    35.272418687807610
 Root    511 :    35.310257584245090
 Root    512 :    35.355526585346110
 Root    513 :    35.388635025118300
 Root    514 :    35.410851359158970
 Root    515 :    35.442659586621290
 Root    516 :    35.544563399458840
 Root    517 :    35.571788859840180
 Root    518 :    35.698316239044670
 Root    519 :    35.763155860318350
 Root    520 :    35.783451873060790
 Root    521 :    35.887324478873100
 Root    522 :    35.919987707027960
 Root    523 :    35.982236610587800
 Root    524 :    36.049151770853020
 Root    525 :    36.155429447991480
 Root    526 :    36.263526583573740
 Root    527 :    36.499378648607830
 Root    528 :    36.590848302620430
 Root    529 :    36.653522445536660
 Root    530 :    36.809196911603310
 Root    531 :    36.943276273342900
 Root    532 :    36.968939829085800
 Root    533 :    36.989371395040140
 Root    534 :    37.032532064201580
 Root    535 :    37.099189225219110
 Root    536 :    37.130668173921490
 Root    537 :    37.202044146100370
 Root    538 :    37.242150364521360
 Root    539 :    37.309050672038050
 Root    540 :    37.350426083839610
 Root    541 :    37.381768159165550
 Root    542 :    37.545891628261930
 Root    543 :    37.814969206832240
 Root    544 :    37.840024854426340
 Root    545 :    37.877737847219150
 Root    546 :    37.971431274227170
 Root    547 :    38.085007657831930
 Root    548 :    38.138409534093470
 Root    549 :    38.183045735053850
 Root    550 :    38.344114595155140
 Root    551 :    38.474288315993750
 Root    552 :    38.531715586751350
 Root    553 :    38.573154403968690
 Root    554 :    38.786123600948000
 Root    555 :    38.876446965662740
 Root    556 :    38.928075807839730
 Root    557 :    39.024770479731680
 Root    558 :    39.050618472866590
 Root    559 :    39.146838049925850
 Root    560 :    39.308787191864730
 Root    561 :    39.483200554283260
 Root    562 :    39.749060285956620
 Root    563 :    39.779262535615040
 Root    564 :    39.937906534231630
 Root    565 :    40.016268385517780
 Root    566 :    40.115512553173960
 Root    567 :    40.230547649128840
 Root    568 :    40.333315875224770
 Root    569 :    40.445166152195950
 Root    570 :    40.466851644228070
 Root    571 :    40.650814673067930
 Root    572 :    40.664922097356630
 Root    573 :    40.699300271183890
 Root    574 :    40.798528392381480
 Root    575 :    40.935995492805300
 Root    576 :    40.983219948547510
 Root    577 :    41.036572538773690
 Root    578 :    41.156488858465590
 Root    579 :    41.230323474783400
 Root    580 :    41.391513580666550
 Root    581 :    41.484802345079570
 Root    582 :    41.551323963991670
 Root    583 :    41.681698153577350
 Root    584 :    41.766600820450090
 Root    585 :    41.942804807803870
 Root    586 :    42.199214766794510
 Root    587 :    42.220143931977570
 Root    588 :    42.480798499166440
 Root    589 :    42.681180449912690
 Root    590 :    42.772472291040420
 Root    591 :    42.871743708673720
 Root    592 :    42.934158426180740
 Root    593 :    42.974816858714850
 Root    594 :    43.105871896032490
 Root    595 :    43.187095532635630
 Root    596 :    43.333730263717230
 Root    597 :    43.456998148384860
 Root    598 :    43.546631939112050
 Root    599 :    43.685112296524250
 Root    600 :    43.890911340098920
 Root    601 :    43.944788441593970
 Root    602 :    44.182171256671950
 Root    603 :    44.209067202683440
 Root    604 :    44.313675009538040
 Root    605 :    44.343045954115200
 Root    606 :    44.578942713718000
 Root    607 :    44.717013322801460
 Root    608 :    44.739299062461420
 Root    609 :    44.852652917159030
 Root    610 :    44.883950602925680
 Root    611 :    45.185626689505330
 Root    612 :    45.273717744530320
 Root    613 :    45.344385863324450
 Root    614 :    45.387060637135970
 Root    615 :    45.779378468158740
 Root    616 :    46.124198377595900
 Root    617 :    46.198463780867660
 Root    618 :    46.231406199843020
 Root    619 :    46.270938106388580
 Root    620 :    46.327408478746590
 Root    621 :    46.472510696015670
 Root    622 :    46.530622745965510
 Root    623 :    46.559462528939130
 Root    624 :    46.829651407911360
 Root    625 :    46.841355034984690
 Root    626 :    46.949359823119090
 Root    627 :    47.137155378648960
 Root    628 :    47.284518738108040
 Root    629 :    47.436766917221990
 Root    630 :    47.594280076304590
 Root    631 :    47.634005944433920
 Root    632 :    47.916378299989470
 Root    633 :    47.937176278345350
 Root    634 :    48.025282828119900
 Root    635 :    48.065585124623350
 Root    636 :    48.108524089510220
 Root    637 :    48.489893731466840
 Root    638 :    48.540845110686810
 Root    639 :    48.583679029470960
 Root    640 :    48.722182897751640
 Root    641 :    48.844901092165170
 Root    642 :    49.004879436527530
 Root    643 :    49.277859308052380
 Root    644 :    49.397350072288180
 Root    645 :    49.547569108902980
 Root    646 :    49.593638046671930
 Root    647 :    49.643327321599180
 Root    648 :    49.781773965529450
 Root    649 :    49.901726510324080
 Root    650 :    50.136522931152580
 Root    651 :    50.183606719396250
[...]
     15  -0.128238D+00  0.425211D+00 -0.353883D+00  0.425577D+00 -0.213997D+00
     16   0.862349D-02 -0.186266D+00  0.139658D+00 -0.197056D+00 -0.267348D-01
               961           962           963           964           965 
      1  -0.130560D+03 -0.130556D+03 -0.130552D+03 -0.130546D+03 -0.130535D+03
      2   0.361186D-01 -0.400381D-01  0.422410D-01 -0.415657D-02  0.375372D-01
      3   0.326262D-01 -0.589307D-01 -0.299899D-01 -0.935679D-02 -0.464408D-02
      4   0.908615D-02 -0.426173D-01 -0.187679D-01  0.128112D-01 -0.645856D-02
      5  -0.104348D+00  0.123273D+00 -0.124956D+00  0.215120D-01 -0.107903D+00
      6  -0.928170D-01  0.172176D+00  0.780186D-01  0.265668D-01  0.440582D-02
      7  -0.426315D-01  0.117305D+00  0.571985D-01 -0.392467D-01  0.228832D-01
      8  -0.107562D-01  0.137262D+00 -0.115561D+00 -0.106517D-02  0.512899D-01
      9   0.634119D+00 -0.347234D-01 -0.133839D+00  0.402404D+00 -0.330342D+00
     10   0.215845D+00  0.325379D+00  0.105713D+00 -0.174401D+00 -0.115403D+00
     11   0.746000D-01  0.448316D+00  0.861016D+00  0.445322D+00  0.563517D+00
     12   0.122857D+00 -0.123815D-01 -0.214056D+00  0.121237D+00  0.170771D+00
     13   0.959012D-01 -0.115838D-01 -0.102091D+00  0.685659D-01  0.263239D-01
     14   0.967486D-01  0.505287D+00  0.127501D+00 -0.238653D+00  0.863366D-01
     15  -0.797743D+00  0.749871D-01  0.864373D-01 -0.520592D+00  0.220299D+00
     16   0.171378D-01 -0.951536D-02 -0.134653D+00  0.563383D-01 -0.118292D-02
               966           967           968           969           970 
      1  -0.130534D+03 -0.130529D+03 -0.130524D+03 -0.130521D+03 -0.130508D+03
      2   0.910690D-02  0.544140D-01 -0.787895D-01 -0.475172D-02 -0.481093D-01
      3   0.789869D-02  0.541394D-01  0.463654D-01 -0.442358D-01  0.182379D-01
      4   0.662764D-01  0.402279D-01 -0.331915D-02  0.275860D-01 -0.156454D-01
      5  -0.362212D-01 -0.161932D+00  0.240891D+00  0.149006D-02  0.130278D+00
      6  -0.247126D-01 -0.163157D+00 -0.130984D+00  0.139719D+00 -0.656398D-01
      7  -0.195614D+00 -0.116426D+00  0.825776D-02 -0.718743D-01  0.567126D-01
      8   0.702324D-01  0.129835D+00 -0.908089D-01 -0.283861D-01 -0.157262D-01
      9   0.289080D+00  0.137583D-01 -0.869918D-01  0.931036D-01 -0.209691D+00
     10  -0.192586D+00  0.386231D+00 -0.741184D-01  0.235581D-01  0.113040D+00
     11  -0.260821D-01  0.380717D+00  0.109973D+01 -0.600681D+00  0.462506D+00
     12   0.823900D-01  0.322963D+00 -0.526931D-01 -0.102748D+00  0.177176D-01
     13   0.190852D+00  0.770770D-01  0.497426D-01 -0.582336D-01 -0.497382D-01
     14  -0.266407D+00  0.443481D-01  0.165088D-01  0.183684D+00 -0.624515D-01
     15  -0.365508D+00 -0.603995D-01 -0.116963D+00  0.460145D-01  0.253879D+00
     16   0.199192D+00  0.185165D+00 -0.499929D-01 -0.694735D-01 -0.534834D-01
               971           972           973           974           975 
      1  -0.130504D+03 -0.130502D+03 -0.130491D+03 -0.130476D+03 -0.130475D+03
      2  -0.621119D-01  0.512314D-02  0.141756D-01  0.326656D-01 -0.224986D-01
      3  -0.632756D-01 -0.129948D-03  0.177783D-01 -0.678490D-01  0.701256D-02
      4   0.745932D-02  0.311826D-01 -0.219625D-01 -0.194949D-01 -0.266267D-01
      5   0.178715D+00 -0.935849D-02 -0.407903D-01 -0.882342D-01  0.715626D-01
      6   0.166415D+00  0.105549D-01 -0.457861D-01  0.199718D+00 -0.226329D-01
      7  -0.103587D-01 -0.944627D-01  0.636944D-01  0.506055D-01  0.719475D-01
      8  -0.106829D+00  0.122874D-01  0.131424D-02  0.167691D+00 -0.491316D-02
      9  -0.173372D+00  0.213651D+00  0.458538D+00 -0.236059D+00 -0.113220D+00
     10  -0.479319D+00 -0.125962D+00  0.141433D+00  0.269289D+00  0.404606D-01
     11  -0.416525D+00 -0.345115D+00 -0.768585D-01  0.299960D+00  0.348982D-01
     12   0.278368D+00 -0.107531D+00  0.255779D+00 -0.179587D+00 -0.305311D-01
     13  -0.105852D+00  0.171853D+00  0.566277D-01 -0.261815D-01 -0.551654D-02
     14  -0.339236D+00 -0.120684D+00  0.597402D-01  0.118766D+00  0.283231D-01
     15   0.188362D+00 -0.153852D+00 -0.392718D+00  0.346004D+00  0.692215D-01
     16  -0.346725D-01  0.419042D-01  0.125675D+00  0.333214D-01 -0.222646D-01
               976           977           978           979           980 
      1  -0.130471D+03 -0.130468D+03 -0.130457D+03 -0.130446D+03 -0.130439D+03
      2   0.138307D-01 -0.413328D-02  0.123815D+00  0.157244D-01  0.896929D-02
      3   0.224467D-01  0.425905D-01 -0.527863D-01  0.713833D-02 -0.822101D-01
      4  -0.255152D-01  0.478450D-01  0.355588D-02  0.433888D-02  0.604013D-01
      5  -0.470188D-01  0.675436D-02 -0.360320D+00 -0.489778D-01 -0.439721D-01
      6  -0.674478D-01 -0.108092D+00  0.152229D+00 -0.295113D-01  0.241034D+00
      7   0.740297D-01 -0.135161D+00 -0.160421D-01 -0.844350D-03 -0.158285D+00
      8   0.100055D-01  0.651216D-02  0.282982D-01 -0.400838D-01 -0.104510D+00
      9   0.167972D-01 -0.402013D+00  0.751860D-01  0.101635D+00 -0.269073D+00
     10  -0.158124D+00  0.193839D+00 -0.499982D+00  0.190258D+00 -0.108564D-01
     11  -0.228123D+00 -0.300102D+00  0.742080D+00 -0.188912D+00  0.112404D+00
     12  -0.893701D-01  0.238633D+00  0.868710D-01  0.854315D-01  0.128399D-01
     13   0.523519D-01 -0.880055D-01  0.782603D-01 -0.646366D-01 -0.439556D-01
     14  -0.132065D+00  0.254071D+00 -0.181941D+00  0.216537D+00 -0.556692D-01
     15   0.738193D-01  0.466977D+00 -0.191938D-02 -0.760023D-01  0.217600D+00
     16   0.581787D-01  0.373584D-01  0.278166D-01 -0.699429D-01 -0.192675D+00
               981           982           983           984           985 
      1  -0.130436D+03 -0.130433D+03 -0.130422D+03 -0.130420D+03 -0.130418D+03
      2   0.739961D-01  0.248564D-02 -0.348024D-02  0.248479D-01  0.174682D-01
      3   0.175656D-03  0.844528D-01  0.523314D-01 -0.147416D-01  0.880719D-02
      4   0.235849D-01 -0.272324D-01  0.895429D-01 -0.315333D-01  0.676214D-01
      5  -0.208723D+00 -0.777150D-02  0.155049D-01 -0.736557D-01 -0.452164D-01
      6   0.873799D-02 -0.248060D+00 -0.153588D+00  0.479528D-01 -0.226953D-01
      7  -0.542306D-01  0.843081D-01 -0.260068D+00  0.950970D-01 -0.199772D+00
      8  -0.936238D-01  0.579672D-01 -0.308476D-01  0.800170D-01 -0.598953D-02
      9  -0.122075D+00  0.597706D-01 -0.254415D+00  0.377738D+00  0.955189D-02
     10   0.210927D+00  0.262709D+00  0.183335D+00 -0.481151D-01  0.225182D+00
     11   0.570523D+00 -0.240998D-01  0.174007D+00  0.116334D+00  0.323690D-01
     12  -0.206374D+00 -0.214790D+00 -0.882866D-01 -0.226800D-01  0.678874D-01
     13  -0.127665D+00  0.415478D-01  0.587455D-01  0.683520D-01 -0.332646D-01
     14   0.204687D+00  0.200161D+00  0.237248D+00 -0.611419D-01 -0.102513D-01
     15   0.116732D+00 -0.389719D-01  0.199557D+00 -0.379046D+00 -0.725828D-01
     16  -0.156861D+00 -0.598128D-02 -0.329667D-01  0.657638D-01 -0.141160D-01
               986           987           988           989           990 
      1  -0.130417D+03 -0.130414D+03 -0.130409D+03 -0.130372D+03 -0.130365D+03
      2  -0.612078D-03  0.208581D-01 -0.312040D-02 -0.490659D-01 -0.832094D-01
      3   0.419167D-02  0.232938D-01 -0.162242D-01  0.272792D-01  0.449694D-01
      4   0.318615D-01  0.100309D-01  0.619166D-01 -0.356392D-02  0.406009D-02
      5   0.116622D-01 -0.759812D-01  0.619318D-02  0.139542D+00  0.248501D+00
      6  -0.265821D-01 -0.609195D-01  0.484405D-01 -0.774072D-01 -0.145444D+00
      7  -0.926645D-01 -0.243845D-01 -0.178017D+00  0.765966D-02 -0.178516D-01
      8  -0.226066D-01 -0.211459D-01  0.116589D+00 -0.679867D-01  0.136895D+00
      9   0.276752D+00  0.383117D+00  0.226280D-01  0.147659D+00 -0.857683D-01
     10  -0.360307D+00  0.117235D+00 -0.587539D-01  0.322554D-02 -0.472205D+00
     11  -0.129970D+00  0.107420D+00 -0.418555D+00 -0.106587D+00  0.966777D+00
     12   0.270211D-01  0.511113D-01  0.159218D+00  0.447126D-01  0.116078D+00
     13   0.149610D+00 -0.203958D-01  0.111043D+00 -0.498551D-02  0.628185D-01
     14  -0.328252D+00  0.421349D+00 -0.174453D-01 -0.273789D+00 -0.770279D+00
     15  -0.289741D+00 -0.297783D+00 -0.741485D-02 -0.146894D+00  0.682516D-01
     16   0.629255D-01  0.749158D-01  0.197881D+00 -0.108229D+00  0.250069D+00
               991           992           993           994           995 
      1  -0.130361D+03 -0.130354D+03 -0.130351D+03 -0.130347D+03 -0.130324D+03
      2   0.336843D-01  0.259321D-01 -0.235583D-01  0.313972D-01  0.320434D-01
      3  -0.972584D-02 -0.474836D-01  0.189989D-01 -0.237621D-01 -0.152361D-01
      4   0.317685D-01 -0.332653D-02 -0.224709D-01  0.752191D-02 -0.108786D-01
      5  -0.977611D-01 -0.888747D-01  0.744111D-01 -0.110881D+00 -0.983846D-01
      6   0.281757D-01  0.151377D+00 -0.578153D-01  0.878358D-01  0.430464D-01
      7  -0.899520D-01  0.605480D-02  0.675446D-01 -0.165585D-01  0.240081D-01
      8   0.834012D-01  0.482079D-01 -0.476999D-01 -0.407215D-01  0.108755D+00
      9   0.143257D-01  0.161709D+00 -0.198482D-01 -0.143843D+00  0.129324D+00
     10  -0.169652D+00  0.176875D+00 -0.271012D-01  0.144301D+00 -0.209328D-01
     11  -0.624331D+00 -0.845937D+00 -0.226862D+00 -0.104665D+01  0.950259D-01
     12  -0.340056D+00 -0.234471D+00 -0.369741D-01 -0.140361D-01  0.318586D+00
     13   0.546940D-01 -0.548396D-01  0.132753D+00 -0.923087D-01  0.132864D-01
     14  -0.176423D+00  0.135853D+00 -0.371628D+00  0.433851D+00  0.246622D+00
     15   0.100543D-02 -0.164672D+00 -0.177160D-02  0.162899D+00 -0.365643D-01
     16   0.676585D-01 -0.558785D-01 -0.553059D-02 -0.679368D-01  0.203573D+00
               996           997           998           999          1000 
      1  -0.130322D+03 -0.130302D+03 -0.130297D+03 -0.130292D+03 -0.130273D+03
      2   0.172994D-01 -0.116710D-01  0.514198D-02 -0.158667D-01 -0.353744D-01
      3  -0.302904D-01  0.210281D-01 -0.384422D-01 -0.245834D-01 -0.544781D-02
      4   0.520284D-02 -0.809096D-02  0.253321D-01  0.969901D-02  0.355442D-01
      5  -0.640995D-01  0.418336D-01 -0.277623D-01  0.383066D-01  0.110233D+00
      6   0.100217D+00 -0.544833D-01  0.109678D+00  0.697751D-01  0.123762D-01
      7  -0.880289D-02  0.112174D-01 -0.659152D-01 -0.312519D-01 -0.118513D+00
      8   0.136020D+00  0.173197D+00 -0.751123D-02  0.319271D-01 -0.648718D-01
      9  -0.229062D-01  0.504605D-01 -0.212746D+00 -0.702800D-01  0.128783D+00
     10   0.305995D+00 -0.428712D-01 -0.206822D+00  0.610653D-01  0.279520D-01
     11  -0.618686D+00  0.526517D-01 -0.336329D+00  0.508974D-02  0.463706D+00
     12   0.110304D+00 -0.232830D+00 -0.306625D+00 -0.771310D-01  0.164001D+00
     13   0.124255D+00  0.609754D-01  0.131388D+00  0.152010D-01  0.529695D-01
     14   0.235435D+00 -0.580422D-01 -0.362191D-01  0.116122D+00 -0.115868D+00
     15   0.143694D-01 -0.157667D+00  0.236491D+00  0.687848D-01 -0.960699D-01
     16   0.136694D+00  0.197293D+00 -0.620366D-01  0.416531D-02  0.452490D-03
              1001          1002          1003          1004          1005 
      1  -0.130266D+03 -0.130258D+03 -0.130254D+03 -0.130241D+03 -0.130235D+03
      2  -0.277716D-01 -0.186488D-01  0.110493D-01 -0.486190D-01  0.675900D-02
      3  -0.832966D-02  0.144484D-01  0.319869D-01  0.963226D-01  0.310908D-01
      4   0.149199D-01 -0.731976D-02 -0.147696D-01  0.222557D-01  0.313832D-01
      5   0.107908D+00  0.555944D-01 -0.393145D-01  0.166237D+00  0.267273D-02
      6   0.205311D-01 -0.418678D-01 -0.931480D-01 -0.314984D+00 -0.841430D-01
      7  -0.409569D-01  0.151638D-01  0.382859D-01 -0.693865D-01 -0.898129D-01
      8  -0.576770D-01  0.303048D-01 -0.338161D-01 -0.240758D-03  0.117356D+00
      9  -0.566285D-01 -0.362265D-01 -0.204143D+00  0.169994D+00 -0.357874D+00
     10   0.127418D+00  0.224043D+00 -0.904767D-01 -0.457759D+00 -0.138236D-01
     11   0.419357D+00  0.870087D-01  0.197807D+00  0.508602D+00  0.401144D+00
     12   0.605753D-01  0.984550D-01 -0.158004D+00  0.185787D+00  0.203716D-01
     13   0.143041D-01 -0.680282D-01 -0.101068D-01  0.274911D-01 -0.309013D-02
     14  -0.857608D-02 -0.617880D-02 -0.168796D+00 -0.490852D+00  0.451365D-01
     15   0.354485D-01 -0.178508D-02  0.255665D+00 -0.201252D+00  0.422047D+00
     16   0.165739D-01  0.219985D-01  0.163257D-01  0.132768D+00 -0.692771D-02
              1006          1007          1008          1009          1010 
      1  -0.130211D+03 -0.130207D+03 -0.130186D+03 -0.130152D+03 -0.130150D+03
      2  -0.188769D-01 -0.340339D-02 -0.747825D-01  0.502843D-02 -0.178072D-01
      3   0.767174D-02 -0.131861D-01  0.394927D-01  0.842154D-01  0.139320D-01
      4   0.178494D-03  0.257194D-01  0.598973D-01 -0.711873D-02  0.660405D-01
      5   0.574219D-01 -0.672565D-02  0.249026D+00 -0.113874D-01  0.385314D-01
      6  -0.300440D-01  0.309880D-01 -0.132461D+00 -0.274622D+00 -0.357552D-01
      7   0.327593D-02 -0.849495D-01 -0.184272D+00  0.249760D-01 -0.204862D+00
      8  -0.882378D-01  0.176540D+00 -0.226754D-01  0.231247D-01  0.874727D-01
      9  -0.605313D-02 -0.183139D+00  0.259741D+00  0.403197D-02  0.333448D+00
     10   0.270338D-01  0.323624D-01 -0.233785D+00 -0.563781D+00 -0.296584D-01
     11   0.627692D-01 -0.387737D+00  0.953796D+00 -0.107926D+00 -0.916946D-01
     12   0.519742D-01  0.163027D+00  0.266424D-01  0.296997D-01  0.152405D+00
     13  -0.571829D-01 -0.469305D-01  0.119124D+00  0.301266D-01 -0.681234D-01
     14  -0.151892D+00 -0.152233D+00 -0.378307D+00 -0.323386D+00  0.529048D-01
     15   0.717562D-01  0.197983D+00 -0.334476D+00 -0.119208D+00 -0.341415D+00
     16   0.302763D-01  0.529127D-01  0.210793D-01  0.843259D-01  0.127876D-01
              1011          1012          1013          1014          1015 
      1  -0.130145D+03 -0.130138D+03 -0.130115D+03 -0.130096D+03 -0.130093D+03
      2  -0.106519D+00  0.348734D-01  0.344194D-01  0.143624D-01  0.211870D-02
      3   0.114767D-01 -0.542876D-01  0.115850D+00  0.986622D-02 -0.148205D-01
      4   0.637318D-01 -0.688060D-03 -0.291589D-01  0.112646D-01  0.748577D-01
      5   0.368374D+00 -0.114675D+00 -0.937608D-01 -0.306088D-01 -0.475174D-02
      6  -0.521917D-01  0.157590D+00 -0.373173D+00 -0.208807D-01  0.411889D-01
      7  -0.206280D+00 -0.752216D-02  0.937588D-01 -0.353899D-01 -0.219719D+00
      8   0.134138D+00  0.682962D-01 -0.156159D+00  0.121471D+00 -0.331058D-01
      9   0.439637D+00  0.272583D+00 -0.226894D+00 -0.514514D-02 -0.330310D+00
     10  -0.189668D-01 -0.520030D+00 -0.926928D+00  0.139978D+00 -0.158135D+00
     11   0.119188D+01  0.333870D+00 -0.452959D+00  0.488039D-01  0.188487D+00
     12   0.120699D+00 -0.499959D-01  0.521522D+00 -0.202759D+00  0.379520D-01
     13   0.103477D+00  0.114074D+00 -0.170520D+00  0.904402D-01 -0.225981D-01
     14  -0.103831D+00 -0.394249D+00 -0.721684D+00  0.476721D-01 -0.150071D+00
     15  -0.568747D+00 -0.238623D+00  0.287647D+00 -0.165612D-01  0.299904D+00
     16   0.132519D+00  0.204256D-02  0.693414D-01 -0.232116D-01 -0.684552D-01
              1016          1017          1018          1019          1020 
      1  -0.130066D+03 -0.130053D+03 -0.130036D+03 -0.130031D+03 -0.130025D+03
      2  -0.212215D-01  0.282140D-01  0.266300D-01  0.276679D-02 -0.544916D-01
      3  -0.171103D-01  0.328692D-02 -0.311219D-01  0.263830D-01 -0.491539D-01
      4  -0.333018D-01  0.133491D-01 -0.211961D-01 -0.464518D-01  0.630031D-02
      5   0.684160D-01 -0.945200D-01 -0.112098D+00 -0.104083D-01  0.194893D+00
      6   0.372983D-01 -0.160148D-01  0.117300D+00 -0.714885D-01  0.156724D+00
      7   0.108916D+00 -0.502533D-01  0.646587D-01  0.155550D+00 -0.156029D-01
      8   0.152891D-01  0.966545D-02 -0.199573D-01 -0.752539D-01  0.469188D-01
      9  -0.238934D+00  0.551335D-01 -0.789968D-01 -0.370006D+00  0.123445D-01
     10  -0.107980D-01 -0.886542D-01  0.128290D+00 -0.216904D+00  0.432580D+00
     11  -0.919222D-02 -0.330305D+00 -0.771087D+00 -0.250574D+00  0.705849D+00
     12   0.207148D+00  0.563098D-02 -0.301414D+00  0.834689D-01 -0.202087D+00
     13  -0.661903D-01  0.301739D-01 -0.239966D-01 -0.689925D-01  0.123517D+00
     14   0.259879D-01  0.278559D-01  0.577784D+00 -0.895401D-01  0.137503D+00
     15   0.250779D+00 -0.199600D-01  0.263566D+00  0.370095D+00 -0.153721D+00
     16   0.158346D-01 -0.429549D-01 -0.130654D+00 -0.121862D-01 -0.364707D-01
              1021          1022          1023          1024          1025 
      1  -0.129998D+03 -0.129970D+03 -0.129953D+03 -0.129926D+03 -0.129921D+03
      2   0.202906D-02  0.178782D-01  0.451747D-02 -0.370409D-01 -0.451970D-02
      3  -0.370555D-01 -0.278357D-01 -0.176078D-01 -0.789451D-01  0.473142D-03
      4  -0.418031D-01  0.401722D-01  0.432723D-01  0.552361D-01  0.106211D-01
      5   0.141423D-01 -0.651239D-01 -0.139736D-01  0.122709D+00 -0.467597D-02
      6   0.106891D+00  0.101463D+00  0.526805D-01  0.268620D+00  0.880257D-02
      7   0.133157D+00 -0.148486D+00 -0.129924D+00 -0.190134D+00 -0.397348D-01
      8   0.885239D-02  0.988092D-01 -0.132893D+00  0.156741D+00  0.530431D-01
      9  -0.157206D+00  0.351260D+00 -0.137633D+00  0.400688D+00  0.662314D-01
     10   0.166512D-01  0.159860D+00  0.194113D-01  0.716689D+00  0.123157D+00
     11   0.346679D+00 -0.340699D+00 -0.144392D-01  0.648684D+00 -0.508504D+00
     12  -0.102698D+00 -0.127404D+00 -0.202867D-01 -0.375650D+00 -0.378532D+00
     13   0.415612D-01  0.134323D+00 -0.152793D-02  0.189029D+00  0.672211D-01
     14   0.431807D-02  0.229382D+00  0.228668D-01  0.469576D+00  0.470111D+00
     15   0.146213D+00 -0.320103D+00  0.179428D+00 -0.488213D+00  0.448500D-01
     16   0.769017D-02 -0.309912D-01 -0.671510D-01 -0.167929D-01 -0.809356D-01
              1026          1027          1028          1029          1030 
      1  -0.129889D+03 -0.129819D+03 -0.129768D+03 -0.129702D+03 -0.129551D+03
      2  -0.103267D+00 -0.283678D-02 -0.325989D-01  0.699836D-02  0.322767D-01
      3  -0.658255D-02  0.286670D-01  0.140212D-01  0.265381D-02  0.477471D-01
      4  -0.794744D-01 -0.344373D-01 -0.301788D-01  0.200546D-02 -0.274923D-01
      5   0.357671D+00  0.537920D-02  0.691395D-01 -0.225623D-01 -0.104025D+00
      6   0.235785D-01 -0.107170D+00 -0.167535D-01 -0.133544D-01 -0.162285D+00
      7   0.270726D+00  0.118766D+00  0.107247D+00 -0.538823D-02  0.923211D-01
      8  -0.153925D+00 -0.749563D-01 -0.400090D-01  0.197006D-01 -0.629130D-01
      9  -0.670558D+00 -0.258563D+00 -0.236095D+00  0.306881D-01 -0.181764D+00
     10   0.257668D+00 -0.194619D+00  0.374975D-01 -0.444469D-03 -0.392894D+00
     11   0.160878D+01  0.408145D-01  0.233455D+00 -0.142118D+00 -0.373164D+00
     12  -0.472683D-01  0.139773D+00 -0.353709D-01  0.378195D-01  0.172260D+00
     13  -0.159158D+00 -0.113078D+00  0.694833D-02  0.346573D-01 -0.151247D+00
     14  -0.229632D+00 -0.272874D+00 -0.613972D-01 -0.405942D-02 -0.209048D+00
     15   0.431742D+00  0.260173D+00  0.180228D+00 -0.110863D-01  0.235542D+00
     16  -0.129837D+00 -0.161864D-01  0.336417D-01  0.502637D-04  0.800923D-01
 Unable to Open any file for archive entry.
 1\1\GINC-HEL13\SP\RSVWN5 TD-FC\Gen\C2H7N1\SABYASACHI\21-Mar-2022\0\\#P
  TD(Nstates=10000) svwn5/Gen SCF(maxcycles=100) Int(Grid=ultrafine)\\x
 GDB7_00001_tier4.com\\0,1\C,0,-1.240791,-0.237624,-0.027525\C,0,0.0489
 46,0.559205,0.053709\N,0,1.202342,-0.317606,-0.116703\H,0,-2.109817,0.
 415828,0.064703\H,0,-1.292929,-0.976209,0.776809\H,0,-1.300329,-0.7698
 84,-0.977746\H,0,0.066306,1.122818,0.997967\H,0,0.069957,1.296574,-0.7
 52592\H,0,1.236408,-1.003082,0.627159\H,0,2.06508,0.20771,-0.076483\\V
 ersion=EM64L-G16RevC.01\State=1-A\HF=-133.8616454\RMSD=5.176e-09\PG=C0
 1 [X(C2H7N1)]\\@
 The archive entry for this job was punched.


      SCIENCE SANS CONSCIENCE N'EST QUE RUINE DE L'AME.

                                                  -- RABELAIS
 Job cpu time:       0 days  0 hours 15 minutes 21.9 seconds.
 Elapsed time:       0 days  0 hours  1 minutes 55.8 seconds.
 File lengths (MBytes):  RWF=    531 Int=      0 D2E=      0 Chk=    332 Scr=      1
 Normal termination of Gaussian 16 at Mon Mar 21 04:01:53 2022.
