 Entering Gaussian System, Link 0=g16
 Input=000021.com
 Output=000021.log
 Initial command:
 /home/sabyasachi/g16/l1.exe "/scratch/sabyasachi/PBS_7975858.helios/Gau-152326.inp" -scrdir="/scratch/sabyasachi/PBS_7975858.helios/"
 Entering Link 1 = /home/sabyasachi/g16/l1.exe PID=    152327.
  
 Copyright (c) 1988-2019, Gaussian, Inc.  All Rights Reserved.
  
 This is part of the Gaussian(R) 16 program.  It is based on
 the Gaussian(R) 09 system (copyright 2009, Gaussian, Inc.),
 the Gaussian(R) 03 system (copyright 2003, Gaussian, Inc.),
 the Gaussian(R) 98 system (copyright 1998, Gaussian, Inc.),
 the Gaussian(R) 94 system (copyright 1995, Gaussian, Inc.),
 the Gaussian 92(TM) system (copyright 1992, Gaussian, Inc.),
 the Gaussian 90(TM) system (copyright 1990, Gaussian, Inc.),
 the Gaussian 88(TM) system (copyright 1988, Gaussian, Inc.),
 the Gaussian 86(TM) system (copyright 1986, Carnegie Mellon
 University), and the Gaussian 82(TM) system (copyright 1983,
 Carnegie Mellon University). Gaussian is a federally registered
 trademark of Gaussian, Inc.
  
 This software contains proprietary and confidential information,
 including trade secrets, belonging to Gaussian, Inc.
  
 This software is provided under written license and may be
 used, copied, transmitted, or stored only in accord with that
 written license.
  
 The following legend is applicable only to US Government
 contracts under FAR:
  
                    RESTRICTED RIGHTS LEGEND
  
 Use, reproduction and disclosure by the US Government is
 subject to restrictions as set forth in subparagraphs (a)
 and (c) of the Commercial Computer Software - Restricted
 Rights clause in FAR 52.227-19.
  
 Gaussian, Inc.
 340 Quinnipiac St., Bldg. 40, Wallingford CT 06492
  
  
 ---------------------------------------------------------------
 Warning -- This program may not be used in any manner that
 competes with the business of Gaussian, Inc. or will provide
 assistance to any competitor of Gaussian, Inc.  The licensee
 of this program is prohibited from giving any competitor of
 Gaussian, Inc. access to this program.  By using this program,
 the user acknowledges that Gaussian, Inc. is engaged in the
 business of creating and licensing software in the field of
 computational chemistry and represents and warrants to the
 licensee that it is not a competitor of Gaussian, Inc. and that
 it will not use this program in any manner prohibited above.
 ---------------------------------------------------------------
  

 Cite this work as:
 Gaussian 16, Revision C.01,
 M. J. Frisch, G. W. Trucks, H. B. Schlegel, G. E. Scuseria, 
 M. A. Robb, J. R. Cheeseman, G. Scalmani, V. Barone, 
 G. A. Petersson, H. Nakatsuji, X. Li, M. Caricato, A. V. Marenich, 
 J. Bloino, B. G. Janesko, R. Gomperts, B. Mennucci, H. P. Hratchian, 
 J. V. Ortiz, A. F. Izmaylov, J. L. Sonnenberg, D. Williams-Young, 
 F. Ding, F. Lipparini, F. Egidi, J. Goings, B. Peng, A. Petrone, 
 T. Henderson, D. Ranasinghe, V. G. Zakrzewski, J. Gao, N. Rega, 
 G. Zheng, W. Liang, M. Hada, M. Ehara, K. Toyota, R. Fukuda, 
 J. Hasegawa, M. Ishida, T. Nakajima, Y. Honda, O. Kitao, H. Nakai, 
 T. Vreven, K. Throssell, J. A. Montgomery, Jr., J. E. Peralta, 
 F. Ogliaro, M. J. Bearpark, J. J. Heyd, E. N. Brothers, K. N. Kudin, 
 V. N. Staroverov, T. A. Keith, R. Kobayashi, J. Normand, 
 K. Raghavachari, A. P. Rendell, J. C. Burant, S. S. Iyengar, 
 J. Tomasi, M. Cossi, J. M. Millam, M. Klene, C. Adamo, R. Cammi, 
 J. W. Ochterski, R. L. Martin, K. Morokuma, O. Farkas, 
 J. B. Foresman, and D. J. Fox, Gaussian, Inc., Wallingford CT, 2019.
 
 ******************************************
 Gaussian 16:  EM64L-G16RevC.01  3-Jul-2019
                21-Mar-2022 
 ******************************************
 %mem=64gb
 %nproc=8
 Will use up to    8 processors via shared memory.
 ---------------------------------------------------------------------
 #P TD(Nstates=10000) svwn5/Gen SCF(maxcycles=100) Int(Grid=ultrafine)
 ---------------------------------------------------------------------
 1/38=1,172=1/1;
 2/12=2,17=6,18=5,40=1/2;
 3/5=7,11=9,25=1,30=1,74=201,75=-5/1,2,3,8;
 4//1;
 5/5=2,7=100,38=5/2;
 8/6=1,10=1,108=10000/1;
 9/41=10000,42=1,70=2/14;
 6/7=2,8=2,9=2,10=2/1;
 99/5=1,9=1/99;
 Leave Link    1 at Mon Mar 21 20:08:59 2022, MaxMem=  8589934592 cpu:               0.4 elap:               0.1
 (Enter /home/sabyasachi/g16/l101.exe)
 ---------------------
 xGDB7_00001_tier4.com
 ---------------------
 Symbolic Z-matrix:
 Charge =  0 Multiplicity = 1
 6                    -1.13157  -0.50439   0. 
 6                     0.        0.47222   0. 
 6                     1.28414   0.15079   0. 
 1                    -1.76745  -0.36278   0.8777 
 1                    -0.77012  -1.53346   0. 
 1                    -1.76745  -0.36278  -0.8777 
 1                    -0.27655   1.52347   0. 
 1                     1.60844  -0.88456   0. 
 1                     2.05775   0.90833   0. 
 
 ITRead=  0  0  0  0  0  0  0  0  0
 MicOpt= -1 -1 -1 -1 -1 -1 -1 -1 -1
 NAtoms=      9 NQM=        9 NQMF=       0 NMMI=      0 NMMIF=      0
                NMic=       0 NMicF=      0.
                    Isotopes and Nuclear Properties:
 (Nuclear quadrupole moments (NQMom) in fm**2, nuclear magnetic moments (NMagM)
  in nuclear magnetons)

  Atom         1           2           3           4           5           6           7           8           9
 IAtWgt=          12          12          12           1           1           1           1           1           1
 AtmWgt=  12.0000000  12.0000000  12.0000000   1.0078250   1.0078250   1.0078250   1.0078250   1.0078250   1.0078250
 NucSpn=           0           0           0           1           1           1           1           1           1
 AtZEff=  -0.0000000  -0.0000000  -0.0000000  -0.0000000  -0.0000000  -0.0000000  -0.0000000  -0.0000000  -0.0000000
 NQMom=    0.0000000   0.0000000   0.0000000   0.0000000   0.0000000   0.0000000   0.0000000   0.0000000   0.0000000
 NMagM=    0.0000000   0.0000000   0.0000000   2.7928460   2.7928460   2.7928460   2.7928460   2.7928460   2.7928460
 AtZNuc=   6.0000000   6.0000000   6.0000000   1.0000000   1.0000000   1.0000000   1.0000000   1.0000000   1.0000000
 Leave Link  101 at Mon Mar 21 20:09:00 2022, MaxMem=  8589934592 cpu:               0.7 elap:               0.1
 (Enter /home/sabyasachi/g16/l202.exe)
                          Input orientation:                          
 ---------------------------------------------------------------------
 Center     Atomic      Atomic             Coordinates (Angstroms)
 Number     Number       Type             X           Y           Z
 ---------------------------------------------------------------------
      1          6           0       -1.131573   -0.504386    0.000000
      2          6           0        0.000000    0.472223    0.000000
      3          6           0        1.284136    0.150792    0.000000
      4          1           0       -1.767446   -0.362775    0.877699
      5          1           0       -0.770123   -1.533458    0.000000
      6          1           0       -1.767446   -0.362775   -0.877699
      7          1           0       -0.276551    1.523465    0.000000
      8          1           0        1.608435   -0.884556    0.000000
      9          1           0        2.057749    0.908326    0.000000
 ---------------------------------------------------------------------
                    Distance matrix (angstroms):
                    1          2          3          4          5
     1  C    0.000000
     2  C    1.494732   0.000000
     3  C    2.502980   1.323753   0.000000
     4  H    1.093043   2.142765   3.216560   0.000000
     5  H    1.090704   2.148452   2.656441   1.770736   0.000000
     6  H    1.093043   2.142765   3.216560   1.755398   1.770736
     7  H    2.200737   1.087010   2.078455   2.559497   3.096513
     8  H    2.766256   2.104261   1.084949   3.526923   2.465484
     9  H    3.488199   2.103454   1.082744   4.125308   3.736197
                    6          7          8          9
     6  H    0.000000
     7  H    2.559497   0.000000
     8  H    3.526923   3.058061   0.000000
     9  H    4.125308   2.413991   1.848326   0.000000
 Stoichiometry    C3H6
 Framework group  CS[SG(C3H4),X(H2)]
 Deg. of freedom    14
 Full point group                 CS      NOp   2
 Largest Abelian subgroup         CS      NOp   2
 Largest concise Abelian subgroup CS      NOp   2
                         Standard orientation:                         
 ---------------------------------------------------------------------
 Center     Atomic      Atomic             Coordinates (Angstroms)
 Number     Number       Type             X           Y           Z
 ---------------------------------------------------------------------
      1          6           0       -1.131573   -0.504386    0.000000
      2          6           0        0.000000    0.472223    0.000000
      3          6           0        1.284136    0.150792    0.000000
      4          1           0       -1.767446   -0.362776    0.877699
      5          1           0       -0.770122   -1.533458    0.000000
      6          1           0       -1.767446   -0.362776   -0.877699
      7          1           0       -0.276551    1.523465    0.000000
      8          1           0        1.608435   -0.884555    0.000000
      9          1           0        2.057749    0.908327    0.000000
 ---------------------------------------------------------------------
 Rotational constants (GHZ):          47.1476739           9.3674147           8.2089652
 Leave Link  202 at Mon Mar 21 20:09:00 2022, MaxMem=  8589934592 cpu:               0.1 elap:               0.0
 (Enter /home/sabyasachi/g16/l301.exe)
 General basis read from cards:  (5D, 7F)
 Centers:       4      5      6      7      8      9
 S 3 1.00
     Exponent=  1.3010701000D+01 Coefficients=  1.9682158000D-02
     Exponent=  1.9622572000D+00 Coefficients=  1.3796524000D-01
     Exponent=  4.4453796000D-01 Coefficients=  4.7831935000D-01
 S 1 1.00
     Exponent=  1.2194962000D-01 Coefficients=  1.0000000000D+00
 P 1 1.00
     Exponent=  8.0000000000D-01 Coefficients=  1.0000000000D+00
 P 1 1.00
     Exponent=  1.1704099050D-01 Coefficients=  1.0000000000D+00
 ****
 Centers:       1      2      3
 S 5 1.00
     Exponent=  1.2384016938D+03 Coefficients=  5.4568832082D-03
     Exponent=  1.8629004992D+02 Coefficients=  4.0638409211D-02
     Exponent=  4.2251176346D+01 Coefficients=  1.8025593888D-01
     Exponent=  1.1676557932D+01 Coefficients=  4.6315121755D-01
     Exponent=  3.5930506482D+00 Coefficients=  4.4087173314D-01
 S 1 1.00
     Exponent=  4.0245147363D-01 Coefficients=  1.0000000000D+00
 S 1 1.00
     Exponent=  1.3090182668D-01 Coefficients=  1.0000000000D+00
 S 1 1.00
     Exponent=  6.7053540256D-02 Coefficients=  1.0000000000D+00
 P 3 1.00
     Exponent=  9.4680970621D+00 Coefficients=  3.8387871728D-02
     Exponent=  2.0103545142D+00 Coefficients=  2.1117025112D-01
     Exponent=  5.4771004707D-01 Coefficients=  5.1328172114D-01
 P 1 1.00
     Exponent=  1.5268613795D-01 Coefficients=  1.0000000000D+00
 D 1 1.00
     Exponent=  8.0000000000D-01 Coefficients=  1.0000000000D+00
 D 1 1.00
     Exponent=  1.1713185140D-01 Coefficients=  1.0000000000D+00
 ****
 Ernie: Thresh=  0.10000D-02 Tol=  0.10000D-05 Strict=F.
 There are    80 symmetry adapted cartesian basis functions of A'  symmetry.
 There are    34 symmetry adapted cartesian basis functions of A"  symmetry.
 There are    74 symmetry adapted basis functions of A'  symmetry.
 There are    34 symmetry adapted basis functions of A"  symmetry.
   108 basis functions,   156 primitive gaussians,   114 cartesian basis functions
    12 alpha electrons       12 beta electrons
       nuclear repulsion energy        70.9801488057 Hartrees.
 IExCor=  201 DFT=T Ex=S Corr=VWN5 ExCW=0 ScaHFX=  0.000000
 ScaDFX=  1.000000  1.000000  1.000000  1.000000 ScalE2=  1.000000  1.000000
 IRadAn=      5 IRanWt=     -1 IRanGd=            0 ICorTp=0 IEmpDi=  4
 NAtoms=    9 NActive=    9 NUniq=    8 SFac= 1.27D+00 NAtFMM=   60 NAOKFM=F Big=F
 Integral buffers will be    131072 words long.
 Regular integral format.
 Two-electron integral symmetry is turned on.
 Leave Link  301 at Mon Mar 21 20:09:00 2022, MaxMem=  8589934592 cpu:               0.6 elap:               0.1
 (Enter /home/sabyasachi/g16/l302.exe)
 NPDir=0 NMtPBC=     1 NCelOv=     1 NCel=       1 NClECP=     1 NCelD=      1
         NCelK=      1 NCelE2=     1 NClLst=     1 CellRange=     0.0.
 One-electron integrals computed using PRISM.
 One-electron integral symmetry used in STVInt
 NBasis=   108 RedAO= T EigKep=  8.08D-05  NBF=    74    34
 NBsUse=   108 1.00D-06 EigRej= -1.00D+00 NBFU=    74    34
 Precomputing XC quadrature grid using
 IXCGrd= 4 IRadAn=           5 IRanWt=          -1 IRanGd=           0 AccXCQ= 0.00D+00.
 Generated NRdTot=       0 NPtTot=           0 NUsed=           0 NTot=          32
 NSgBfM=   114   114   114   114   114 MxSgAt=     9 MxSgA2=     9.
 Leave Link  302 at Mon Mar 21 20:09:00 2022, MaxMem=  8589934592 cpu:               1.1 elap:               0.2
 (Enter /home/sabyasachi/g16/l303.exe)
 DipDrv:  MaxL=1.
 Leave Link  303 at Mon Mar 21 20:09:00 2022, MaxMem=  8589934592 cpu:               0.2 elap:               0.0
 (Enter /home/sabyasachi/g16/l308.exe)
 Leave Link  308 at Mon Mar 21 20:09:00 2022, MaxMem=  8589934592 cpu:               0.3 elap:               0.1
 (Enter /home/sabyasachi/g16/l401.exe)
 ExpMin= 6.71D-02 ExpMax= 1.24D+03 ExpMxC= 1.86D+02 IAcc=3 IRadAn=         5 AccDes= 0.00D+00
 Harris functional with IExCor=  201 and IRadAn=       5 diagonalized for initial guess.
 HarFok:  IExCor=  201 AccDes= 0.00D+00 IRadAn=         5 IDoV= 1 UseB2=F ITyADJ=14
 ICtDFT=  3500011 ScaDFX=  1.000000  1.000000  1.000000  1.000000
 FoFCou: FMM=F IPFlag=           0 FMFlag=      100000 FMFlg1=           0
         NFxFlg=           0 DoJE=T BraDBF=F KetDBF=T FulRan=T
         wScrn=  0.000000 ICntrl=       500 IOpCl=  0 I1Cent=   200000004 NGrid=           0
         NMat0=    1 NMatS0=      1 NMatT0=    0 NMatD0=    1 NMtDS0=    0 NMtDT0=    0
 Petite list used in FoFCou.
 Harris En= -116.827491379308    
 JPrj=0 DoOrth=F DoCkMO=F.
 Initial guess orbital symmetries:
       Occupied  (A') (A') (A') (A') (A') (A') (A') (A') (A") (A')
                 (A') (A")
       Virtual   (A") (A') (A') (A') (A') (A") (A') (A') (A") (A')
                 (A') (A") (A') (A') (A') (A") (A") (A') (A') (A")
                 (A') (A') (A") (A') (A') (A") (A') (A") (A') (A')
                 (A') (A') (A") (A') (A') (A') (A") (A') (A') (A")
                 (A") (A') (A') (A") (A') (A") (A') (A') (A") (A')
                 (A') (A") (A') (A') (A') (A") (A') (A') (A') (A')
                 (A') (A') (A') (A") (A") (A") (A") (A") (A') (A')
                 (A') (A") (A') (A') (A") (A') (A') (A") (A') (A")
                 (A') (A') (A') (A") (A") (A') (A') (A') (A") (A')
                 (A') (A') (A") (A') (A') (A')
 The electronic state of the initial guess is 1-A'.
 Leave Link  401 at Mon Mar 21 20:09:00 2022, MaxMem=  8589934592 cpu:               1.8 elap:               0.3
 (Enter /home/sabyasachi/g16/l502.exe)
 Keep J ints in memory in symmetry-blocked form, NReq=26186371.
 FoFCou: FMM=F IPFlag=           0 FMFlag=           0 FMFlg1=           0
         NFxFlg=           0 DoJE=F BraDBF=F KetDBF=F FulRan=T
         wScrn=  0.000000 ICntrl=       600 IOpCl=  0 I1Cent=           0 NGrid=           0
         NMat0=    1 NMatS0=   5886 NMatT0=    0 NMatD0=    1 NMtDS0=    0 NMtDT0=    0
 Petite list used in FoFCou.
 Closed shell SCF:
 Using DIIS extrapolation, IDIIS=  1040.
 NGot=  8589934592 LenX=  8581046321 LenY=  8581032884
 Requested convergence on RMS density matrix=1.00D-08 within 100 cycles.
 Requested convergence on MAX density matrix=1.00D-06.
 Requested convergence on             energy=1.00D-06.
 No special actions if energy rises.
 Integral accuracy reduced to 1.0D-05 until final iterations.

 Cycle   1  Pass 0  IDiag  1:
 E= -116.556472204283    
 DIIS: error= 3.48D-02 at cycle   1 NSaved=   1.
 NSaved= 1 IEnMin= 1 EnMin= -116.556472204283     IErMin= 1 ErrMin= 3.48D-02
 ErrMax= 3.48D-02  0.00D+00 EMaxC= 1.00D-01 BMatC= 1.17D-01 BMatP= 1.17D-01
 IDIUse=3 WtCom= 6.52D-01 WtEn= 3.48D-01
 Coeff-Com:  0.100D+01
 Coeff-En:   0.100D+01
 Coeff:      0.100D+01
 Gap=     0.148 Goal=   None    Shift=    0.000
 GapD=    0.148 DampG=1.000 DampE=0.500 DampFc=0.5000 IDamp=-1.
 Damping current iteration by 5.00D-01
 RMSDP=9.35D-03 MaxDP=1.74D-01              OVMax= 2.22D-01

 Cycle   2  Pass 0  IDiag  1:
 E= -116.597988692720     Delta-E=       -0.041516488437 Rises=F Damp=T
 DIIS: error= 9.61D-03 at cycle   2 NSaved=   2.
 NSaved= 2 IEnMin= 2 EnMin= -116.597988692720     IErMin= 2 ErrMin= 9.61D-03
 ErrMax= 9.61D-03  0.00D+00 EMaxC= 1.00D-01 BMatC= 8.81D-03 BMatP= 1.17D-01
 IDIUse=3 WtCom= 9.04D-01 WtEn= 9.61D-02
 Coeff-Com:  0.196D+00 0.804D+00
 Coeff-En:   0.332D+00 0.668D+00
 Coeff:      0.209D+00 0.791D+00
 Gap=     0.213 Goal=   None    Shift=    0.000
 RMSDP=1.97D-03 MaxDP=3.46D-02 DE=-4.15D-02 OVMax= 1.39D-01

 Cycle   3  Pass 0  IDiag  1:
 E= -116.692616265938     Delta-E=       -0.094627573218 Rises=F Damp=F
 DIIS: error= 3.05D-03 at cycle   3 NSaved=   3.
 NSaved= 3 IEnMin= 3 EnMin= -116.692616265938     IErMin= 3 ErrMin= 3.05D-03
 ErrMax= 3.05D-03  0.00D+00 EMaxC= 1.00D-01 BMatC= 6.68D-04 BMatP= 8.81D-03
 IDIUse=3 WtCom= 9.69D-01 WtEn= 3.05D-02
 Coeff-Com:  0.597D-01 0.273D+00 0.667D+00
 Coeff-En:   0.000D+00 0.000D+00 0.100D+01
 Coeff:      0.579D-01 0.265D+00 0.677D+00
 Gap=     0.207 Goal=   None    Shift=    0.000
 RMSDP=8.98D-04 MaxDP=1.13D-02 DE=-9.46D-02 OVMax= 2.17D-02

 Cycle   4  Pass 0  IDiag  1:
 E= -116.692730461783     Delta-E=       -0.000114195845 Rises=F Damp=F
 DIIS: error= 2.76D-03 at cycle   4 NSaved=   4.
 NSaved= 4 IEnMin= 4 EnMin= -116.692730461783     IErMin= 4 ErrMin= 2.76D-03
 ErrMax= 2.76D-03  0.00D+00 EMaxC= 1.00D-01 BMatC= 5.64D-04 BMatP= 6.68D-04
 IDIUse=3 WtCom= 9.72D-01 WtEn= 2.76D-02
 Coeff-Com:  0.206D-01 0.113D+00 0.465D+00 0.402D+00
 Coeff-En:   0.000D+00 0.000D+00 0.461D+00 0.539D+00
 Coeff:      0.200D-01 0.109D+00 0.465D+00 0.406D+00
 Gap=     0.206 Goal=   None    Shift=    0.000
 RMSDP=2.78D-04 MaxDP=9.57D-03 DE=-1.14D-04 OVMax= 1.97D-02

 Cycle   5  Pass 0  IDiag  1:
 E= -116.693255235176     Delta-E=       -0.000524773394 Rises=F Damp=F
 DIIS: error= 8.90D-04 at cycle   5 NSaved=   5.
 NSaved= 5 IEnMin= 5 EnMin= -116.693255235176     IErMin= 5 ErrMin= 8.90D-04
 ErrMax= 8.90D-04  0.00D+00 EMaxC= 1.00D-01 BMatC= 6.85D-05 BMatP= 5.64D-04
 IDIUse=3 WtCom= 9.91D-01 WtEn= 8.90D-03
 Coeff-Com:  0.199D-02 0.223D-01 0.173D+00 0.283D+00 0.519D+00
 Coeff-En:   0.000D+00 0.000D+00 0.000D+00 0.154D+00 0.846D+00
 Coeff:      0.197D-02 0.221D-01 0.172D+00 0.282D+00 0.522D+00
 Gap=     0.206 Goal=   None    Shift=    0.000
 RMSDP=1.43D-04 MaxDP=3.42D-03 DE=-5.25D-04 OVMax= 5.94D-03

 Cycle   6  Pass 0  IDiag  1:
 E= -116.693333382208     Delta-E=       -0.000078147031 Rises=F Damp=F
 DIIS: error= 1.52D-04 at cycle   6 NSaved=   6.
 NSaved= 6 IEnMin= 6 EnMin= -116.693333382208     IErMin= 6 ErrMin= 1.52D-04
 ErrMax= 1.52D-04  0.00D+00 EMaxC= 1.00D-01 BMatC= 2.36D-06 BMatP= 6.85D-05
 IDIUse=3 WtCom= 9.98D-01 WtEn= 1.52D-03
 Coeff-Com: -0.880D-04 0.529D-02 0.685D-01 0.131D+00 0.287D+00 0.508D+00
 Coeff-En:   0.000D+00 0.000D+00 0.000D+00 0.000D+00 0.000D+00 0.100D+01
 Coeff:     -0.879D-04 0.528D-02 0.684D-01 0.131D+00 0.286D+00 0.509D+00
 Gap=     0.206 Goal=   None    Shift=    0.000
 RMSDP=2.58D-05 MaxDP=5.55D-04 DE=-7.81D-05 OVMax= 5.23D-04

 Cycle   7  Pass 0  IDiag  1:
 E= -116.693335780295     Delta-E=       -0.000002398087 Rises=F Damp=F
 DIIS: error= 2.46D-05 at cycle   7 NSaved=   7.
 NSaved= 7 IEnMin= 7 EnMin= -116.693335780295     IErMin= 7 ErrMin= 2.46D-05
 ErrMax= 2.46D-05  0.00D+00 EMaxC= 1.00D-01 BMatC= 1.15D-07 BMatP= 2.36D-06
 IDIUse=1 WtCom= 1.00D+00 WtEn= 0.00D+00
 Coeff-Com: -0.128D-03 0.373D-03 0.153D-01 0.340D-01 0.843D-01 0.236D+00
 Coeff-Com:  0.630D+00
 Coeff:     -0.128D-03 0.373D-03 0.153D-01 0.340D-01 0.843D-01 0.236D+00
 Coeff:      0.630D+00
 Gap=     0.206 Goal=   None    Shift=    0.000
 RMSDP=7.59D-06 MaxDP=1.49D-04 DE=-2.40D-06 OVMax= 1.11D-04

 Initial convergence to 1.0D-05 achieved.  Increase integral accuracy.
 Cycle   8  Pass 1  IDiag  1:
 E= -116.693330246705     Delta-E=        0.000005533590 Rises=F Damp=F
 DIIS: error= 7.64D-06 at cycle   1 NSaved=   1.
 NSaved= 1 IEnMin= 1 EnMin= -116.693330246705     IErMin= 1 ErrMin= 7.64D-06
 ErrMax= 7.64D-06  0.00D+00 EMaxC= 1.00D-01 BMatC= 5.15D-09 BMatP= 5.15D-09
 IDIUse=1 WtCom= 1.00D+00 WtEn= 0.00D+00
 Coeff-Com:  0.100D+01
 Coeff:      0.100D+01
 Gap=     0.206 Goal=   None    Shift=    0.000
 RMSDP=7.59D-06 MaxDP=1.49D-04 DE= 5.53D-06 OVMax= 6.93D-05

 Cycle   9  Pass 1  IDiag  1:
 E= -116.693330246804     Delta-E=       -0.000000000099 Rises=F Damp=F
 DIIS: error= 7.96D-06 at cycle   2 NSaved=   2.
 NSaved= 2 IEnMin= 2 EnMin= -116.693330246804     IErMin= 1 ErrMin= 7.64D-06
 ErrMax= 7.96D-06  0.00D+00 EMaxC= 1.00D-01 BMatC= 6.94D-09 BMatP= 5.15D-09
 IDIUse=1 WtCom= 1.00D+00 WtEn= 0.00D+00
 Coeff-Com:  0.543D+00 0.457D+00
 Coeff:      0.543D+00 0.457D+00
 Gap=     0.206 Goal=   None    Shift=    0.000
 RMSDP=1.64D-06 MaxDP=3.09D-05 DE=-9.87D-11 OVMax= 6.23D-05

 Cycle  10  Pass 1  IDiag  1:
 E= -116.693330253262     Delta-E=       -0.000000006458 Rises=F Damp=F
 DIIS: error= 4.40D-06 at cycle   3 NSaved=   3.
 NSaved= 3 IEnMin= 3 EnMin= -116.693330253262     IErMin= 3 ErrMin= 4.40D-06
 ErrMax= 4.40D-06  0.00D+00 EMaxC= 1.00D-01 BMatC= 1.51D-09 BMatP= 5.15D-09
 IDIUse=1 WtCom= 1.00D+00 WtEn= 0.00D+00
 Coeff-Com:  0.244D+00 0.314D+00 0.442D+00
 Coeff:      0.244D+00 0.314D+00 0.442D+00
 Gap=     0.206 Goal=   None    Shift=    0.000
 RMSDP=4.30D-07 MaxDP=1.52D-05 DE=-6.46D-09 OVMax= 3.14D-05

 Cycle  11  Pass 1  IDiag  1:
 E= -116.693330254651     Delta-E=       -0.000000001390 Rises=F Damp=F
 DIIS: error= 1.66D-06 at cycle   4 NSaved=   4.
 NSaved= 4 IEnMin= 4 EnMin= -116.693330254651     IErMin= 4 ErrMin= 1.66D-06
 ErrMax= 1.66D-06  0.00D+00 EMaxC= 1.00D-01 BMatC= 2.10D-10 BMatP= 1.51D-09
 IDIUse=1 WtCom= 1.00D+00 WtEn= 0.00D+00
 Coeff-Com:  0.543D-01 0.121D+00 0.298D+00 0.527D+00
 Coeff:      0.543D-01 0.121D+00 0.298D+00 0.527D+00
 Gap=     0.206 Goal=   None    Shift=    0.000
 RMSDP=2.06D-07 MaxDP=4.03D-06 DE=-1.39D-09 OVMax= 8.74D-06

 Cycle  12  Pass 1  IDiag  1:
 E= -116.693330254862     Delta-E=       -0.000000000210 Rises=F Damp=F
 DIIS: error= 4.10D-07 at cycle   5 NSaved=   5.
 NSaved= 5 IEnMin= 5 EnMin= -116.693330254862     IErMin= 5 ErrMin= 4.10D-07
 ErrMax= 4.10D-07  0.00D+00 EMaxC= 1.00D-01 BMatC= 1.56D-11 BMatP= 2.10D-10
 IDIUse=1 WtCom= 1.00D+00 WtEn= 0.00D+00
 Coeff-Com: -0.732D-03 0.288D-01 0.104D+00 0.291D+00 0.577D+00
 Coeff:     -0.732D-03 0.288D-01 0.104D+00 0.291D+00 0.577D+00
 Gap=     0.206 Goal=   None    Shift=    0.000
 RMSDP=8.69D-08 MaxDP=2.59D-06 DE=-2.10D-10 OVMax= 1.49D-06

 Cycle  13  Pass 1  IDiag  1:
 E= -116.693330254878     Delta-E=       -0.000000000016 Rises=F Damp=F
 DIIS: error= 4.46D-08 at cycle   6 NSaved=   6.
 NSaved= 6 IEnMin= 6 EnMin= -116.693330254878     IErMin= 6 ErrMin= 4.46D-08
 ErrMax= 4.46D-08  0.00D+00 EMaxC= 1.00D-01 BMatC= 2.20D-13 BMatP= 1.56D-11
 IDIUse=1 WtCom= 1.00D+00 WtEn= 0.00D+00
 Coeff-Com: -0.143D-02 0.879D-02 0.345D-01 0.102D+00 0.237D+00 0.619D+00
 Coeff:     -0.143D-02 0.879D-02 0.345D-01 0.102D+00 0.237D+00 0.619D+00
 Gap=     0.206 Goal=   None    Shift=    0.000
 RMSDP=1.20D-08 MaxDP=1.43D-07 DE=-1.64D-11 OVMax= 1.41D-07

 Cycle  14  Pass 1  IDiag  1:
 E= -116.693330254882     Delta-E=       -0.000000000004 Rises=F Damp=F
 DIIS: error= 8.63D-09 at cycle   7 NSaved=   7.
 NSaved= 7 IEnMin= 7 EnMin= -116.693330254882     IErMin= 7 ErrMin= 8.63D-09
 ErrMax= 8.63D-09  0.00D+00 EMaxC= 1.00D-01 BMatC= 5.65D-15 BMatP= 2.20D-13
 IDIUse=1 WtCom= 1.00D+00 WtEn= 0.00D+00
 Coeff-Com: -0.405D-03 0.269D-02 0.105D-01 0.307D-01 0.762D-01 0.234D+00
 Coeff-Com:  0.646D+00
 Coeff:     -0.405D-03 0.269D-02 0.105D-01 0.307D-01 0.762D-01 0.234D+00
 Coeff:      0.646D+00
 Gap=     0.206 Goal=   None    Shift=    0.000
 RMSDP=1.84D-09 MaxDP=2.43D-08 DE=-3.75D-12 OVMax= 3.44D-08

 SCF Done:  E(RS-VWN5) =  -116.693330255     A.U. after   14 cycles
            NFock= 14  Conv=0.18D-08     -V/T= 2.0074
 KE= 1.158416806558D+02 PE=-4.129579045905D+02 EE= 1.094427448740D+02
 Leave Link  502 at Mon Mar 21 20:09:02 2022, MaxMem=  8589934592 cpu:              10.6 elap:               1.4
 (Enter /home/sabyasachi/g16/l801.exe)
 DoSCS=F DFT=T ScalE2(SS,OS)=  1.000000  1.000000
 ExpMin= 6.71D-02 ExpMax= 1.24D+03 ExpMxC= 1.86D+02 IAcc=3 IRadAn=         5 AccDes= 0.00D+00
 HarFok:  IExCor=  205 AccDes= 0.00D+00 IRadAn=         5 IDoV=-2 UseB2=F ITyADJ=14
 ICtDFT= 12500011 ScaDFX=  1.000000  1.000000  1.000000  1.000000
 Largest valence mixing into a core orbital is  7.98D-05
 Largest core mixing into a valence orbital is  2.50D-06
 Range of M.O.s used for correlation:     4   108
 NBasis=   108 NAE=    12 NBE=    12 NFC=     3 NFV=     0
 NROrb=    105 NOA=     9 NOB=     9 NVA=    96 NVB=    96

 **** Warning!!: The largest alpha MO coefficient is  0.45440840D+02

 Leave Link  801 at Mon Mar 21 20:09:02 2022, MaxMem=  8589934592 cpu:               0.6 elap:               0.1
 (Enter /home/sabyasachi/g16/l914.exe)
 RHF ground state
 Keep J ints in memory in symmetry-blocked form, NReq=917737607.
 FoFCou: FMM=F IPFlag=           0 FMFlag=           0 FMFlg1=           0
         NFxFlg=           0 DoJE=F BraDBF=F KetDBF=F FulRan=T
         wScrn=  0.000000 ICntrl=       600 IOpCl=  0 I1Cent=           0 NGrid=           0
         NMat0=    1 NMatS0=   5886 NMatT0=    0 NMatD0=    1 NMtDS0=    0 NMtDT0=    0
 Petite list used in FoFCou.
 MDV=  8589934592 DFT=T DoStab=F Mixed=F DoRPA=T DoScal=T NonHer=F
 Making orbital integer symmetry assigments:
 Orbital symmetries:
       Occupied  (A') (A') (A') (A') (A') (A') (A') (A') (A") (A')
                 (A') (A")
       Virtual   (A") (A') (A') (A') (A') (A") (A') (A') (A") (A')
                 (A') (A") (A') (A") (A') (A') (A") (A') (A") (A')
                 (A') (A') (A") (A') (A") (A') (A') (A") (A') (A')
                 (A') (A") (A') (A') (A') (A') (A") (A') (A") (A')
                 (A") (A') (A") (A') (A') (A") (A') (A') (A") (A')
                 (A') (A') (A") (A') (A') (A") (A') (A') (A') (A')
                 (A') (A') (A') (A") (A") (A") (A") (A") (A') (A')
                 (A') (A") (A') (A') (A") (A') (A') (A") (A') (A")
                 (A') (A') (A') (A") (A") (A') (A') (A') (A") (A')
                 (A') (A') (A") (A') (A') (A')
   864 initial guesses have been made.
 Convergence on wavefunction:    0.001000000000000
 Davidson Disk Diagonalization:  ConvIn= 1.00D-03 SkipCon=T Conv= 1.00D-03.
 Max sub-space:  3456 roots to seek:  1728 dimension of matrix:         1728
 *** WARNING: Number of orthogonal guesses is          864
 Iteration     1 Dimension   864 NMult     0 NNew    864
 CISAX will form   864 AO SS matrices at one time.
 NMat=   864 NSing=   864 JSym2X=-1.
 New state      1 was old state      2
 New state      2 was old state      1
 New state      3 was old state      4
 New state      4 was old state      5
 New state      5 was old state      3
 New state      7 was old state      8
 New state      8 was old state      7
 New state     12 was old state     13
 New state     13 was old state     14
 New state     14 was old state     16
 New state     16 was old state     12
 New state     22 was old state     23
 New state     23 was old state     22
 New state     25 was old state     26
 New state     26 was old state     25
 New state     29 was old state     30
 New state     30 was old state     29
 New state     34 was old state     35
 New state     35 was old state     34
 New state     37 was old state     38
 New state     38 was old state     37
 New state     44 was old state     45
 New state     45 was old state     44
 New state     47 was old state     52
 New state     49 was old state     51
 New state     50 was old state     53
 New state     51 was old state     54
 New state     52 was old state     55
 New state     53 was old state     49
 New state     54 was old state     56
 New state     55 was old state     58
 New state     56 was old state     57
 New state     57 was old state     47
 New state     58 was old state     61
 New state     59 was old state     60
 New state     60 was old state     62
 New state     61 was old state     59
 New state     62 was old state     50
 New state     63 was old state     65
 New state     64 was old state     63
 New state     65 was old state     64
 New state     66 was old state     68
 New state     67 was old state     69
 New state     68 was old state     67
 New state     69 was old state     72
 New state     70 was old state     73
 New state     71 was old state     70
 New state     72 was old state     71
 New state     73 was old state     74
 New state     74 was old state     75
 New state     75 was old state     77
 New state     77 was old state     80
 New state     79 was old state     81
 New state     80 was old state     84
 New state     81 was old state     79
 New state     82 was old state     83
 New state     83 was old state     85
 New state     84 was old state     86
 New state     85 was old state     87
 New state     86 was old state     89
 New state     87 was old state     88
 New state     88 was old state     82
 New state     89 was old state     90
 New state     90 was old state     91
 New state     91 was old state     96
 New state     93 was old state     94
 New state     94 was old state     95
 New state     95 was old state     98
 New state     96 was old state     97
 New state     97 was old state     93
 New state     98 was old state     99
 New state     99 was old state    100
 New state    100 was old state    102
 New state    101 was old state    103
 New state    102 was old state    101
 New state    103 was old state    104
 New state    104 was old state    114
 New state    105 was old state    106
 New state    106 was old state    108
 New state    107 was old state    111
 New state    108 was old state    109
 New state    109 was old state    112
 New state    110 was old state    107
 New state    111 was old state    110
 New state    112 was old state    115
 New state    114 was old state    105
 New state    115 was old state    116
 New state    116 was old state    117
 New state    117 was old state    118
 New state    118 was old state    121
 New state    119 was old state    120
 New state    120 was old state    122
 New state    121 was old state    119
 New state    122 was old state    124
 New state    124 was old state    125
 New state    125 was old state    127
 New state    127 was old state    135
 New state    128 was old state    129
 New state    129 was old state    131
 New state    130 was old state    132
 New state    131 was old state    130
 New state    132 was old state    128
 New state    133 was old state    134
 New state    134 was old state    133
 New state    135 was old state    136
 New state    136 was old state    138
 New state    138 was old state    139
 New state    139 was old state    140
 New state    140 was old state    142
 New state    141 was old state    153
 New state    142 was old state    144
 New state    143 was old state    141
 New state    144 was old state    148
 New state    145 was old state    149
 New state    146 was old state    145
 New state    147 was old state    143
 New state    148 was old state    150
 New state    149 was old state    152
 New state    150 was old state    154
 New state    151 was old state    146
 New state    152 was old state    151
 New state    153 was old state    156
 New state    154 was old state    171
 New state    156 was old state    147
 New state    157 was old state    158
 New state    158 was old state    160
 New state    159 was old state    157
 New state    160 was old state    161
 New state    161 was old state    162
 New state    162 was old state    164
 New state    163 was old state    165
 New state    164 was old state    169
 New state    165 was old state    163
 New state    166 was old state    168
 New state    167 was old state    170
 New state    168 was old state    167
 New state    169 was old state    166
 New state    170 was old state    174
 New state    171 was old state    172
 New state    172 was old state    176
 New state    173 was old state    175
 New state    174 was old state    159
 New state    175 was old state    180
 New state    176 was old state    173
 New state    177 was old state    179
 New state    178 was old state    181
 New state    179 was old state    177
 New state    180 was old state    182
 New state    181 was old state    178
 New state    182 was old state    183
 New state    183 was old state    184
 New state    184 was old state    185
 New state    185 was old state    186
 New state    186 was old state    187
 New state    187 was old state    189
 New state    188 was old state    191
 New state    189 was old state    188
 New state    190 was old state    199
 New state    191 was old state    190
 New state    192 was old state    196
 New state    193 was old state    200
 New state    194 was old state    195
 New state    195 was old state    194
 New state    196 was old state    193
 New state    197 was old state    202
 New state    198 was old state    197
 New state    199 was old state    201
 New state    200 was old state    198
 New state    201 was old state    207
 New state    202 was old state    203
 New state    203 was old state    215
 New state    204 was old state    206
 New state    206 was old state    204
 New state    207 was old state    192
 New state    209 was old state    210
 New state    210 was old state    211
 New state    211 was old state    214
 New state    212 was old state    216
 New state    213 was old state    217
 New state    214 was old state    219
 New state    215 was old state    218
 New state    216 was old state    220
 New state    217 was old state    221
 New state    218 was old state    213
 New state    219 was old state    223
 New state    220 was old state    225
 New state    221 was old state    224
 New state    222 was old state    231
 New state    223 was old state    222
 New state    224 was old state    227
 New state    225 was old state    228
 New state    227 was old state    233
 New state    228 was old state    230
 New state    230 was old state    237
 New state    231 was old state    232
 New state    232 was old state    234
 New state    233 was old state    236
 New state    234 was old state    235
 New state    235 was old state    238
 New state    236 was old state    239
 New state    237 was old state    243
 New state    238 was old state    240
 New state    239 was old state    241
 New state    240 was old state    247
 New state    241 was old state    246
 New state    242 was old state    245
 New state    243 was old state    248
 New state    244 was old state    249
 New state    245 was old state    252
 New state    246 was old state    253
 New state    247 was old state    242
 New state    248 was old state    251
 New state    249 was old state    244
 New state    250 was old state    264
 New state    251 was old state    250
 New state    252 was old state    254
 New state    253 was old state    257
 New state    254 was old state    255
 New state    255 was old state    261
 New state    257 was old state    258
 New state    258 was old state    259
 New state    259 was old state    271
 New state    260 was old state    262
 New state    261 was old state    265
 New state    262 was old state    263
 New state    263 was old state    270
 New state    264 was old state    266
 New state    265 was old state    269
 New state    266 was old state    268
 New state    268 was old state    279
 New state    269 was old state    275
 New state    270 was old state    272
 New state    271 was old state    260
 New state    272 was old state    280
 New state    273 was old state    274
 New state    274 was old state    273
 New state    275 was old state    276
 New state    276 was old state    278
 New state    277 was old state    283
 New state    278 was old state    281
 New state    279 was old state    277
 New state    280 was old state    286
 New state    281 was old state    290
 New state    282 was old state    284
 New state    283 was old state    287
 New state    284 was old state    295
 New state    285 was old state    288
 New state    286 was old state    289
 New state    287 was old state    293
 New state    288 was old state    294
 New state    289 was old state    291
 New state    290 was old state    296
 New state    291 was old state    299
 New state    293 was old state    298
 New state    294 was old state    297
 New state    295 was old state    304
 New state    296 was old state    308
 New state    297 was old state    309
 New state    298 was old state    303
 New state    299 was old state    300
 New state    300 was old state    306
 New state    303 was old state    307
 New state    304 was old state    305
 New state    305 was old state    314
 New state    306 was old state    310
 New state    307 was old state    312
 New state    308 was old state    311
 New state    309 was old state    313
 New state    310 was old state    318
 New state    311 was old state    285
 New state    312 was old state    320
 New state    313 was old state    315
 New state    314 was old state    317
 New state    315 was old state    316
 New state    316 was old state    319
 New state    317 was old state    321
 New state    318 was old state    323
 New state    319 was old state    322
 New state    320 was old state    329
 New state    321 was old state    324
 New state    322 was old state    327
 New state    323 was old state    328
 New state    324 was old state    332
 New state    326 was old state    333
 New state    327 was old state    326
 New state    328 was old state    330
 New state    329 was old state    331
 New state    330 was old state    345
 New state    331 was old state    336
 New state    332 was old state    334
 New state    333 was old state    339
 New state    334 was old state    341
 New state    336 was old state    337
 New state    337 was old state    338
 New state    338 was old state    346
 New state    339 was old state    340
 New state    340 was old state    348
 New state    341 was old state    343
 New state    342 was old state    344
 New state    343 was old state    342
 New state    344 was old state    347
 New state    345 was old state    364
 New state    346 was old state    350
 New state    347 was old state    353
 New state    348 was old state    349
 New state    349 was old state    351
 No map to state    350
 New state    351 was old state    356
 New state    352 was old state    362
 New state    353 was old state    358
 New state    354 was old state    357
 New state    355 was old state    361
 New state    356 was old state    355
 New state    357 was old state    352
 New state    358 was old state    359
 New state    359 was old state    354
 New state    361 was old state    363
 New state    362 was old state    381
 New state    363 was old state    367
 New state    364 was old state    365
 New state    365 was old state    370
 New state    367 was old state    369
 New state    368 was old state    372
 New state    369 was old state    368
 New state    370 was old state    376
 New state    372 was old state    373
 New state    373 was old state    375
 New state    375 was old state    378
 New state    376 was old state    377
 New state    377 was old state    386
 New state    378 was old state    379
 New state    379 was old state    387
 New state    380 was old state    383
 New state    381 was old state    380
 New state    383 was old state    384
 New state    384 was old state    385
 New state    385 was old state    390
 New state    386 was old state    394
 New state    387 was old state    388
 New state    388 was old state    391
 New state    390 was old state    395
 New state    391 was old state    392
 New state    392 was old state    393
 New state    393 was old state    399
 New state    394 was old state    397
 New state    395 was old state    396
 New state    396 was old state    398
 New state    397 was old state    410
 New state    398 was old state    401
 New state    399 was old state    400
 New state    400 was old state    405
 New state    401 was old state    402
 New state    402 was old state    426
 New state    405 was old state    406
 New state    406 was old state    407
 New state    407 was old state    417
 New state    409 was old state    411
 New state    410 was old state    413
 New state    411 was old state    412
 New state    412 was old state    414
 New state    413 was old state    416
 New state    414 was old state    415
 New state    415 was old state    418
 New state    416 was old state    409
 New state    417 was old state    419
 New state    418 was old state    422
 New state    419 was old state    428
 New state    420 was old state    421
 New state    421 was old state    424
 New state    422 was old state    423
 New state    423 was old state    425
 New state    424 was old state    420
 New state    425 was old state    429
 New state    426 was old state    427
 New state    427 was old state    431
 New state    428 was old state    434
 New state    429 was old state    432
 New state    431 was old state    433
 New state    432 was old state    440
 New state    433 was old state    435
 New state    434 was old state    436
 New state    435 was old state    441
 New state    436 was old state    439
 New state    437 was old state    438
 New state    438 was old state    437
 New state    439 was old state    445
 New state    440 was old state    457
 New state    441 was old state    443
 New state    442 was old state    444
 New state    443 was old state    442
 New state    444 was old state    449
 New state    445 was old state    446
 New state    446 was old state    448
 New state    448 was old state    450
 New state    449 was old state    451
 New state    450 was old state    459
 New state    451 was old state    452
 New state    452 was old state    453
 New state    453 was old state    454
 New state    454 was old state    456
 New state    455 was old state    458
 New state    456 was old state    455
 New state    457 was old state    460
 New state    458 was old state    461
 No map to state    459
 New state    460 was old state    464
 New state    461 was old state    462
 New state    462 was old state    463
 New state    463 was old state    465
 New state    464 was old state    466
 New state    465 was old state    467
 New state    466 was old state    468
 New state    467 was old state    474
 New state    468 was old state    470
 New state    469 was old state    471
 New state    470 was old state    472
 New state    471 was old state    469
 New state    472 was old state    473
 New state    473 was old state    475
 New state    474 was old state    477
 New state    475 was old state    476
 New state    476 was old state    479
 New state    477 was old state    480
 New state    478 was old state    490
 New state    479 was old state    478
 New state    480 was old state    488
 New state    482 was old state    483
 New state    483 was old state    484
 New state    484 was old state    486
 New state    486 was old state    489
 New state    488 was old state    482
 New state    489 was old state    491
 New state    490 was old state    494
 New state    491 was old state    492
 New state    492 was old state    493
 New state    493 was old state    496
 New state    494 was old state    495
 New state    495 was old state    499
 New state    496 was old state    500
 New state    499 was old state    501
 New state    500 was old state    505
 New state    501 was old state    502
 New state    502 was old state    504
 New state    503 was old state    512
 New state    504 was old state    506
 New state    505 was old state    507
 New state    506 was old state    503
 New state    507 was old state    508
 New state    508 was old state    509
 New state    509 was old state    511
 New state    511 was old state    513
 New state    512 was old state    517
 New state    513 was old state    514
 New state    514 was old state    516
 New state    516 was old state    519
 New state    517 was old state    520
 New state    519 was old state    521
 New state    520 was old state    529
 New state    521 was old state    524
 New state    523 was old state    526
 New state    524 was old state    527
 New state    525 was old state    523
 New state    526 was old state    525
 New state    527 was old state    530
 New state    529 was old state    531
 New state    530 was old state    533
 New state    531 was old state    532
 New state    532 was old state    542
 New state    533 was old state    535
 New state    535 was old state    536
 New state    536 was old state    537
 New state    537 was old state    538
 New state    538 was old state    539
 New state    539 was old state    540
 New state    540 was old state    541
 New state    541 was old state    543
 New state    542 was old state    545
 New state    543 was old state    544
 New state    544 was old state    546
 New state    545 was old state    551
 New state    546 was old state    548
 New state    547 was old state    549
 New state    548 was old state    553
 New state    549 was old state    547
 New state    550 was old state    552
 New state    551 was old state    550
 New state    552 was old state    554
 New state    553 was old state    556
 New state    554 was old state    557
 New state    556 was old state    558
 New state    557 was old state    560
 New state    558 was old state    562
 New state    559 was old state    561
 New state    560 was old state    559
 New state    561 was old state    572
 New state    562 was old state    564
 New state    564 was old state    565
 New state    565 was old state    568
 New state    566 was old state    567
 New state    567 was old state    566
 New state    568 was old state    569
 New state    569 was old state    571
 New state    571 was old state    573
 New state    572 was old state    583
 New state    573 was old state    576
 New state    574 was old state    575
 New state    575 was old state    574
 New state    576 was old state    577
 New state    577 was old state    578
 No map to state    578
 New state    580 was old state    581
 New state    581 was old state    582
 New state    582 was old state    585
 New state    583 was old state    584
 New state    584 was old state    586
 New state    585 was old state    594
 New state    586 was old state    587
 New state    587 was old state    589
 New state    589 was old state    590
 New state    590 was old state    591
 New state    591 was old state    593
 New state    592 was old state    597
 New state    593 was old state    592
 New state    594 was old state    596
 No map to state    595
 New state    596 was old state    595
 New state    597 was old state    610
 New state    598 was old state    600
 New state    599 was old state    598
 New state    600 was old state    599
 New state    601 was old state    602
 New state    602 was old state    601
 New state    603 was old state    604
 New state    604 was old state    603
 New state    607 was old state    608
 New state    608 was old state    607
 New state    610 was old state    612
 New state    611 was old state    617
 New state    612 was old state    611
 New state    614 was old state    615
 New state    615 was old state    616
 New state    616 was old state    619
 New state    617 was old state    614
 New state    618 was old state    623
 New state    619 was old state    618
 No map to state    623
 New state    626 was old state    628
 New state    628 was old state    626
 New state    629 was old state    630
 New state    630 was old state    631
 New state    631 was old state    629
 New state    633 was old state    634
 New state    634 was old state    635
 New state    635 was old state    636
 New state    636 was old state    633
 New state    638 was old state    641
 New state    641 was old state    638
 New state    642 was old state    643
 New state    643 was old state    642
 New state    648 was old state    651
 New state    649 was old state    653
 New state    650 was old state    652
 New state    651 was old state    649
 New state    652 was old state    650
 New state    653 was old state    648
 New state    659 was old state    664
 New state    660 was old state    663
 New state    661 was old state    659
 New state    663 was old state    661
 New state    664 was old state    665
 New state    665 was old state    667
 New state    666 was old state    660
 New state    667 was old state    668
 New state    668 was old state    669
 New state    669 was old state    670
 New state    670 was old state    671
 New state    671 was old state    673
 New state    672 was old state    675
 New state    673 was old state    674
 New state    674 was old state    672
 New state    675 was old state    676
 New state    676 was old state    680
 New state    680 was old state    681
 New state    681 was old state    687
 New state    685 was old state    686
 New state    686 was old state    685
 New state    687 was old state    688
 New state    688 was old state    689
 New state    689 was old state    691
 New state    691 was old state    694
 New state    694 was old state    695
 New state    695 was old state    696
 New state    696 was old state    697
 New state    697 was old state    699
 New state    699 was old state    700
 New state    700 was old state    701
 New state    701 was old state    704
 New state    703 was old state    705
 New state    704 was old state    703
 No map to state    705
 New state    707 was old state    708
 New state    708 was old state    707
 New state    717 was old state    718
 New state    718 was old state    717
 New state    721 was old state    722
 New state    722 was old state    721
 New state    724 was old state    725
 New state    725 was old state    724
 New state    731 was old state    733
 New state    733 was old state    731
 New state    735 was old state    736
 New state    736 was old state    737
 New state    737 was old state    735
 New state    739 was old state    740
 New state    740 was old state    739
 New state    742 was old state    744
 New state    744 was old state    745
 New state    745 was old state    742
 New state    747 was old state    749
 New state    748 was old state    747
 New state    749 was old state    748
 New state    750 was old state    751
 New state    751 was old state    750
 New state    754 was old state    755
 New state    755 was old state    754
 New state    761 was old state    762
 New state    762 was old state    763
 New state    763 was old state    761
 New state    770 was old state    771
 New state    771 was old state    770
 New state    779 was old state    780
 New state    780 was old state    779
 New state    781 was old state    782
 New state    782 was old state    781
 New state    787 was old state    788
 New state    788 was old state    787
 New state    789 was old state    790
 New state    790 was old state    789
 New state    796 was old state    797
 New state    797 was old state    796
 New state    804 was old state    805
 New state    805 was old state    804
 New state    806 was old state    807
 New state    807 was old state    806
 New state    808 was old state    809
 New state    809 was old state    808
 New state    818 was old state    819
 New state    819 was old state    818
 New state    829 was old state    830
 New state    830 was old state    829
 New state    841 was old state    842
 New state    842 was old state    841
 Excitation Energies [eV] at current iteration:
 Root      1 :     6.786394656993970
 Root      2 :     7.400406899022340
 Root      3 :     7.560817533743722
 Root      4 :     7.594371759962496
 Root      5 :     7.674058460323522
 Root      6 :     8.265812159696891
 Root      7 :     8.675559368017771
 Root      8 :     8.683632577484042
 Root      9 :     8.856929545490861
 Root     10 :     9.150055560832493
 Root     11 :     9.381544974421535
 Root     12 :     9.442257536496362
 Root     13 :     9.529660234085052
 Root     14 :     9.641393245190393
 Root     15 :     9.719856526347609
 Root     16 :     9.842190448140364
 Root     17 :     9.997105238997570
 Root     18 :    10.120457526938350
 Root     19 :    10.166493489741550
 Root     20 :    10.185022141198410
 Root     21 :    10.424703730876320
 Root     22 :    10.577188557934830
 Root     23 :    10.602746721055430
 Root     24 :    10.663187144912800
 Root     25 :    10.797429673903400
 Root     26 :    10.879148392046730
 Root     27 :    11.008370217332420
 Root     28 :    11.034547348511760
 Root     29 :    11.279384242772860
 Root     30 :    11.281591830831160
 Root     31 :    11.322473069221280
 Root     32 :    11.348732888573130
 Root     33 :    11.441695039259370
 Root     34 :    11.464770875907350
 Root     35 :    11.569749321739430
 Root     36 :    11.613802030380860
 Root     37 :    11.678644249917080
 Root     38 :    11.749910465185210
 Root     39 :    11.927607571706400
 Root     40 :    12.041422019333910
 Root     41 :    12.133291622674150
 Root     42 :    12.229946141923310
 Root     43 :    12.237911192666720
 Root     44 :    12.385564056307650
 Root     45 :    12.389944954838760
 Root     46 :    12.437372352206800
 Root     47 :    12.555557318988060
 Root     48 :    12.599120337507220
 Root     49 :    12.633832485154530
 Root     50 :    12.684943111749750
 Root     51 :    12.726590463699430
 Root     52 :    12.732316556061260
 Root     53 :    12.822720623323410
 Root     54 :    12.936267585640540
 Root     55 :    12.985253311864630
 Root     56 :    13.065549150270510
 Root     57 :    13.136867437719980
 Root     58 :    13.211668116606190
 Root     59 :    13.221100845577620
 Root     60 :    13.320103241816760
 Root     61 :    13.439478037021200
 Root     62 :    13.482999878084310
 Root     63 :    13.627826196514920
 Root     64 :    13.628874485867040
 Root     65 :    13.706904114706970
 Root     66 :    13.742464746209020
 Root     67 :    13.808424323726820
 Root     68 :    13.829129986158100
 Root     69 :    13.876647061986700
 Root     70 :    13.891837080443720
 Root     71 :    13.936833744683120
 Root     72 :    13.971905866868460
 Root     73 :    14.051354607598320
 Root     74 :    14.118176133676710
 Root     75 :    14.204538638872020
 Root     76 :    14.372022199777530
 Root     77 :    14.381754091650940
 Root     78 :    14.397011714450400
 Root     79 :    14.505952375134190
 Root     80 :    14.534469488670810
 Root     81 :    14.536054712029940
 Root     82 :    14.591760811206670
 Root     83 :    14.681471172439940
 Root     84 :    14.711584370059450
 Root     85 :    14.740683151901110
 Root     86 :    14.810419852283900
 Root     87 :    14.832436890207810
 Root     88 :    14.945475201293960
 Root     89 :    14.945929885105700
 Root     90 :    14.973777611379680
 Root     91 :    14.996856415780360
 Root     92 :    15.167509530825240
 Root     93 :    15.185442256196320
 Root     94 :    15.212984495794560
 Root     95 :    15.311245794401790
 Root     96 :    15.383266943751440
 Root     97 :    15.462232499224370
 Root     98 :    15.508971727983440
 Root     99 :    15.571393591390590
 Root    100 :    15.686597181571600
 Root    101 :    15.725841678113160
 Root    102 :    15.728170375129910
 Root    103 :    15.803870065776940
 Root    104 :    15.825887095964480
 Root    105 :    15.830139280470870
 Root    106 :    15.903770699285280
 Root    107 :    16.000976929838130
 Root    108 :    16.021861275109110
 Root    109 :    16.057929508532440
 Root    110 :    16.095975463565300
 Root    111 :    16.111913377017630
 Root    112 :    16.149250202926060
 Root    113 :    16.237698105624820
 Root    114 :    16.257168420508940
 Root    115 :    16.299617491141850
 Root    116 :    16.319640333845720
 Root    117 :    16.385387235201450
 Root    118 :    16.434168938281370
 Root    119 :    16.448862346270430
 Root    120 :    16.623231149416150
 Root    121 :    16.655568292808040
 Root    122 :    16.791525174057400
 Root    123 :    16.820341378428070
 Root    124 :    16.831342948049600
 Root    125 :    16.934290173243220
 Root    126 :    16.937809827357690
 Root    127 :    16.951790523007920
 Root    128 :    17.011993566142300
 Root    129 :    17.075605004235730
 Root    130 :    17.107330101107970
 Root    131 :    17.161696926784880
 Root    132 :    17.186795407204630
 Root    133 :    17.266553415421220
 Root    134 :    17.332536487412310
 Root    135 :    17.360783263392570
 Root    136 :    17.386356619156630
 Root    137 :    17.480626912213500
 Root    138 :    17.501835170220530
 Root    139 :    17.545827834524630
 Root    140 :    17.624558570667570
 Root    141 :    17.664214802308020
 Root    142 :    17.723746706011900
 Root    143 :    17.782353384764460
 Root    144 :    17.782538514201300
 Root    145 :    17.823089453405810
 Root    146 :    17.850229606585790
 Root    147 :    17.871794919489200
 Root    148 :    17.912128457621710
 Root    149 :    17.913500130443200
 Root    150 :    17.957278733504630
 Root    151 :    17.979934639096190
 Root    152 :    18.070702168837610
 Root    153 :    18.074788093472840
 Root    154 :    18.086456748840320
 Root    155 :    18.154846776076650
 Root    156 :    18.262123610905070
 Root    157 :    18.326409119719420
 Root    158 :    18.374174116963540
 Root    159 :    18.381177799847340
 Root    160 :    18.418087929713040
 Root    161 :    18.541534180451030
 Root    162 :    18.558488236295230
 Root    163 :    18.614316451953750
 Root    164 :    18.653475448998530
 Root    165 :    18.678228665704470
 Root    166 :    18.687730914101280
 Root    167 :    18.714951362130310
 Root    168 :    18.737959513154570
 Root    169 :    18.817715997169570
 Root    170 :    18.940173779156900
 Root    171 :    18.961060219738780
 Root    172 :    18.995200292191550
 Root    173 :    19.001268211000920
 Root    174 :    19.007630577036860
 Root    175 :    19.068671182264990
 Root    176 :    19.106623227092150
 Root    177 :    19.152132327744900
 Root    178 :    19.175312750874960
 Root    179 :    19.226683854889910
 Root    180 :    19.241701507175750
 Root    181 :    19.323359835700450
 Root    182 :    19.350047048526470
 Root    183 :    19.368891606175540
 Root    184 :    19.426412553312380
 Root    185 :    19.496893300204670
 Root    186 :    19.545496807752460
 Root    187 :    19.564291847815490
 Root    188 :    19.645242125875040
 Root    189 :    19.667374579889240
 Root    190 :    19.702997683039290
 Root    191 :    19.724088102755060
 Root    192 :    19.739347273323410
 Root    193 :    19.787783438536760
 Root    194 :    19.800911071937190
 Root    195 :    19.826049598968720
 Root    196 :    19.838637843543290
 Root    197 :    19.863654693209060
 Root    198 :    19.913084568593680
 Root    199 :    19.918477823130540
 Root    200 :    19.951728692391730
 Root    201 :    20.035816953795570
 Root    202 :    20.035874668519840
 Root    203 :    20.052901157084830
 Root    204 :    20.117367970938780
 Root    205 :    20.135036434383770
 Root    206 :    20.196567247805180
 Root    207 :    20.234117969416910
 Root    208 :    20.357522192003200
 Root    209 :    20.358256221498680
 Root    210 :    20.370975754668900
 Root    211 :    20.409512508004710
 Root    212 :    20.439807310820700
 Root    213 :    20.479435729614250
 Root    214 :    20.521049413586150
 Root    215 :    20.557277299288810
 Root    216 :    20.586374728180190
 Root    217 :    20.643055080752700
 Root    218 :    20.736129170654160
 Root    219 :    20.803981876279540
 Root    220 :    20.809308395491420
 Root    221 :    20.856187284796230
 Root    222 :    20.890907542489850
 Root    223 :    20.905946991393790
 Root    224 :    21.012753849308630
 Root    225 :    21.024357013907380
 Root    226 :    21.068385786849640
 Root    227 :    21.072473076897260
 Root    228 :    21.100423408707040
 Root    229 :    21.127754978038920
 Root    230 :    21.153570338858370
 Root    231 :    21.158885698998240
 Root    232 :    21.197402188492220
 Root    233 :    21.230515667775710
 Root    234 :    21.235148967637640
 Root    235 :    21.271411660976890
 Root    236 :    21.383939822526300
 Root    237 :    21.423409332254340
 Root    238 :    21.552642847020170
 Root    239 :    21.585827775930870
 Root    240 :    21.599690127475050
 Root    241 :    21.606543921646630
 Root    242 :    21.692879197176970
 Root    243 :    21.702340892933080
 Root    244 :    21.758643741578920
 Root    245 :    21.767191889938290
 Root    246 :    21.782692307849850
 Root    247 :    21.825574007943490
 Root    248 :    21.897865843811630
 Root    249 :    21.908693697728220
 Root    250 :    21.949807384258010
 Root    251 :    22.065275148658560
 Root    252 :    22.138748894091790
 Root    253 :    22.153846565227740
 Root    254 :    22.186467493036460
 Root    255 :    22.213150438013390
 Root    256 :    22.267789350501660
 Root    257 :    22.278017550812460
 Root    258 :    22.297501041134640
 Root    259 :    22.301906490725510
 Root    260 :    22.325959876486690
 Root    261 :    22.341707236378220
 Root    262 :    22.387899609384330
 Root    263 :    22.423420332226100
 Root    264 :    22.427838302361970
 Root    265 :    22.463088826023370
 Root    266 :    22.489992039851000
 Root    267 :    22.525626408981830
 Root    268 :    22.557608233183620
 Root    269 :    22.619322636649080
 Root    270 :    22.718183650849520
 Root    271 :    22.763223996253080
 Root    272 :    22.781675332399910
 Root    273 :    22.823950064371100
 Root    274 :    22.913761319872580
 Root    275 :    22.979010142206190
 Root    276 :    23.013487388257700
 Root    277 :    23.044378325631880
 Root    278 :    23.051004939020350
 Root    279 :    23.055325509260770
 Root    280 :    23.114239172975970
 Root    281 :    23.136058227319580
 Root    282 :    23.153069266675050
 Root    283 :    23.188165261269680
 Root    284 :    23.208556136757180
 Root    285 :    23.304340704046560
 Root    286 :    23.351608384091570
 Root    287 :    23.395745730592200
 Root    288 :    23.447042747324220
 Root    289 :    23.541893082874800
 Root    290 :    23.596777130900400
 Root    291 :    23.624739008357550
 Root    292 :    23.641935536199170
 Root    293 :    23.741050047502870
 Root    294 :    23.745216208359390
 Root    295 :    23.771616773500730
 Root    296 :    23.864030017108110
 Root    297 :    23.945872346389590
 Root    298 :    23.969957430941370
 Root    299 :    24.086355072623610
 Root    300 :    24.094525304856060
 Root    301 :    24.132320138002720
 Root    302 :    24.154270547784800
 Root    303 :    24.175099308169070
 Root    304 :    24.223753157612400
 Root    305 :    24.258233906918570
 Root    306 :    24.321690228925290
 Root    307 :    24.400003929983480
 Root    308 :    24.420325831239920
 Root    309 :    24.488149917930120
 Root    310 :    24.520077947300730
 Root    311 :    24.573256778174550
 Root    312 :    24.636356789653560
 Root    313 :    24.776244425545400
 Root    314 :    24.839217593727350
 Root    315 :    24.847590233871300
 Root    316 :    24.869625685945440
 Root    317 :    24.928119747464720
 Root    318 :    24.942346472794360
 Root    319 :    24.991625417230590
 Root    320 :    25.115021541630730
 Root    321 :    25.177173200715450
 Root    322 :    25.296406188582090
 Root    323 :    25.364455151695020
 Root    324 :    25.368256529959150
 Root    325 :    25.501758810853000
 Root    326 :    25.522755884842590
 Root    327 :    25.543254883174470
 Root    328 :    25.582550735616240
 Root    329 :    25.652108931803830
 Root    330 :    25.727824143588130
 Root    331 :    25.765091063864030
 Root    332 :    25.821714232965800
 Root    333 :    25.885515537320060
 Root    334 :    25.939859117240910
 Root    335 :    25.979497123541380
 Root    336 :    26.050633107065700
 Root    337 :    26.101396630370600
 Root    338 :    26.150404022465520
 Root    339 :    26.220478342663920
 Root    340 :    26.272147615450160
 Root    341 :    26.288490848010450
 Root    342 :    26.335598381915030
 Root    343 :    26.369882920422120
 Root    344 :    26.476389651252900
 Root    345 :    26.508142676984440
 Root    346 :    26.596412721160500
 Root    347 :    26.682982859584180
 Root    348 :    26.730252163794740
 Root    349 :    26.783569117068020
 Root    350 :    26.849621667336080
 Root    351 :    26.999995209501240
 Root    352 :    27.335681029129760
 Root    353 :    27.342787523359340
 Root    354 :    27.386233173607520
 Root    355 :    27.421009371088890
 Root    356 :    27.433684280302360
 Root    357 :    27.524155050684140
 Root    358 :    27.541671370162150
 Root    359 :    27.603777125687250
 Root    360 :    27.618627668686540
 Root    361 :    27.636319879832680
 Root    362 :    27.758321813295980
 Root    363 :    27.940112202814660
 Root    364 :    28.054755701974390
 Root    365 :    28.114842965102000
 Root    366 :    28.143846571030170
 Root    367 :    28.251626608436850
 Root    368 :    28.318331288049610
 Root    369 :    28.343252160059810
 Root    370 :    28.695585431538070
 Root    371 :    28.736484520518450
 Root    372 :    28.852409317313010
 Root    373 :    28.881815458980500
 Root    374 :    28.890848015156560
 Root    375 :    28.903521663466910
 Root    376 :    28.943224039503590
 Root    377 :    28.962475766701940
 Root    378 :    29.001421463842020
 Root    379 :    29.220498529156600
 Root    380 :    29.358798565082300
 Root    381 :    29.364241192303200
 Root    382 :    29.416460791258080
 Root    383 :    29.662243865367260
 Root    384 :    29.665331834233970
 Root    385 :    29.762281090048200
 Root    386 :    29.885013925494220
 Root    387 :    29.975951281899410
 Root    388 :    30.081130928758570
 Root    389 :    30.096941195585560
 Root    390 :    30.173994107182040
 Root    391 :    30.254633687722590
 Root    392 :    30.318015935871040
 Root    393 :    30.544851142094190
 Root    394 :    30.609891435330210
 Root    395 :    30.734373211014830
 Root    396 :    30.804992635341190
 Root    397 :    30.907144290372660
 Root    398 :    30.908205119283900
 Root    399 :    30.939886381277800
 Root    400 :    30.981372146766790
 Root    401 :    30.994344827034700
 Root    402 :    31.082601406185270
 Root    403 :    31.173847896062380
 Root    404 :    31.382486431372230
 Root    405 :    31.455912167392790
 Root    406 :    31.581509299020580
 Root    407 :    31.682373493823820
 Root    408 :    31.694206668010110
 Root    409 :    31.823995525117300
 Root    410 :    31.924266685344940
 Root    411 :    31.960822952876670
 Root    412 :    31.981893159029620
 Root    413 :    32.060723322186440
 Root    414 :    32.176947650842260
 Root    415 :    32.204272667191260
 Root    416 :    32.261459001670780
 Root    417 :    32.274479312514950
 Root    418 :    32.459596719834390
 Root    419 :    32.496683439631480
 Root    420 :    32.555552149819990
 Root    421 :    32.638845736905470
 Root    422 :    32.686829660267410
 Root    423 :    32.710153737517250
 Root    424 :    32.833650603245320
 Root    425 :    32.960901718603900
 Root    426 :    33.012371711379990
 Root    427 :    33.250048678585660
 Root    428 :    33.307814957056560
 Root    429 :    33.483789066224230
 Root    430 :    33.511373145652530
 Root    431 :    33.538899201240010
 Root    432 :    33.601783097326920
 Root    433 :    33.771212293619340
 Root    434 :    33.906531279615070
 Root    435 :    33.943884602675080
 Root    436 :    34.059510838053480
 Root    437 :    34.106558124540680
 Root    438 :    34.174444985994840
 Root    439 :    34.212888121637860
 Root    440 :    34.249330216648090
 Root    441 :    34.249525103422360
 Root    442 :    34.310120715796570
 Root    443 :    34.418618359494360
 Root    444 :    34.536180814362910
 Root    445 :    34.592672340297260
 Root    446 :    34.660689861441340
 Root    447 :    34.741397306838870
 Root    448 :    34.908451396807710
 Root    449 :    35.053503323698030
 Root    450 :    35.073410119308310
 Root    451 :    35.093587773329550
 Root    452 :    35.158415915574230
 Root    453 :    35.211697518299680
 Root    454 :    35.292064362313600
 Root    455 :    35.399923731738710
 Root    456 :    35.440907690490380
 Root    457 :    35.557496822826560
 Root    458 :    35.598867699914780
 Root    459 :    35.676380848011970
 Root    460 :    35.840139002804630
 Root    461 :    35.922998929613100
 Root    462 :    35.950613384312370
 Root    463 :    35.966774584066290
 Root    464 :    36.144875070806090
 Root    465 :    36.281074602523450
 Root    466 :    36.370599678735140
 Root    467 :    36.560089512990950
 Root    468 :    36.662833296617890
 Root    469 :    36.710489349705560
 Root    470 :    36.774387035286260
 Root    471 :    36.849633595907680
 Root    472 :    36.869343828193490
 Root    473 :    37.000395179238500
 Root    474 :    37.093605475016130
 Root    475 :    37.242450328310390
 Root    476 :    37.332469772483860
 Root    477 :    37.445457798493730
 Root    478 :    37.486591143147900
 Root    479 :    37.677192435112880
 Root    480 :    37.722714122341780
 Root    481 :    37.832226505198470
 Root    482 :    37.967973861252400
 Root    483 :    38.003028146252840
 Root    484 :    38.148577737267440
 Root    485 :    38.161945340763130
 Root    486 :    38.188320426203670
 Root    487 :    38.276047541158330
 Root    488 :    38.373336072936920
 Root    489 :    38.648946701329980
 Root    490 :    38.681644174322660
 Root    491 :    38.704992277273330
 Root    492 :    38.799165482040780
 Root    493 :    38.894650720452430
 Root    494 :    39.123085617034600
 Root    495 :    39.250768252011750
 Root    496 :    39.417356930638140
 Root    497 :    39.509051242729110
 Root    498 :    39.589016744821510
 Root    499 :    39.761676286570510
 Root    500 :    39.875477954989150
 Root    501 :    39.956330938024540
 Root    502 :    39.971423335642740
 Root    503 :    40.011627752891880
 Root    504 :    40.232586992308060
 Root    505 :    40.410187019985730
 Root    506 :    40.438627069140700
 Root    507 :    40.469741528268770
 Root    508 :    40.604971207245040
 Root    509 :    40.705776659507240
 Root    510 :    40.842196969673690
 Root    511 :    40.973087830138910
 Root    512 :    41.123396430233360
 Root    513 :    41.128714623316130
 Root    514 :    41.246473555718970
 Root    515 :    41.315803003157110
 Root    516 :    41.435781885838350
 Root    517 :    41.456113212735520
 Root    518 :    41.761032319979410
 Root    519 :    42.014435083880900
 Root    520 :    42.166522939191470
 Root    521 :    42.300077100176620
 Root    522 :    42.300609453766330
 Root    523 :    42.474289208040930
 Root    524 :    42.529866701607730
 Root    525 :    42.588424571427270
 Root    526 :    42.607074184591730
 Root    527 :    42.912974616157830
 Root    528 :    42.922905431416140
 Root    529 :    42.990656902592070
 Root    530 :    43.019136582863550
 Root    531 :    43.282634779545510
 Root    532 :    43.484146689213600
 Root    533 :    43.578205722836560
 Root    534 :    43.874059470747220
 Root    535 :    43.945127287192290
 Root    536 :    44.008153696165870
 Root    537 :    44.185712423999740
 Root    538 :    44.366950364467570
 Root    539 :    44.513462293584440
 Root    540 :    44.528932450278060
 Root    541 :    44.665811150886890
 Root    542 :    44.812469409506190
 Root    543 :    45.018566621043820
 Root    544 :    45.230637386317980
 Root    545 :    45.312369180195720
 Root    546 :    45.527444262032190
 Root    547 :    45.773029523912090
 Root    548 :    45.926709067854030
 Root    549 :    46.087701239757750
 Root    550 :    46.100673328027990
 Root    551 :    46.259170214970650
 Root    552 :    46.437600441321420
 Root    553 :    46.654959667549060
 Root    554 :    46.917968763292190
 Root    555 :    46.952765322549060
 Root    556 :    47.359392872953800
 Root    557 :    47.561747268142150
 Root    558 :    47.762139223586470
 Root    559 :    47.810096882478850
 Root    560 :    47.844775128434100
 Root    561 :    47.918881030186260
 Root    562 :    48.002579666550630
 Root    563 :    48.285767273462850
 Root    564 :    48.486593051040740
 Root    565 :    48.685194581863360
 Root    566 :    49.172629979744850
 Root    567 :    49.280444079638800
 Root    568 :    49.374793121369140
 Root    569 :    49.401846673827500
 Root    570 :    49.590404465570160
 Root    571 :    49.610348998138390
 Root    572 :    49.809128887158780
 Root    573 :    49.937598068487820
 Root    574 :    50.053780589600040
 Root    575 :    50.390248842117670
 Root    576 :    50.390906995077310
 Root    577 :    50.509609704056170
 Root    578 :    50.628453750805400
 Root    579 :    50.764239654672620
 Root    580 :    50.829515795009560
 Root    581 :    51.065014872578290
 Root    582 :    51.394767850916550
 Root    583 :    51.605256924642500
 Root    584 :    51.766920797496230
 Root    585 :    51.873077701225100
 Root    586 :    52.084293411885150
 Root    587 :    52.344179605768190
 Root    588 :    52.584081683115170
 Root    589 :    52.708129245182500
 Root    590 :    52.830422587251010
 Root    591 :    52.888631852605770
 Root    592 :    52.974822575761000
 Root    593 :    53.023092248250830
 Root    594 :    53.064650105608070
 Root    595 :    53.222461668415780
 Root    596 :    53.310147997139900
 Root    597 :    53.551845423275930
 Root    598 :    54.038358081724920
 Root    599 :    54.080207000730520
 Root    600 :    54.302016351451040
 Root    601 :    54.474235682636060
 Root    602 :    54.612103166177670
 Root    603 :    54.665436227077880
 Root    604 :    54.774148691482660
 Root    605 :    55.037703702893580
 Root    606 :    55.164222640631990
 Root    607 :    55.245139300210890
 Root    608 :    55.495297311584840
 Root    609 :    55.568012363824020
 Root    610 :    55.885605722180460
 Root    611 :    56.017539715634130
 Root    612 :    56.071182820456240
 Root    613 :    56.171937056133440
 Root    614 :    56.265072406598480
 Root    615 :    56.428124535862030
 Root    616 :    56.458271708347640
 Root    617 :    56.592188096266550
 Root    618 :    56.682659528744210
 Root    619 :    56.808542290159970
 Root    620 :    56.983297056513150
 Root    621 :    57.180754560002840
 Root    622 :    57.428532625853490
 Root    623 :    57.452312424774700
 Root    624 :    57.577496656262170
 Root    625 :    57.744410906518840
 Root    626 :    57.810855938995460
 Root    627 :    57.848777360910660
 Root    628 :    58.004160397682230
 Root    629 :    58.096618490504460
 Root    630 :    58.175815895941110
 Root    631 :    58.240966664821860
 Root    632 :    58.334652102221130
 Root    633 :    58.545710797218770
 Root    634 :    58.562471688607380
 Root    635 :    58.774271524773800
 Root    636 :    58.807911891248560
 Root    637 :    59.037426285063170
 Root    638 :    59.276078014244260
 Root    639 :    59.287378456047990
 Root    640 :    59.364596276418170
 Root    641 :    59.364927955236160
 Root    642 :    59.460712694124570
 Root    643 :    59.676331710993460
 Root    644 :    59.684964024808020
 Root    645 :    59.734595214205490
 Root    646 :    59.822884986227790
 Root    647 :    60.173626756758570
 Root    648 :    60.283104887170310
 Root    649 :    60.297011165832950
 Root    650 :    60.401934514739190
 Root    651 :    60.451396069183580
 Root    652 :    60.517269664254680
 Root    653 :    60.601846937699820
 Root    654 :    60.661893743917220
 Root    655 :    60.800489044407890
 Root    656 :    60.840606611943410
 Root    657 :    61.073744167799620
 Root    658 :    61.229098079105760
 Root    659 :    61.470402303409560
 Root    660 :    61.529131117650760
 Root    661 :    61.567867940924720
 Root    662 :    61.587396110893030
 Root    663 :    61.632996763302890
 Root    664 :    61.711256140489510
 Root    665 :    61.804534153134990
 Root    666 :    61.865011524044260
 Root    667 :    62.001218184119120
 Root    668 :    62.043213248105440
 Root    669 :    62.343207481270400
 Root    670 :    62.529447595473380
 Root    671 :    62.757252464218000
 Root    672 :    62.781086184321530
 Root    673 :    62.958725834063510
 Root    674 :    63.016257124362340
 Root    675 :    63.101455882776290
 Root    676 :    63.123803140511690
 Root    677 :    63.297141406564950
 Root    678 :    63.484093158113680
 Root    679 :    63.699164710686480
 Root    680 :    63.714723598461630
 Root    681 :    63.779520014917390
 Root    682 :    64.020947275566810
 Root    683 :    64.173547900066790
 Root    684 :    64.200977527318000
 Root    685 :    64.429612929804420
 Root    686 :    64.541368982278140
 Root    687 :    64.614706590389660
 Root    688 :    64.817962386129740
 Root    689 :    64.853157380048770
 Root    690 :    64.927233997116030
 Root    691 :    65.248692370928080
 Root    692 :    65.296971939853560
 Root    693 :    65.507018462054630
 Root    694 :    65.920328813162370
 Root    695 :    66.092312119135040
 Root    696 :    66.266998335954950
 Root    697 :    66.366022065695190
 Root    698 :    66.676878734845970
 Root    699 :    66.959182908681560
 Root    700 :    67.013218251894830
 Root    701 :    67.013335158272070
 Root    702 :    67.165034113675960
 Root    703 :    67.343821424871320
 Root    704 :    67.390505618303380
 Root    705 :    67.466647116775760
 Root    706 :    67.842795177155860
 Root    707 :    67.875886247778990
 Root    708 :    68.047427655240360
 Root    709 :    68.091805854096120
 Root    710 :    68.243867317250590
 Root    711 :    68.383030200019850
 Root    712 :    68.638405792761400
 Root    713 :    68.957906535624730
 Root    714 :    69.171559117194690
 Root    715 :    69.367832419229770
 Root    716 :    69.397713971878660
 Root    717 :    69.530350614457350
 Root    718 :    69.639556157808120
 Root    719 :    69.645355247893690
 Root    720 :    69.819228611380810
 Root    721 :    70.007456066508000
 Root    722 :    70.164209037993370
 Root    723 :    70.316154613796910
 Root    724 :    70.491561996735940
 Root    725 :    70.593244680132030
 Root    726 :    70.677767089409900
 Root    727 :    70.737099218741320
 Root    728 :    71.012748355677000
 Root    729 :    71.199065689935210
 Root    730 :    71.308924260639600
 Root    731 :    71.311197073411800
 Root    732 :    71.476512134270690
 Root    733 :    71.581953712822370
 Root    734 :    71.703167187039110
 Root    735 :    71.926524308185360
 Root    736 :    71.944786919522220
 Root    737 :    72.053342231112440
 Root    738 :    72.270724678038660
[...]
     16  -0.504832D-01 -0.110823D+00 -0.136374D+00  0.000000D+00  0.000000D+00
               796           797           798           799           800 
      1  -0.113602D+03 -0.113600D+03 -0.113600D+03 -0.113593D+03 -0.113590D+03
      2   0.313345D-01  0.000000D+00  0.177869D-01 -0.192927D-01  0.000000D+00
      3  -0.315300D-01  0.000000D+00 -0.604432D-02  0.182466D-01  0.000000D+00
      4   0.000000D+00  0.211790D-02  0.000000D+00  0.000000D+00  0.131496D-01
      5  -0.799436D-01  0.000000D+00 -0.213365D-01  0.572847D-01  0.000000D+00
      6   0.705133D-01  0.000000D+00  0.882338D-02 -0.452696D-01  0.000000D+00
      7   0.000000D+00 -0.360061D-02  0.000000D+00  0.000000D+00 -0.281920D-01
      8   0.000000D+00 -0.120546D-01  0.000000D+00  0.000000D+00 -0.100775D+00
      9   0.000000D+00  0.656210D-01  0.000000D+00  0.000000D+00  0.298549D+00
     10  -0.209277D+00  0.000000D+00 -0.246823D+00 -0.250688D+00  0.000000D+00
     11  -0.498231D+00  0.000000D+00 -0.146234D+00  0.405240D+00  0.000000D+00
     12  -0.498233D-01  0.000000D+00 -0.103771D+00 -0.315775D+00  0.000000D+00
     13  -0.136137D-01  0.000000D+00 -0.186449D+00  0.123692D+00  0.000000D+00
     14  -0.134878D+00  0.000000D+00 -0.269849D+00 -0.301144D+00  0.000000D+00
     15   0.000000D+00 -0.230363D-01  0.000000D+00  0.000000D+00 -0.295124D+00
     16   0.000000D+00 -0.286953D-01  0.000000D+00  0.000000D+00  0.121497D-01
               801           802           803           804           805 
      1  -0.113583D+03 -0.113572D+03 -0.113559D+03 -0.113548D+03 -0.113545D+03
      2   0.000000D+00 -0.900685D-01  0.000000D+00  0.383861D-01  0.672526D-01
      3   0.000000D+00  0.491214D-02  0.000000D+00  0.732420D-01 -0.237505D-01
      4   0.670570D-01  0.000000D+00 -0.122783D-01  0.000000D+00  0.000000D+00
      5   0.000000D+00  0.250496D+00  0.000000D+00 -0.111514D+00 -0.176941D+00
      6   0.000000D+00  0.734933D-02  0.000000D+00 -0.199231D+00  0.510859D-01
      7  -0.176635D+00  0.000000D+00  0.378870D-01  0.000000D+00  0.000000D+00
      8   0.311673D-01  0.000000D+00  0.136052D+00  0.000000D+00  0.000000D+00
      9   0.685516D+00  0.000000D+00 -0.882075D-01  0.000000D+00  0.000000D+00
     10   0.000000D+00 -0.249894D+00  0.000000D+00 -0.144200D-01 -0.683621D-01
     11   0.000000D+00  0.510529D-01  0.000000D+00 -0.503775D+00  0.143744D+00
     12   0.000000D+00 -0.150223D+00  0.000000D+00  0.285503D-01 -0.712181D-01
     13   0.000000D+00  0.156278D-02  0.000000D+00 -0.963111D-02  0.202575D-01
     14   0.000000D+00 -0.141798D+00  0.000000D+00 -0.936675D-02  0.211208D-01
     15  -0.794095D+00  0.000000D+00  0.225480D+00  0.000000D+00  0.000000D+00
     16   0.135818D+00  0.000000D+00  0.157899D+00  0.000000D+00  0.000000D+00
               806           807           808           809           810 
      1  -0.113515D+03 -0.113512D+03 -0.113507D+03 -0.113505D+03 -0.113502D+03
      2   0.319731D-01  0.112275D-01  0.000000D+00 -0.575707D-02  0.142370D-01
      3  -0.451784D-01  0.296089D-01  0.000000D+00  0.556818D-01 -0.224785D-01
      4   0.000000D+00  0.000000D+00 -0.592800D-01  0.000000D+00  0.000000D+00
      5  -0.857586D-01 -0.448276D-01  0.000000D+00  0.426325D-02 -0.350369D-01
      6   0.129634D+00 -0.908856D-01  0.000000D+00 -0.136252D+00  0.644520D-01
      7   0.000000D+00  0.000000D+00  0.138408D+00  0.000000D+00  0.000000D+00
      8   0.000000D+00  0.000000D+00 -0.936544D-01  0.000000D+00  0.000000D+00
      9   0.000000D+00  0.000000D+00  0.293970D+00  0.000000D+00  0.000000D+00
     10  -0.126861D-01 -0.143061D+00  0.000000D+00 -0.486961D-01 -0.316424D-01
     11  -0.492794D-01 -0.131746D+00  0.000000D+00 -0.374402D+00  0.312959D+00
     12   0.338884D-01 -0.329461D+00  0.000000D+00  0.911799D-02 -0.102044D+00
     13   0.596673D-02 -0.211651D-01  0.000000D+00 -0.101008D+00  0.349320D-01
     14  -0.101645D+00 -0.105566D+00  0.000000D+00 -0.929970D-01 -0.236784D+00
     15   0.000000D+00  0.000000D+00 -0.367643D+00  0.000000D+00  0.000000D+00
     16   0.000000D+00  0.000000D+00 -0.307732D+00  0.000000D+00  0.000000D+00
               811           812           813           814           815 
      1  -0.113490D+03 -0.113485D+03 -0.113480D+03 -0.113471D+03 -0.113453D+03
      2  -0.536089D-01 -0.118221D-01  0.335160D-01  0.000000D+00 -0.416319D-03
      3  -0.156128D+00 -0.117095D-01 -0.690727D-01  0.000000D+00  0.167472D-01
      4   0.000000D+00  0.000000D+00  0.000000D+00  0.373447D-01  0.000000D+00
      5   0.160397D+00  0.196158D-01 -0.973549D-01  0.000000D+00  0.169299D-01
      6   0.410064D+00  0.254303D-01  0.183984D+00  0.000000D+00 -0.436864D-01
      7   0.000000D+00  0.000000D+00  0.000000D+00 -0.902672D-01  0.000000D+00
      8   0.000000D+00  0.000000D+00  0.000000D+00 -0.948205D-01  0.000000D+00
      9   0.000000D+00  0.000000D+00  0.000000D+00  0.490187D-01  0.000000D+00
     10   0.146898D+00 -0.298520D+00  0.643635D-01  0.000000D+00 -0.229846D+00
     11  -0.715762D+00  0.690091D+00 -0.800891D-01  0.000000D+00 -0.311960D+00
     12  -0.197998D-01 -0.235763D+00  0.227103D+00  0.000000D+00 -0.256362D+00
     13   0.122126D-01  0.130922D+00  0.385807D-01  0.000000D+00 -0.208240D+00
     14  -0.253052D-01 -0.436395D-01  0.133522D+00  0.000000D+00 -0.436451D+00
     15   0.000000D+00  0.000000D+00  0.000000D+00 -0.521258D-01  0.000000D+00
     16   0.000000D+00  0.000000D+00  0.000000D+00 -0.313132D+00  0.000000D+00
               816           817           818           819           820 
      1  -0.113449D+03 -0.113441D+03 -0.113435D+03 -0.113429D+03 -0.113417D+03
      2   0.000000D+00  0.000000D+00 -0.163360D-01  0.868944D-01  0.207815D-01
      3   0.000000D+00  0.000000D+00 -0.110189D-01 -0.392082D-01 -0.275571D-01
      4  -0.162463D-01 -0.300705D-01  0.000000D+00  0.000000D+00  0.000000D+00
      5   0.000000D+00  0.000000D+00  0.477827D-01 -0.231174D+00 -0.637759D-01
      6   0.000000D+00  0.000000D+00  0.506159D-01  0.881610D-01  0.614159D-01
      7   0.532735D-01  0.906675D-01  0.000000D+00  0.000000D+00  0.000000D+00
      8   0.159007D-01  0.460732D-01  0.000000D+00  0.000000D+00  0.000000D+00
      9   0.104747D+00  0.458531D+00  0.000000D+00  0.000000D+00  0.000000D+00
     10   0.000000D+00  0.000000D+00  0.634316D-02  0.152063D+00  0.203190D+00
     11   0.000000D+00  0.000000D+00 -0.838234D+00 -0.332937D+00  0.490570D+00
     12   0.000000D+00  0.000000D+00 -0.177347D+00  0.100181D+00  0.180919D+00
     13   0.000000D+00  0.000000D+00  0.673568D-01  0.281793D-01 -0.116474D+00
     14   0.000000D+00  0.000000D+00 -0.205943D+00 -0.162990D+00  0.162556D+00
     15  -0.221215D+00 -0.488651D+00  0.000000D+00  0.000000D+00  0.000000D+00
     16   0.749724D-01  0.829670D-01  0.000000D+00  0.000000D+00  0.000000D+00
               821           822           823           824           825 
      1  -0.113417D+03 -0.113393D+03 -0.113386D+03 -0.113385D+03 -0.113377D+03
      2   0.000000D+00 -0.555839D-01  0.000000D+00  0.382848D-01  0.000000D+00
      3   0.000000D+00 -0.133472D-01  0.000000D+00  0.124920D-01  0.000000D+00
      4   0.199301D-01  0.000000D+00 -0.987389D-01  0.000000D+00 -0.292040D-01
      5   0.000000D+00  0.145216D+00  0.000000D+00 -0.112917D+00  0.000000D+00
      6   0.000000D+00  0.272075D-01  0.000000D+00 -0.430790D-01  0.000000D+00
      7  -0.497115D-01  0.000000D+00  0.278625D+00  0.000000D+00  0.793388D-01
      8   0.765219D-01  0.000000D+00 -0.234178D+00  0.000000D+00 -0.463246D-01
      9  -0.188688D+00  0.000000D+00  0.588943D+00  0.000000D+00  0.184209D+00
     10   0.000000D+00  0.115197D+00  0.000000D+00 -0.491803D-01  0.000000D+00
     11   0.000000D+00  0.587380D+00  0.000000D+00  0.216599D-01  0.000000D+00
     12   0.000000D+00  0.347769D+00  0.000000D+00  0.458086D-01  0.000000D+00
     13   0.000000D+00 -0.110070D-01  0.000000D+00 -0.664413D-01  0.000000D+00
     14   0.000000D+00  0.233157D+00  0.000000D+00  0.340215D+00  0.000000D+00
     15   0.227015D+00  0.000000D+00 -0.593636D+00  0.000000D+00 -0.194468D+00
     16   0.214474D+00  0.000000D+00 -0.221683D+00  0.000000D+00 -0.104641D+00
               826           827           828           829           830 
      1  -0.113371D+03 -0.113357D+03 -0.113346D+03 -0.113341D+03 -0.113329D+03
      2  -0.293724D-01  0.000000D+00 -0.305821D-01  0.000000D+00 -0.119933D+00
      3   0.100335D+00  0.000000D+00  0.751725D-01  0.000000D+00 -0.779828D-02
      4   0.000000D+00 -0.210784D-01  0.000000D+00 -0.353602D-02  0.000000D+00
      5   0.815693D-01  0.000000D+00  0.747658D-01  0.000000D+00  0.339000D+00
      6  -0.278467D+00  0.000000D+00 -0.212230D+00  0.000000D+00  0.192495D-01
      7   0.000000D+00  0.635509D-01  0.000000D+00  0.457443D-02  0.000000D+00
      8   0.000000D+00 -0.342357D-01  0.000000D+00 -0.119572D-01  0.000000D+00
      9   0.000000D+00 -0.197618D+00  0.000000D+00  0.957452D-02  0.000000D+00
     10   0.172151D+00  0.000000D+00  0.318587D+00  0.000000D+00  0.275544D+00
     11  -0.230485D+00  0.000000D+00 -0.304909D+00  0.000000D+00 -0.113464D+01
     12   0.119211D+00  0.000000D+00  0.123147D+00  0.000000D+00 -0.651010D-01
     13   0.649420D-01  0.000000D+00 -0.613476D-01  0.000000D+00 -0.308793D-01
     14   0.114262D+00  0.000000D+00  0.136794D+00  0.000000D+00 -0.351740D+00
     15   0.000000D+00  0.218140D+00  0.000000D+00  0.526270D-01  0.000000D+00
     16   0.000000D+00  0.117360D+00  0.000000D+00  0.151513D+00  0.000000D+00
               831           832           833           834           835 
      1  -0.113324D+03 -0.113313D+03 -0.113305D+03 -0.113295D+03 -0.113293D+03
      2  -0.201338D-01  0.571904D-02  0.000000D+00  0.615680D-02  0.000000D+00
      3  -0.895120D-02  0.409806D-01  0.000000D+00  0.464922D-01  0.000000D+00
      4   0.000000D+00  0.000000D+00  0.422658D-01  0.000000D+00  0.838067D-01
      5   0.627942D-01 -0.168807D-01  0.000000D+00 -0.209087D-01  0.000000D+00
      6   0.237903D-01 -0.113724D+00  0.000000D+00 -0.137398D+00  0.000000D+00
      7   0.000000D+00  0.000000D+00 -0.116025D+00  0.000000D+00 -0.242716D+00
      8   0.000000D+00  0.000000D+00  0.164706D+00  0.000000D+00  0.283083D+00
      9   0.000000D+00  0.000000D+00 -0.275157D+00  0.000000D+00 -0.514131D+00
     10  -0.789261D-01  0.283697D+00  0.000000D+00  0.401420D+00  0.000000D+00
     11  -0.603463D+00 -0.573738D+00  0.000000D+00 -0.695440D-02  0.000000D+00
     12  -0.791423D-01  0.176594D+00  0.000000D+00  0.271951D+00  0.000000D+00
     13   0.215115D+00 -0.754104D-01  0.000000D+00  0.624269D-02  0.000000D+00
     14   0.493101D-01  0.184659D+00  0.000000D+00  0.432259D+00  0.000000D+00
     15   0.000000D+00  0.000000D+00  0.238285D+00  0.000000D+00  0.535927D+00
     16   0.000000D+00  0.000000D+00  0.109709D+00  0.000000D+00  0.271705D+00
               836           837           838           839           840 
      1  -0.113281D+03 -0.113263D+03 -0.113258D+03 -0.113252D+03 -0.113228D+03
      2  -0.305502D-01 -0.516043D-02 -0.809309D-02  0.102631D-01  0.000000D+00
      3  -0.562182D-01  0.419484D-01  0.422399D-01 -0.507331D-01  0.000000D+00
      4   0.000000D+00  0.000000D+00  0.000000D+00  0.000000D+00  0.128018D-01
      5   0.971468D-01  0.336126D-02  0.200690D-01 -0.424033D-01  0.000000D+00
      6   0.174102D+00 -0.121353D+00 -0.137541D+00  0.152892D+00  0.000000D+00
      7   0.000000D+00  0.000000D+00  0.000000D+00  0.000000D+00 -0.335971D-01
      8   0.000000D+00  0.000000D+00  0.000000D+00  0.000000D+00  0.519047D-01
      9   0.000000D+00  0.000000D+00  0.000000D+00  0.000000D+00 -0.115768D+00
     10   0.719820D+00 -0.294066D+00  0.302447D-01 -0.126595D+00  0.000000D+00
     11  -0.442811D+00 -0.840512D+00  0.125325D+00 -0.546153D+00  0.000000D+00
     12   0.524759D+00 -0.469371D+00  0.595027D-02 -0.251675D+00  0.000000D+00
     13   0.663082D-01  0.156744D+00  0.415204D-01 -0.576879D-01  0.000000D+00
     14   0.565188D+00 -0.630732D+00  0.146766D+00 -0.214445D+00  0.000000D+00
     15   0.000000D+00  0.000000D+00  0.000000D+00  0.000000D+00  0.779239D-01
     16   0.000000D+00  0.000000D+00  0.000000D+00  0.000000D+00 -0.781919D-02
               841           842           843           844           845 
      1  -0.113220D+03 -0.113218D+03 -0.113208D+03 -0.113196D+03 -0.113184D+03
      2   0.000000D+00 -0.171722D-01  0.114506D-01 -0.311523D-01 -0.178951D-01
      3   0.000000D+00 -0.304411D-01  0.540545D-01 -0.108153D-01 -0.337036D-01
      4   0.238212D-01  0.000000D+00  0.000000D+00  0.000000D+00  0.000000D+00
      5   0.000000D+00  0.575243D-01 -0.354642D-01  0.978300D-01  0.519471D-01
      6   0.000000D+00  0.968955D-01 -0.151803D+00  0.378952D-01  0.999893D-01
      7  -0.692831D-01  0.000000D+00  0.000000D+00  0.000000D+00  0.000000D+00
      8   0.461067D-01  0.000000D+00  0.000000D+00  0.000000D+00  0.000000D+00
      9  -0.219564D+00  0.000000D+00  0.000000D+00  0.000000D+00  0.000000D+00
     10   0.000000D+00  0.121081D+00  0.331912D+00  0.173012D+00 -0.394136D-01
     11   0.000000D+00  0.222660D+00 -0.647461D+00  0.274301D+00 -0.322242D-01
     12   0.000000D+00  0.425659D-01  0.216698D+00 -0.112181D+00 -0.243355D+00
     13   0.000000D+00  0.115474D+00  0.184635D+00  0.455560D-01  0.129794D+00
     14   0.000000D+00  0.284661D+00  0.749670D-01  0.525091D+00  0.205271D-02
     15   0.101813D+00  0.000000D+00  0.000000D+00  0.000000D+00  0.000000D+00
     16  -0.224540D-01  0.000000D+00  0.000000D+00  0.000000D+00  0.000000D+00
               846           847           848           849           850 
      1  -0.113169D+03 -0.113164D+03 -0.113154D+03 -0.113106D+03 -0.113105D+03
      2  -0.802951D-01 -0.267585D-01  0.000000D+00 -0.309470D-01  0.000000D+00
      3  -0.952699D-01  0.150995D-01  0.000000D+00  0.600104D-01  0.000000D+00
      4   0.000000D+00  0.000000D+00  0.199340D-02  0.000000D+00 -0.706418D-01
      5   0.223532D+00  0.965401D-01  0.000000D+00  0.864740D-01  0.000000D+00
      6   0.263862D+00 -0.414603D-01  0.000000D+00 -0.171513D+00  0.000000D+00
      7   0.000000D+00  0.000000D+00 -0.784508D-02  0.000000D+00  0.204336D+00
      8   0.000000D+00  0.000000D+00 -0.216494D-01  0.000000D+00 -0.177512D+00
      9   0.000000D+00  0.000000D+00 -0.393281D-01  0.000000D+00  0.407300D+00
     10   0.144413D+00 -0.356151D+00  0.000000D+00 -0.735740D-01  0.000000D+00
     11   0.144517D-01  0.340638D-01  0.000000D+00  0.704723D-01  0.000000D+00
     12   0.280981D+00 -0.137751D-01  0.000000D+00 -0.405214D-02  0.000000D+00
     13   0.985693D-01  0.104690D-01  0.000000D+00 -0.589973D-01  0.000000D+00
     14   0.101747D+00 -0.488830D+00  0.000000D+00  0.259456D-01  0.000000D+00
     15   0.000000D+00  0.000000D+00  0.303720D-01  0.000000D+00 -0.266580D+00
     16   0.000000D+00  0.000000D+00 -0.881560D-01  0.000000D+00 -0.222424D+00
               851           852           853           854           855 
      1  -0.113095D+03 -0.113074D+03 -0.113063D+03 -0.113052D+03 -0.113016D+03
      2   0.892859D-02  0.166688D-01  0.372454D-01  0.378820D-01  0.000000D+00
      3   0.136346D-01 -0.160599D-01 -0.186578D-01 -0.746253D-02  0.000000D+00
      4   0.000000D+00  0.000000D+00  0.000000D+00  0.000000D+00  0.465523D-02
      5  -0.220563D-01 -0.517764D-01 -0.986943D-01 -0.136724D+00  0.000000D+00
      6  -0.380155D-01  0.449324D-01  0.541326D-01  0.255361D-01  0.000000D+00
      7   0.000000D+00  0.000000D+00  0.000000D+00  0.000000D+00 -0.990623D-02
      8   0.000000D+00  0.000000D+00  0.000000D+00  0.000000D+00 -0.203021D-01
      9   0.000000D+00  0.000000D+00  0.000000D+00  0.000000D+00 -0.194899D-01
     10  -0.128243D+00 -0.114849D+00 -0.435696D+00 -0.564760D+00  0.000000D+00
     11  -0.354719D+00  0.690347D+00  0.546320D+00 -0.228908D+00  0.000000D+00
     12  -0.703817D-01  0.230262D+00 -0.149518D+00 -0.115809D+00  0.000000D+00
     13   0.104728D-01  0.904218D-01 -0.340854D-01 -0.591987D-01  0.000000D+00
     14  -0.208032D-03 -0.118651D+00 -0.194637D+00 -0.522256D+00  0.000000D+00
     15   0.000000D+00  0.000000D+00  0.000000D+00  0.000000D+00 -0.368137D-01
     16   0.000000D+00  0.000000D+00  0.000000D+00  0.000000D+00  0.440375D-01
               856           857           858           859           860 
      1  -0.113011D+03 -0.113000D+03 -0.112977D+03 -0.112969D+03 -0.112958D+03
      2   0.000000D+00  0.643742D-01  0.304313D-01  0.506701D-01  0.601630D-01
      3   0.000000D+00 -0.104475D-01 -0.409324D-01 -0.795996D-01  0.185694D-02
      4  -0.681940D-01  0.000000D+00  0.000000D+00  0.000000D+00  0.000000D+00
      5   0.000000D+00 -0.217205D+00 -0.977856D-01 -0.146540D+00 -0.195207D+00
      6   0.000000D+00  0.296371D-01  0.115884D+00  0.241781D+00 -0.252140D-02
      7   0.199711D+00  0.000000D+00  0.000000D+00  0.000000D+00  0.000000D+00
      8  -0.203792D+00  0.000000D+00  0.000000D+00  0.000000D+00  0.000000D+00
      9   0.441525D+00  0.000000D+00  0.000000D+00  0.000000D+00  0.000000D+00
     10   0.000000D+00  0.598180D+00  0.196246D-01 -0.194440D+00  0.279936D-01
     11   0.000000D+00  0.530796D-01 -0.543902D+00  0.443232D+00 -0.749007D+00
     12   0.000000D+00 -0.136975D+00 -0.111825D+00  0.214604D-01  0.340550D+00
     13   0.000000D+00 -0.772849D-01 -0.823411D-01 -0.873099D-01 -0.215972D-01
     14   0.000000D+00  0.530890D+00 -0.363366D-01 -0.348296D-01 -0.253156D+00
     15  -0.307913D+00  0.000000D+00  0.000000D+00  0.000000D+00  0.000000D+00
     16  -0.239719D+00  0.000000D+00  0.000000D+00  0.000000D+00  0.000000D+00
               861           862           863           864 
      1  -0.112892D+03 -0.112883D+03 -0.112773D+03 -0.112678D+03
      2   0.768531D-02 -0.396277D-01  0.380440D-02 -0.150359D-01
      3  -0.221411D-01  0.229507D-01  0.379979D-01  0.653219D-02
      4   0.000000D+00  0.000000D+00  0.000000D+00  0.000000D+00
      5  -0.250332D-01  0.113076D+00  0.758000D-03  0.565272D-01
      6   0.872087D-01 -0.731671D-01 -0.104353D+00 -0.100037D-01
      7   0.000000D+00  0.000000D+00  0.000000D+00  0.000000D+00
      8   0.000000D+00  0.000000D+00  0.000000D+00  0.000000D+00
      9   0.000000D+00  0.000000D+00  0.000000D+00  0.000000D+00
     10   0.708955D-01 -0.416939D+00 -0.209755D+00  0.291484D+00
     11  -0.410825D+00  0.497588D+00 -0.413082D-02  0.320451D+00
     12   0.304005D-02 -0.304997D+00  0.191754D+00 -0.368354D-01
     13   0.103294D-01 -0.232463D-01 -0.311367D-01 -0.280303D-01
     14  -0.452079D-01 -0.232986D+00 -0.903076D-01  0.461888D+00
     15   0.000000D+00  0.000000D+00  0.000000D+00  0.000000D+00
     16   0.000000D+00  0.000000D+00  0.000000D+00  0.000000D+00
 Unable to Open any file for archive entry.
 1\1\GINC-HEL10\SP\RSVWN5 TD-FC\Gen\C3H6\SABYASACHI\21-Mar-2022\0\\#P T
 D(Nstates=10000) svwn5/Gen SCF(maxcycles=100) Int(Grid=ultrafine)\\xGD
 B7_00001_tier4.com\\0,1\C,0,-1.131573,-0.504386,0.\C,0,0.,0.472223,0.\
 C,0,1.284136,0.150792,0.\H,0,-1.767446,-0.362775,0.877699\H,0,-0.77012
 3,-1.533458,0.\H,0,-1.767446,-0.362775,-0.877699\H,0,-0.276551,1.52346
 5,0.\H,0,1.608435,-0.884556,0.\H,0,2.057749,0.908326,0.\\Version=EM64L
 -G16RevC.01\State=1-A'\HF=-116.6933303\RMSD=1.838e-09\PG=CS [SG(C3H4),
 X(H2)]\\@
 The archive entry for this job was punched.


      HUMANKIND PERIODICALLY GOES THROUGH A SPEEDUP OF ITS AFFAIRS, 
      THEREBY EXPERIENCING THE RACE BETWEEN THE RENEWABLE VITALITY
      OF THE LIVING, AND THE BECKONING VITIATION OF DECADENCE.
      IN THIS PERIODIC RACE, ANY PAUSE BECOMES A LUXURY.
      ONLY THEN CAN ONE REFLECT THAT ALL IS PERMITTED;
      ALL IS POSSIBLE.

                              -- THE APOCRYPHA OF MUAD'DIB
                                 CHILDREN OF DUNE, BY FRANK HERBERT
 Job cpu time:       0 days  0 hours  5 minutes 13.6 seconds.
 Elapsed time:       0 days  0 hours  0 minutes 39.6 seconds.
 File lengths (MBytes):  RWF=    377 Int=      0 D2E=      0 Chk=    240 Scr=      1
 Normal termination of Gaussian 16 at Mon Mar 21 20:09:39 2022.
