 Entering Gaussian System, Link 0=g16
 Input=000031.com
 Output=000031.log
 Initial command:
 /home/sabyasachi/g16/l1.exe "/scratch/sabyasachi/PBS_7975868.helios/Gau-140229.inp" -scrdir="/scratch/sabyasachi/PBS_7975868.helios/"
 Entering Link 1 = /home/sabyasachi/g16/l1.exe PID=    140230.
  
 Copyright (c) 1988-2019, Gaussian, Inc.  All Rights Reserved.
  
 This is part of the Gaussian(R) 16 program.  It is based on
 the Gaussian(R) 09 system (copyright 2009, Gaussian, Inc.),
 the Gaussian(R) 03 system (copyright 2003, Gaussian, Inc.),
 the Gaussian(R) 98 system (copyright 1998, Gaussian, Inc.),
 the Gaussian(R) 94 system (copyright 1995, Gaussian, Inc.),
 the Gaussian 92(TM) system (copyright 1992, Gaussian, Inc.),
 the Gaussian 90(TM) system (copyright 1990, Gaussian, Inc.),
 the Gaussian 88(TM) system (copyright 1988, Gaussian, Inc.),
 the Gaussian 86(TM) system (copyright 1986, Carnegie Mellon
 University), and the Gaussian 82(TM) system (copyright 1983,
 Carnegie Mellon University). Gaussian is a federally registered
 trademark of Gaussian, Inc.
  
 This software contains proprietary and confidential information,
 including trade secrets, belonging to Gaussian, Inc.
  
 This software is provided under written license and may be
 used, copied, transmitted, or stored only in accord with that
 written license.
  
 The following legend is applicable only to US Government
 contracts under FAR:
  
                    RESTRICTED RIGHTS LEGEND
  
 Use, reproduction and disclosure by the US Government is
 subject to restrictions as set forth in subparagraphs (a)
 and (c) of the Commercial Computer Software - Restricted
 Rights clause in FAR 52.227-19.
  
 Gaussian, Inc.
 340 Quinnipiac St., Bldg. 40, Wallingford CT 06492
  
  
 ---------------------------------------------------------------
 Warning -- This program may not be used in any manner that
 competes with the business of Gaussian, Inc. or will provide
 assistance to any competitor of Gaussian, Inc.  The licensee
 of this program is prohibited from giving any competitor of
 Gaussian, Inc. access to this program.  By using this program,
 the user acknowledges that Gaussian, Inc. is engaged in the
 business of creating and licensing software in the field of
 computational chemistry and represents and warrants to the
 licensee that it is not a competitor of Gaussian, Inc. and that
 it will not use this program in any manner prohibited above.
 ---------------------------------------------------------------
  

 Cite this work as:
 Gaussian 16, Revision C.01,
 M. J. Frisch, G. W. Trucks, H. B. Schlegel, G. E. Scuseria, 
 M. A. Robb, J. R. Cheeseman, G. Scalmani, V. Barone, 
 G. A. Petersson, H. Nakatsuji, X. Li, M. Caricato, A. V. Marenich, 
 J. Bloino, B. G. Janesko, R. Gomperts, B. Mennucci, H. P. Hratchian, 
 J. V. Ortiz, A. F. Izmaylov, J. L. Sonnenberg, D. Williams-Young, 
 F. Ding, F. Lipparini, F. Egidi, J. Goings, B. Peng, A. Petrone, 
 T. Henderson, D. Ranasinghe, V. G. Zakrzewski, J. Gao, N. Rega, 
 G. Zheng, W. Liang, M. Hada, M. Ehara, K. Toyota, R. Fukuda, 
 J. Hasegawa, M. Ishida, T. Nakajima, Y. Honda, O. Kitao, H. Nakai, 
 T. Vreven, K. Throssell, J. A. Montgomery, Jr., J. E. Peralta, 
 F. Ogliaro, M. J. Bearpark, J. J. Heyd, E. N. Brothers, K. N. Kudin, 
 V. N. Staroverov, T. A. Keith, R. Kobayashi, J. Normand, 
 K. Raghavachari, A. P. Rendell, J. C. Burant, S. S. Iyengar, 
 J. Tomasi, M. Cossi, J. M. Millam, M. Klene, C. Adamo, R. Cammi, 
 J. W. Ochterski, R. L. Martin, K. Morokuma, O. Farkas, 
 J. B. Foresman, and D. J. Fox, Gaussian, Inc., Wallingford CT, 2019.
 
 ******************************************
 Gaussian 16:  EM64L-G16RevC.01  3-Jul-2019
                21-Mar-2022 
 ******************************************
 %mem=64gb
 %nproc=8
 Will use up to    8 processors via shared memory.
 ---------------------------------------------------------------------
 #P TD(Nstates=10000) svwn5/Gen SCF(maxcycles=100) Int(Grid=ultrafine)
 ---------------------------------------------------------------------
 1/38=1,172=1/1;
 2/12=2,17=6,18=5,40=1/2;
 3/5=7,11=9,25=1,30=1,74=201,75=-5/1,2,3,8;
 4//1;
 5/5=2,7=100,38=5/2;
 8/6=1,10=1,108=10000/1;
 9/41=10000,42=1,70=2/14;
 6/7=2,8=2,9=2,10=2/1;
 99/5=1,9=1/99;
 Leave Link    1 at Mon Mar 21 19:55:12 2022, MaxMem=  8589934592 cpu:               0.3 elap:               0.0
 (Enter /home/sabyasachi/g16/l101.exe)
 ---------------------
 xGDB7_00001_tier4.com
 ---------------------
 Symbolic Z-matrix:
 Charge =  0 Multiplicity = 1
 6                     0.51685   0.69483   0. 
 6                    -0.86017   0.1002    0. 
 6                     0.34331  -0.79502   0. 
 1                     0.86651   1.16486   0.90918 
 1                     0.86651   1.16486  -0.90918 
 1                    -1.44205   0.16796  -0.90918 
 1                    -1.44205   0.16797   0.90918 
 1                     0.57557  -1.33284  -0.90918 
 1                     0.57557  -1.33284   0.90918 
 
 ITRead=  0  0  0  0  0  0  0  0  0
 MicOpt= -1 -1 -1 -1 -1 -1 -1 -1 -1
 NAtoms=      9 NQM=        9 NQMF=       0 NMMI=      0 NMMIF=      0
                NMic=       0 NMicF=      0.
                    Isotopes and Nuclear Properties:
 (Nuclear quadrupole moments (NQMom) in fm**2, nuclear magnetic moments (NMagM)
  in nuclear magnetons)

  Atom         1           2           3           4           5           6           7           8           9
 IAtWgt=          12          12          12           1           1           1           1           1           1
 AtmWgt=  12.0000000  12.0000000  12.0000000   1.0078250   1.0078250   1.0078250   1.0078250   1.0078250   1.0078250
 NucSpn=           0           0           0           1           1           1           1           1           1
 AtZEff=  -0.0000000  -0.0000000  -0.0000000  -0.0000000  -0.0000000  -0.0000000  -0.0000000  -0.0000000  -0.0000000
 NQMom=    0.0000000   0.0000000   0.0000000   0.0000000   0.0000000   0.0000000   0.0000000   0.0000000   0.0000000
 NMagM=    0.0000000   0.0000000   0.0000000   2.7928460   2.7928460   2.7928460   2.7928460   2.7928460   2.7928460
 AtZNuc=   6.0000000   6.0000000   6.0000000   1.0000000   1.0000000   1.0000000   1.0000000   1.0000000   1.0000000
 Leave Link  101 at Mon Mar 21 19:55:12 2022, MaxMem=  8589934592 cpu:               0.7 elap:               0.1
 (Enter /home/sabyasachi/g16/l202.exe)
                          Input orientation:                          
 ---------------------------------------------------------------------
 Center     Atomic      Atomic             Coordinates (Angstroms)
 Number     Number       Type             X           Y           Z
 ---------------------------------------------------------------------
      1          6           0        0.516845    0.694830    0.000000
      2          6           0       -0.860166    0.100195    0.000000
      3          6           0        0.343308   -0.795021    0.000000
      4          1           0        0.866514    1.164858    0.909176
      5          1           0        0.866513    1.164859   -0.909176
      6          1           0       -1.442047    0.167964   -0.909177
      7          1           0       -1.442048    0.167965    0.909176
      8          1           0        0.575574   -1.332837   -0.909179
      9          1           0        0.575574   -1.332837    0.909179
 ---------------------------------------------------------------------
                    Distance matrix (angstroms):
                    1          2          3          4          5
     1  C    0.000000
     2  C    1.499917   0.000000
     3  C    1.499924   1.499920   0.000000
     4  H    1.081571   2.222956   2.222942   0.000000
     5  H    1.081571   2.222955   2.222943   1.818352   0.000000
     6  H    2.222937   1.081564   2.222934   3.103169   2.514607
     7  H    2.222937   1.081564   2.222935   2.514608   3.103169
     8  H    2.222946   2.222957   1.081573   3.103150   2.514584
     9  H    2.222946   2.222957   1.081573   2.514583   3.103151
                    6          7          8          9
     6  H    0.000000
     7  H    1.818353   0.000000
     8  H    2.514597   3.103163   0.000000
     9  H    3.103162   2.514598   1.818358   0.000000
 Stoichiometry    C3H6
 Framework group  CS[SG(C3),X(H6)]
 Deg. of freedom    12
 Full point group                 CS      NOp   2
 Largest Abelian subgroup         CS      NOp   2
 Largest concise Abelian subgroup CS      NOp   2
                         Standard orientation:                         
 ---------------------------------------------------------------------
 Center     Atomic      Atomic             Coordinates (Angstroms)
 Number     Number       Type             X           Y           Z
 ---------------------------------------------------------------------
      1          6           0        0.000000    0.865978    0.000000
      2          6           0        0.749967   -0.432983    0.000000
      3          6           0       -0.749954   -0.432999    0.000000
      4          1           0       -0.000033    1.451806   -0.909176
      5          1           0       -0.000033    1.451806    0.909176
      6          1           0        1.257295   -0.725894    0.909177
      7          1           0        1.257295   -0.725894   -0.909177
      8          1           0       -1.257302   -0.725899    0.909179
      9          1           0       -1.257302   -0.725899   -0.909179
 ---------------------------------------------------------------------
 Rotational constants (GHZ):          20.3211092          20.3210941          12.7163454
 Leave Link  202 at Mon Mar 21 19:55:12 2022, MaxMem=  8589934592 cpu:               0.1 elap:               0.0
 (Enter /home/sabyasachi/g16/l301.exe)
 General basis read from cards:  (5D, 7F)
 Centers:       4      5      6      7      8      9
 S 3 1.00
     Exponent=  1.3010701000D+01 Coefficients=  1.9682158000D-02
     Exponent=  1.9622572000D+00 Coefficients=  1.3796524000D-01
     Exponent=  4.4453796000D-01 Coefficients=  4.7831935000D-01
 S 1 1.00
     Exponent=  1.2194962000D-01 Coefficients=  1.0000000000D+00
 P 1 1.00
     Exponent=  8.0000000000D-01 Coefficients=  1.0000000000D+00
 P 1 1.00
     Exponent=  1.1704099050D-01 Coefficients=  1.0000000000D+00
 ****
 Centers:       1      2      3
 S 5 1.00
     Exponent=  1.2384016938D+03 Coefficients=  5.4568832082D-03
     Exponent=  1.8629004992D+02 Coefficients=  4.0638409211D-02
     Exponent=  4.2251176346D+01 Coefficients=  1.8025593888D-01
     Exponent=  1.1676557932D+01 Coefficients=  4.6315121755D-01
     Exponent=  3.5930506482D+00 Coefficients=  4.4087173314D-01
 S 1 1.00
     Exponent=  4.0245147363D-01 Coefficients=  1.0000000000D+00
 S 1 1.00
     Exponent=  1.3090182668D-01 Coefficients=  1.0000000000D+00
 S 1 1.00
     Exponent=  6.7053540256D-02 Coefficients=  1.0000000000D+00
 P 3 1.00
     Exponent=  9.4680970621D+00 Coefficients=  3.8387871728D-02
     Exponent=  2.0103545142D+00 Coefficients=  2.1117025112D-01
     Exponent=  5.4771004707D-01 Coefficients=  5.1328172114D-01
 P 1 1.00
     Exponent=  1.5268613795D-01 Coefficients=  1.0000000000D+00
 D 1 1.00
     Exponent=  8.0000000000D-01 Coefficients=  1.0000000000D+00
 D 1 1.00
     Exponent=  1.1713185140D-01 Coefficients=  1.0000000000D+00
 ****
 Ernie: Thresh=  0.10000D-02 Tol=  0.10000D-05 Strict=F.
 There are    72 symmetry adapted cartesian basis functions of A'  symmetry.
 There are    42 symmetry adapted cartesian basis functions of A"  symmetry.
 There are    66 symmetry adapted basis functions of A'  symmetry.
 There are    42 symmetry adapted basis functions of A"  symmetry.
   108 basis functions,   156 primitive gaussians,   114 cartesian basis functions
    12 alpha electrons       12 beta electrons
       nuclear repulsion energy        76.0150796331 Hartrees.
 IExCor=  201 DFT=T Ex=S Corr=VWN5 ExCW=0 ScaHFX=  0.000000
 ScaDFX=  1.000000  1.000000  1.000000  1.000000 ScalE2=  1.000000  1.000000
 IRadAn=      5 IRanWt=     -1 IRanGd=            0 ICorTp=0 IEmpDi=  4
 NAtoms=    9 NActive=    9 NUniq=    6 SFac= 2.25D+00 NAtFMM=   60 NAOKFM=F Big=F
 Integral buffers will be    131072 words long.
 Regular integral format.
 Two-electron integral symmetry is turned on.
 Leave Link  301 at Mon Mar 21 19:55:12 2022, MaxMem=  8589934592 cpu:               0.5 elap:               0.1
 (Enter /home/sabyasachi/g16/l302.exe)
 NPDir=0 NMtPBC=     1 NCelOv=     1 NCel=       1 NClECP=     1 NCelD=      1
         NCelK=      1 NCelE2=     1 NClLst=     1 CellRange=     0.0.
 One-electron integrals computed using PRISM.
 One-electron integral symmetry used in STVInt
 NBasis=   108 RedAO= T EigKep=  1.77D-04  NBF=    66    42
 NBsUse=   108 1.00D-06 EigRej= -1.00D+00 NBFU=    66    42
 Precomputing XC quadrature grid using
 IXCGrd= 4 IRadAn=           5 IRanWt=          -1 IRanGd=           0 AccXCQ= 0.00D+00.
 Generated NRdTot=       0 NPtTot=           0 NUsed=           0 NTot=          32
 NSgBfM=   114   114   114   114   114 MxSgAt=     9 MxSgA2=     9.
 Leave Link  302 at Mon Mar 21 19:55:12 2022, MaxMem=  8589934592 cpu:               1.1 elap:               0.2
 (Enter /home/sabyasachi/g16/l303.exe)
 DipDrv:  MaxL=1.
 Leave Link  303 at Mon Mar 21 19:55:12 2022, MaxMem=  8589934592 cpu:               0.2 elap:               0.0
 (Enter /home/sabyasachi/g16/l308.exe)
 Leave Link  308 at Mon Mar 21 19:55:12 2022, MaxMem=  8589934592 cpu:               0.2 elap:               0.1
 (Enter /home/sabyasachi/g16/l401.exe)
 ExpMin= 6.71D-02 ExpMax= 1.24D+03 ExpMxC= 1.86D+02 IAcc=3 IRadAn=         5 AccDes= 0.00D+00
 Harris functional with IExCor=  201 and IRadAn=       5 diagonalized for initial guess.
 HarFok:  IExCor=  201 AccDes= 0.00D+00 IRadAn=         5 IDoV= 1 UseB2=F ITyADJ=14
 ICtDFT=  3500011 ScaDFX=  1.000000  1.000000  1.000000  1.000000
 FoFCou: FMM=F IPFlag=           0 FMFlag=      100000 FMFlg1=           0
         NFxFlg=           0 DoJE=T BraDBF=F KetDBF=T FulRan=T
         wScrn=  0.000000 ICntrl=       500 IOpCl=  0 I1Cent=   200000004 NGrid=           0
         NMat0=    1 NMatS0=      1 NMatT0=    0 NMatD0=    1 NMtDS0=    0 NMtDT0=    0
 Petite list used in FoFCou.
 Harris En= -116.817477429779    
 JPrj=0 DoOrth=F DoCkMO=F.
 Initial guess orbital symmetries:
       Occupied  (A') (A') (A') (A') (A') (A') (A") (A') (A") (A")
                 (A') (A')
       Virtual   (A') (A') (A") (A') (A') (A') (A") (A") (A') (A')
                 (A") (A') (A') (A') (A") (A") (A') (A') (A') (A')
                 (A") (A") (A') (A') (A") (A") (A') (A') (A') (A")
                 (A") (A') (A') (A') (A") (A") (A") (A') (A') (A')
                 (A') (A') (A") (A") (A") (A') (A") (A') (A') (A")
                 (A") (A') (A') (A') (A') (A") (A') (A') (A') (A')
                 (A') (A") (A") (A') (A") (A") (A') (A') (A") (A")
                 (A") (A") (A") (A') (A') (A') (A') (A") (A") (A')
                 (A') (A') (A') (A') (A") (A") (A") (A') (A') (A')
                 (A") (A') (A') (A') (A") (A")
 The electronic state of the initial guess is 1-A'.
 Leave Link  401 at Mon Mar 21 19:55:13 2022, MaxMem=  8589934592 cpu:               1.7 elap:               0.2
 (Enter /home/sabyasachi/g16/l502.exe)
 Keep J ints in memory in symmetry-blocked form, NReq=26033091.
 FoFCou: FMM=F IPFlag=           0 FMFlag=           0 FMFlg1=           0
         NFxFlg=           0 DoJE=F BraDBF=F KetDBF=F FulRan=T
         wScrn=  0.000000 ICntrl=       600 IOpCl=  0 I1Cent=           0 NGrid=           0
         NMat0=    1 NMatS0=   5886 NMatT0=    0 NMatD0=    1 NMtDS0=    0 NMtDT0=    0
 Petite list used in FoFCou.
 Closed shell SCF:
 Using DIIS extrapolation, IDIIS=  1040.
 NGot=  8589934592 LenX=  8581199601 LenY=  8581186164
 Requested convergence on RMS density matrix=1.00D-08 within 100 cycles.
 Requested convergence on MAX density matrix=1.00D-06.
 Requested convergence on             energy=1.00D-06.
 No special actions if energy rises.
 Integral accuracy reduced to 1.0D-05 until final iterations.

 Cycle   1  Pass 0  IDiag  1:
 E= -116.566152005690    
 DIIS: error= 4.24D-02 at cycle   1 NSaved=   1.
 NSaved= 1 IEnMin= 1 EnMin= -116.566152005690     IErMin= 1 ErrMin= 4.24D-02
 ErrMax= 4.24D-02  0.00D+00 EMaxC= 1.00D-01 BMatC= 1.08D-01 BMatP= 1.08D-01
 IDIUse=3 WtCom= 5.76D-01 WtEn= 4.24D-01
 Coeff-Com:  0.100D+01
 Coeff-En:   0.100D+01
 Coeff:      0.100D+01
 Gap=     0.214 Goal=   None    Shift=    0.000
 GapD=    0.214 DampG=1.000 DampE=0.500 DampFc=0.5000 IDamp=-1.
 Damping current iteration by 5.00D-01
 RMSDP=7.32D-03 MaxDP=1.45D-01              OVMax= 2.22D-01

 Cycle   2  Pass 0  IDiag  1:
 E= -116.592336510069     Delta-E=       -0.026184504379 Rises=F Damp=T
 DIIS: error= 1.59D-02 at cycle   2 NSaved=   2.
 NSaved= 2 IEnMin= 2 EnMin= -116.592336510069     IErMin= 2 ErrMin= 1.59D-02
 ErrMax= 1.59D-02  0.00D+00 EMaxC= 1.00D-01 BMatC= 1.49D-02 BMatP= 1.08D-01
 IDIUse=3 WtCom= 8.41D-01 WtEn= 1.59D-01
 Coeff-Com:  0.255D+00 0.745D+00
 Coeff-En:   0.402D+00 0.598D+00
 Coeff:      0.278D+00 0.722D+00
 Gap=     0.273 Goal=   None    Shift=    0.000
 RMSDP=2.04D-03 MaxDP=2.24D-02 DE=-2.62D-02 OVMax= 1.46D-01

 Cycle   3  Pass 0  IDiag  1:
 E= -116.692427334936     Delta-E=       -0.100090824867 Rises=F Damp=F
 DIIS: error= 2.54D-03 at cycle   3 NSaved=   3.
 NSaved= 3 IEnMin= 3 EnMin= -116.692427334936     IErMin= 3 ErrMin= 2.54D-03
 ErrMax= 2.54D-03  0.00D+00 EMaxC= 1.00D-01 BMatC= 4.73D-04 BMatP= 1.49D-02
 IDIUse=3 WtCom= 9.75D-01 WtEn= 2.54D-02
 Coeff-Com:  0.762D-01 0.198D+00 0.726D+00
 Coeff-En:   0.000D+00 0.000D+00 0.100D+01
 Coeff:      0.742D-01 0.193D+00 0.733D+00
 Gap=     0.281 Goal=   None    Shift=    0.000
 RMSDP=9.31D-04 MaxDP=1.91D-02 DE=-1.00D-01 OVMax= 7.26D-03

 Cycle   4  Pass 0  IDiag  1:
 E= -116.692892902663     Delta-E=       -0.000465567728 Rises=F Damp=F
 DIIS: error= 4.07D-04 at cycle   4 NSaved=   4.
 NSaved= 4 IEnMin= 4 EnMin= -116.692892902663     IErMin= 4 ErrMin= 4.07D-04
 ErrMax= 4.07D-04  0.00D+00 EMaxC= 1.00D-01 BMatC= 1.27D-05 BMatP= 4.73D-04
 IDIUse=3 WtCom= 9.96D-01 WtEn= 4.07D-03
 Coeff-Com:  0.259D-02 0.127D-01 0.148D+00 0.837D+00
 Coeff-En:   0.000D+00 0.000D+00 0.000D+00 0.100D+01
 Coeff:      0.258D-02 0.127D-01 0.147D+00 0.838D+00
 Gap=     0.280 Goal=   None    Shift=    0.000
 RMSDP=1.56D-04 MaxDP=3.20D-03 DE=-4.66D-04 OVMax= 1.20D-03

 Cycle   5  Pass 0  IDiag  1:
 E= -116.692907014494     Delta-E=       -0.000014111830 Rises=F Damp=F
 DIIS: error= 1.90D-05 at cycle   5 NSaved=   5.
 NSaved= 5 IEnMin= 5 EnMin= -116.692907014494     IErMin= 5 ErrMin= 1.90D-05
 ErrMax= 1.90D-05  0.00D+00 EMaxC= 1.00D-01 BMatC= 4.48D-08 BMatP= 1.27D-05
 IDIUse=1 WtCom= 1.00D+00 WtEn= 0.00D+00
 Coeff-Com: -0.125D-03-0.106D-03 0.110D-01 0.107D+00 0.882D+00
 Coeff:     -0.125D-03-0.106D-03 0.110D-01 0.107D+00 0.882D+00
 Gap=     0.280 Goal=   None    Shift=    0.000
 RMSDP=9.22D-06 MaxDP=1.71D-04 DE=-1.41D-05 OVMax= 5.78D-05

 Initial convergence to 1.0D-05 achieved.  Increase integral accuracy.
 Cycle   6  Pass 1  IDiag  1:
 E= -116.692908456473     Delta-E=       -0.000001441980 Rises=F Damp=F
 DIIS: error= 3.07D-06 at cycle   1 NSaved=   1.
 NSaved= 1 IEnMin= 1 EnMin= -116.692908456473     IErMin= 1 ErrMin= 3.07D-06
 ErrMax= 3.07D-06  0.00D+00 EMaxC= 1.00D-01 BMatC= 1.44D-09 BMatP= 1.44D-09
 IDIUse=1 WtCom= 1.00D+00 WtEn= 0.00D+00
 Coeff-Com:  0.100D+01
 Coeff:      0.100D+01
 Gap=     0.280 Goal=   None    Shift=    0.000
 RMSDP=9.22D-06 MaxDP=1.71D-04 DE=-1.44D-06 OVMax= 3.03D-05

 Cycle   7  Pass 1  IDiag  1:
 E= -116.692908458738     Delta-E=       -0.000000002265 Rises=F Damp=F
 DIIS: error= 3.39D-06 at cycle   2 NSaved=   2.
 NSaved= 2 IEnMin= 2 EnMin= -116.692908458738     IErMin= 1 ErrMin= 3.07D-06
 ErrMax= 3.39D-06  0.00D+00 EMaxC= 1.00D-01 BMatC= 7.87D-10 BMatP= 1.44D-09
 IDIUse=1 WtCom= 1.00D+00 WtEn= 0.00D+00
 Coeff-Com:  0.397D+00 0.603D+00
 Coeff:      0.397D+00 0.603D+00
 Gap=     0.280 Goal=   None    Shift=    0.000
 RMSDP=3.94D-07 MaxDP=9.35D-06 DE=-2.26D-09 OVMax= 1.06D-05

 Cycle   8  Pass 1  IDiag  1:
 E= -116.692908459295     Delta-E=       -0.000000000557 Rises=F Damp=F
 DIIS: error= 1.94D-06 at cycle   3 NSaved=   3.
 NSaved= 3 IEnMin= 3 EnMin= -116.692908459295     IErMin= 3 ErrMin= 1.94D-06
 ErrMax= 1.94D-06  0.00D+00 EMaxC= 1.00D-01 BMatC= 2.80D-10 BMatP= 7.87D-10
 IDIUse=1 WtCom= 1.00D+00 WtEn= 0.00D+00
 Coeff-Com:  0.439D-03 0.373D+00 0.627D+00
 Coeff:      0.439D-03 0.373D+00 0.627D+00
 Gap=     0.280 Goal=   None    Shift=    0.000
 RMSDP=1.88D-07 MaxDP=3.12D-06 DE=-5.57D-10 OVMax= 3.99D-06

 Cycle   9  Pass 1  IDiag  1:
 E= -116.692908459583     Delta-E=       -0.000000000288 Rises=F Damp=F
 DIIS: error= 1.08D-07 at cycle   4 NSaved=   4.
 NSaved= 4 IEnMin= 4 EnMin= -116.692908459583     IErMin= 4 ErrMin= 1.08D-07
 ErrMax= 1.08D-07  0.00D+00 EMaxC= 1.00D-01 BMatC= 1.31D-12 BMatP= 2.80D-10
 IDIUse=1 WtCom= 1.00D+00 WtEn= 0.00D+00
 Coeff-Com: -0.349D-02 0.134D+00 0.229D+00 0.641D+00
 Coeff:     -0.349D-02 0.134D+00 0.229D+00 0.641D+00
 Gap=     0.280 Goal=   None    Shift=    0.000
 RMSDP=3.43D-08 MaxDP=7.98D-07 DE=-2.88D-10 OVMax= 4.66D-07

 Cycle  10  Pass 1  IDiag  1:
 E= -116.692908459584     Delta-E=       -0.000000000000 Rises=F Damp=F
 DIIS: error= 3.31D-08 at cycle   5 NSaved=   5.
 NSaved= 5 IEnMin= 5 EnMin= -116.692908459584     IErMin= 5 ErrMin= 3.31D-08
 ErrMax= 3.31D-08  0.00D+00 EMaxC= 1.00D-01 BMatC= 1.32D-13 BMatP= 1.31D-12
 IDIUse=1 WtCom= 1.00D+00 WtEn= 0.00D+00
 Coeff-Com: -0.175D-02 0.649D-01 0.110D+00 0.347D+00 0.480D+00
 Coeff:     -0.175D-02 0.649D-01 0.110D+00 0.347D+00 0.480D+00
 Gap=     0.280 Goal=   None    Shift=    0.000
 RMSDP=5.16D-09 MaxDP=1.14D-07 DE=-4.83D-13 OVMax= 1.78D-07

 SCF Done:  E(RS-VWN5) =  -116.692908460     A.U. after   10 cycles
            NFock= 10  Conv=0.52D-08     -V/T= 2.0079
 KE= 1.157759596701D+02 PE=-4.228658579788D+02 EE= 1.143819102161D+02
 Leave Link  502 at Mon Mar 21 19:55:14 2022, MaxMem=  8589934592 cpu:               7.9 elap:               1.1
 (Enter /home/sabyasachi/g16/l801.exe)
 DoSCS=F DFT=T ScalE2(SS,OS)=  1.000000  1.000000
 ExpMin= 6.71D-02 ExpMax= 1.24D+03 ExpMxC= 1.86D+02 IAcc=3 IRadAn=         5 AccDes= 0.00D+00
 HarFok:  IExCor=  205 AccDes= 0.00D+00 IRadAn=         5 IDoV=-2 UseB2=F ITyADJ=14
 ICtDFT= 12500011 ScaDFX=  1.000000  1.000000  1.000000  1.000000
 Largest valence mixing into a core orbital is  8.19D-05
 Largest core mixing into a valence orbital is  1.03D-06
 Range of M.O.s used for correlation:     4   108
 NBasis=   108 NAE=    12 NBE=    12 NFC=     3 NFV=     0
 NROrb=    105 NOA=     9 NOB=     9 NVA=    96 NVB=    96

 **** Warning!!: The largest alpha MO coefficient is  0.36615617D+02

 Leave Link  801 at Mon Mar 21 19:55:14 2022, MaxMem=  8589934592 cpu:               0.6 elap:               0.1
 (Enter /home/sabyasachi/g16/l914.exe)
 RHF ground state
 Keep J ints in memory in symmetry-blocked form, NReq=917737415.
 FoFCou: FMM=F IPFlag=           0 FMFlag=           0 FMFlg1=           0
         NFxFlg=           0 DoJE=F BraDBF=F KetDBF=F FulRan=T
         wScrn=  0.000000 ICntrl=       600 IOpCl=  0 I1Cent=           0 NGrid=           0
         NMat0=    1 NMatS0=   5886 NMatT0=    0 NMatD0=    1 NMtDS0=    0 NMtDT0=    0
 Petite list used in FoFCou.
 MDV=  8589934592 DFT=T DoStab=F Mixed=F DoRPA=T DoScal=T NonHer=F
 Making orbital integer symmetry assigments:
 Orbital symmetries:
       Occupied  (A') (A') (A') (A') (A') (A') (A") (A') (A") (A")
                 (A') (A')
       Virtual   (A') (A') (A') (A") (A') (A') (A") (A") (A') (A')
                 (A') (A') (A") (A") (A") (A') (A') (A') (A') (A')
                 (A") (A") (A') (A') (A") (A") (A') (A') (A') (A")
                 (A") (A') (A') (A') (A") (A") (A") (A') (A') (A')
                 (A') (A') (A") (A") (A") (A") (A') (A') (A') (A")
                 (A") (A') (A') (A') (A') (A") (A') (A') (A') (A')
                 (A') (A") (A") (A") (A") (A') (A') (A') (A") (A")
                 (A") (A") (A") (A') (A') (A') (A') (A") (A") (A')
                 (A') (A') (A') (A') (A") (A") (A") (A') (A') (A')
                 (A") (A') (A') (A') (A") (A")
   864 initial guesses have been made.
 Convergence on wavefunction:    0.001000000000000
 Davidson Disk Diagonalization:  ConvIn= 1.00D-03 SkipCon=T Conv= 1.00D-03.
 Max sub-space:  3456 roots to seek:  1728 dimension of matrix:         1728
 *** WARNING: Number of orthogonal guesses is          864
 Iteration     1 Dimension   864 NMult     0 NNew    864
 CISAX will form   864 AO SS matrices at one time.
 NMat=   864 NSing=   864 JSym2X=-1.
 New state      3 was old state      4
 New state      4 was old state      3
 New state      5 was old state      6
 New state      6 was old state      5
 New state     13 was old state     15
 New state     14 was old state     16
 New state     15 was old state     18
 New state     16 was old state     17
 New state     17 was old state     19
 New state     18 was old state     20
 New state     19 was old state     13
 New state     20 was old state     14
 New state     23 was old state     24
 New state     24 was old state     23
 New state     31 was old state     32
 New state     32 was old state     31
 New state     33 was old state     34
 New state     34 was old state     35
 New state     35 was old state     37
 New state     37 was old state     33
 New state     41 was old state     43
 New state     42 was old state     41
 New state     43 was old state     44
 New state     44 was old state     45
 New state     45 was old state     47
 New state     47 was old state     48
 New state     48 was old state     54
 New state     49 was old state     55
 New state     50 was old state     56
 New state     53 was old state     57
 New state     54 was old state     42
 New state     55 was old state     49
 New state     56 was old state     50
 New state     57 was old state     61
 New state     58 was old state     60
 New state     59 was old state     58
 New state     60 was old state     59
 New state     61 was old state     63
 New state     63 was old state     64
 New state     64 was old state     65
 New state     65 was old state     70
 New state     66 was old state     69
 New state     67 was old state     79
 New state     68 was old state     71
 New state     69 was old state     67
 New state     70 was old state     68
 New state     71 was old state     73
 New state     72 was old state     74
 New state     73 was old state     66
 New state     74 was old state     72
 New state     77 was old state     80
 New state     78 was old state     81
 New state     79 was old state     82
 New state     80 was old state     78
 New state     81 was old state     77
 New state     82 was old state    111
 New state     89 was old state     90
 New state     90 was old state     95
 New state     91 was old state     96
 New state     92 was old state     93
 New state     93 was old state     94
 New state     94 was old state     97
 New state     95 was old state     98
 New state     96 was old state     99
 New state     97 was old state    100
 New state     98 was old state    101
 New state     99 was old state    102
 New state    100 was old state     89
 New state    101 was old state    104
 New state    102 was old state    105
 New state    103 was old state    106
 New state    104 was old state    107
 New state    105 was old state    108
 New state    106 was old state    109
 New state    107 was old state    110
 New state    108 was old state    103
 New state    109 was old state     91
 New state    110 was old state     92
 No map to state    111
 New state    118 was old state    121
 New state    119 was old state    122
 New state    121 was old state    123
 New state    122 was old state    124
 New state    123 was old state    125
 New state    124 was old state    134
 New state    125 was old state    135
 New state    126 was old state    137
 New state    127 was old state    136
 New state    128 was old state    131
 New state    131 was old state    132
 New state    132 was old state    133
 New state    133 was old state    127
 New state    134 was old state    138
 New state    135 was old state    139
 New state    136 was old state    141
 New state    137 was old state    142
 New state    138 was old state    140
 New state    139 was old state    147
 New state    140 was old state    148
 New state    141 was old state    118
 New state    142 was old state    119
 New state    143 was old state    149
 New state    144 was old state    143
 New state    145 was old state    150
 New state    147 was old state    144
 New state    148 was old state    156
 New state    149 was old state    155
 New state    150 was old state    145
 New state    153 was old state    154
 New state    154 was old state    157
 New state    155 was old state    163
 New state    156 was old state    158
 No map to state    157
 New state    158 was old state    153
 New state    159 was old state    160
 New state    160 was old state    159
 New state    163 was old state    171
 New state    165 was old state    169
 New state    166 was old state    165
 New state    169 was old state    170
 New state    170 was old state    172
 New state    171 was old state    191
 New state    172 was old state    166
 New state    173 was old state    179
 New state    174 was old state    180
 New state    177 was old state    178
 New state    178 was old state    183
 New state    179 was old state    181
 New state    180 was old state    182
 New state    181 was old state    174
 New state    182 was old state    173
 New state    183 was old state    177
 New state    184 was old state    186
 New state    186 was old state    184
 New state    187 was old state    188
 New state    188 was old state    187
 New state    189 was old state    190
 New state    190 was old state    189
 New state    191 was old state    200
 New state    193 was old state    202
 New state    194 was old state    203
 New state    195 was old state    201
 New state    196 was old state    204
 New state    197 was old state    205
 New state    198 was old state    197
 New state    199 was old state    196
 New state    200 was old state    195
 New state    201 was old state    206
 New state    202 was old state    199
 New state    203 was old state    198
 New state    204 was old state    208
 New state    205 was old state    211
 New state    206 was old state    212
 New state    207 was old state    193
 New state    208 was old state    194
 New state    210 was old state    207
 New state    211 was old state    214
 New state    212 was old state    213
 New state    213 was old state    222
 New state    214 was old state    215
 New state    215 was old state    217
 New state    216 was old state    220
 New state    217 was old state    216
 New state    220 was old state    221
 New state    221 was old state    210
 New state    222 was old state    234
 New state    225 was old state    228
 New state    226 was old state    227
 New state    227 was old state    230
 New state    228 was old state    231
 New state    230 was old state    232
 New state    231 was old state    233
 New state    232 was old state    238
 New state    233 was old state    239
 New state    234 was old state    240
 New state    235 was old state    241
 New state    236 was old state    237
 New state    237 was old state    236
 New state    238 was old state    244
 New state    239 was old state    245
 New state    240 was old state    247
 New state    241 was old state    248
 New state    242 was old state    243
 New state    243 was old state    242
 New state    244 was old state    235
 New state    245 was old state    249
 New state    246 was old state    250
 New state    247 was old state    251
 New state    248 was old state    252
 New state    249 was old state    256
 New state    250 was old state    257
 New state    251 was old state    254
 New state    252 was old state    255
 New state    253 was old state    246
 New state    254 was old state    259
 New state    255 was old state    258
 New state    256 was old state    262
 New state    257 was old state    263
 New state    258 was old state    253
 New state    259 was old state    260
 New state    260 was old state    261
 New state    261 was old state    267
 New state    262 was old state    264
 New state    263 was old state    265
 New state    264 was old state    268
 New state    265 was old state    269
 New state    266 was old state    278
 New state    267 was old state    274
 New state    268 was old state    275
 New state    269 was old state    270
 New state    270 was old state    271
 New state    271 was old state    276
 New state    272 was old state    277
 New state    273 was old state    272
 New state    274 was old state    273
 New state    275 was old state    284
 New state    276 was old state    282
 New state    277 was old state    283
 New state    278 was old state    280
 New state    280 was old state    281
 New state    281 was old state    285
 New state    282 was old state    287
 New state    283 was old state    286
 New state    284 was old state    306
 New state    285 was old state    305
 New state    286 was old state    289
 New state    287 was old state    288
 New state    288 was old state    290
 New state    289 was old state    291
 New state    290 was old state    312
 New state    291 was old state    292
 New state    292 was old state    293
 New state    293 was old state    298
 New state    294 was old state    301
 New state    295 was old state    299
 New state    296 was old state    300
 New state    297 was old state    295
 New state    298 was old state    319
 New state    299 was old state    304
 New state    300 was old state    296
 New state    301 was old state    297
 New state    304 was old state    307
 New state    305 was old state    308
 New state    306 was old state    315
 New state    307 was old state    316
 New state    308 was old state    311
 New state    309 was old state    313
 New state    310 was old state    314
 New state    311 was old state    327
 New state    312 was old state    317
 New state    313 was old state    318
 New state    314 was old state    309
 New state    315 was old state    310
 New state    316 was old state    323
 New state    317 was old state    320
 New state    318 was old state    324
 New state    319 was old state    325
 New state    320 was old state    326
 New state    321 was old state    322
 New state    322 was old state    321
 New state    323 was old state    330
 New state    324 was old state    328
 New state    325 was old state    329
 New state    326 was old state    334
 New state    327 was old state    337
 New state    328 was old state    331
 New state    329 was old state    332
 New state    330 was old state    336
 New state    331 was old state    335
 New state    332 was old state    333
 New state    333 was old state    370
 No map to state    334
 No map to state    335
 New state    336 was old state    294
 New state    337 was old state    338
 New state    338 was old state    339
 New state    339 was old state    340
 No map to state    340
 New state    346 was old state    349
 New state    347 was old state    350
 New state    349 was old state    346
 New state    350 was old state    347
 New state    353 was old state    358
 New state    354 was old state    357
 New state    355 was old state    356
 New state    356 was old state    355
 New state    357 was old state    353
 New state    358 was old state    354
 New state    359 was old state    360
 New state    360 was old state    359
 New state    361 was old state    362
 New state    362 was old state    361
 New state    363 was old state    367
 New state    364 was old state    368
 New state    365 was old state    363
 New state    366 was old state    364
 New state    367 was old state    369
 New state    368 was old state    380
 New state    369 was old state    371
 New state    370 was old state    372
 New state    371 was old state    373
 New state    372 was old state    376
 New state    373 was old state    374
 New state    374 was old state    365
 New state    375 was old state    366
 New state    376 was old state    375
 New state    380 was old state    381
 New state    381 was old state    385
 New state    382 was old state    384
 New state    383 was old state    386
 New state    384 was old state    383
 New state    385 was old state    382
 New state    386 was old state    387
 New state    387 was old state    420
 New state    391 was old state    392
 New state    392 was old state    391
 New state    393 was old state    394
 New state    394 was old state    393
 New state    395 was old state    396
 New state    396 was old state    395
 New state    397 was old state    403
 New state    398 was old state    400
 New state    399 was old state    401
 New state    400 was old state    402
 New state    401 was old state    405
 New state    402 was old state    404
 New state    403 was old state    397
 New state    404 was old state    398
 New state    405 was old state    399
 New state    411 was old state    414
 New state    412 was old state    415
 New state    413 was old state    412
 New state    414 was old state    413
 New state    415 was old state    411
 New state    416 was old state    418
 New state    417 was old state    416
 New state    418 was old state    417
 New state    419 was old state    422
 New state    420 was old state    423
 New state    421 was old state    425
 New state    422 was old state    426
 New state    423 was old state    424
 New state    424 was old state    427
 New state    425 was old state    428
 New state    426 was old state    429
 New state    427 was old state    430
 New state    428 was old state    431
 New state    429 was old state    432
 New state    430 was old state    434
 New state    431 was old state    435
 New state    432 was old state    450
 New state    433 was old state    451
 New state    434 was old state    433
 New state    435 was old state    436
 New state    436 was old state    437
 New state    437 was old state    438
 New state    438 was old state    439
 New state    439 was old state    443
 New state    440 was old state    446
 New state    441 was old state    447
 New state    442 was old state    448
 New state    443 was old state    449
 New state    444 was old state    442
 New state    445 was old state    444
 New state    446 was old state    445
 New state    447 was old state    440
 New state    448 was old state    441
 New state    449 was old state    419
 New state    450 was old state    452
 New state    451 was old state    453
 New state    452 was old state    457
 New state    453 was old state    458
 New state    457 was old state    459
 New state    458 was old state    460
 New state    459 was old state    462
 New state    460 was old state    461
 New state    461 was old state    463
 New state    462 was old state    464
 New state    463 was old state    465
 New state    464 was old state    466
 New state    465 was old state    467
 New state    466 was old state    468
 New state    467 was old state    469
 New state    468 was old state    470
 New state    469 was old state    471
 New state    470 was old state    472
 New state    471 was old state    474
 New state    472 was old state    473
 New state    473 was old state    476
 New state    474 was old state    477
 New state    476 was old state    478
 New state    477 was old state    479
 New state    478 was old state    480
 New state    479 was old state    484
 New state    480 was old state    483
 New state    483 was old state    486
 New state    484 was old state    491
 New state    485 was old state    490
 New state    486 was old state    487
 New state    487 was old state    488
 New state    488 was old state    489
 New state    489 was old state    494
 New state    490 was old state    495
 New state    491 was old state    485
 New state    493 was old state    503
 New state    494 was old state    502
 New state    495 was old state    493
 New state    496 was old state    498
 New state    497 was old state    496
 New state    498 was old state    497
 New state    499 was old state    500
 New state    500 was old state    501
 New state    501 was old state    505
 New state    502 was old state    504
 New state    503 was old state    506
 New state    504 was old state    507
 New state    505 was old state    508
 New state    506 was old state    509
 New state    507 was old state    499
 New state    508 was old state    510
 New state    509 was old state    511
 New state    510 was old state    512
 New state    511 was old state    513
 New state    512 was old state    525
 New state    513 was old state    524
 New state    515 was old state    518
 New state    516 was old state    519
 New state    518 was old state    515
 New state    519 was old state    516
 New state    520 was old state    521
 New state    521 was old state    520
 New state    524 was old state    528
 New state    525 was old state    530
 New state    527 was old state    529
 New state    528 was old state    527
 New state    529 was old state    532
 New state    530 was old state    533
 New state    531 was old state    535
 New state    532 was old state    534
 New state    533 was old state    538
 New state    534 was old state    539
 New state    535 was old state    536
 New state    536 was old state    537
 New state    537 was old state    531
 New state    538 was old state    545
 New state    539 was old state    547
 No map to state    545
 New state    547 was old state    548
 New state    548 was old state    549
 New state    549 was old state    551
 New state    551 was old state    552
 New state    552 was old state    553
 New state    553 was old state    556
 No map to state    556
 New state    559 was old state    560
 New state    560 was old state    559
 New state    564 was old state    567
 New state    565 was old state    564
 New state    566 was old state    571
 New state    567 was old state    572
 New state    568 was old state    565
 New state    569 was old state    566
 New state    571 was old state    568
 New state    572 was old state    569
 New state    574 was old state    576
 New state    575 was old state    574
 New state    576 was old state    575
 New state    579 was old state    580
 New state    580 was old state    579
 New state    585 was old state    586
 New state    586 was old state    587
 New state    587 was old state    585
 New state    588 was old state    589
 New state    589 was old state    590
 New state    590 was old state    588
 New state    596 was old state    598
 New state    597 was old state    599
 New state    598 was old state    596
 New state    599 was old state    597
 New state    604 was old state    605
 New state    605 was old state    604
 New state    608 was old state    610
 New state    609 was old state    611
 New state    610 was old state    613
 New state    611 was old state    612
 New state    612 was old state    614
 New state    613 was old state    617
 New state    614 was old state    615
 New state    615 was old state    616
 New state    616 was old state    608
 New state    617 was old state    609
 New state    620 was old state    622
 New state    622 was old state    623
 New state    623 was old state    624
 New state    624 was old state    620
 New state    625 was old state    626
 New state    626 was old state    627
 New state    627 was old state    625
 New state    633 was old state    635
 New state    634 was old state    636
 New state    635 was old state    634
 New state    636 was old state    637
 New state    637 was old state    633
 New state    644 was old state    645
 New state    645 was old state    644
 New state    659 was old state    660
 New state    660 was old state    661
 New state    661 was old state    659
 New state    662 was old state    663
 New state    663 was old state    664
 New state    664 was old state    662
 New state    665 was old state    668
 New state    666 was old state    665
 New state    667 was old state    666
 New state    668 was old state    667
 New state    671 was old state    674
 New state    672 was old state    671
 New state    673 was old state    672
 New state    674 was old state    673
 New state    677 was old state    678
 New state    678 was old state    677
 New state    679 was old state    681
 New state    680 was old state    682
 New state    681 was old state    679
 New state    682 was old state    683
 New state    683 was old state    684
 New state    684 was old state    680
 New state    685 was old state    686
 New state    686 was old state    685
 New state    692 was old state    693
 New state    693 was old state    694
 New state    694 was old state    692
 New state    710 was old state    712
 New state    711 was old state    713
 New state    712 was old state    710
 New state    713 was old state    711
 New state    714 was old state    715
 New state    715 was old state    716
 New state    716 was old state    714
 New state    723 was old state    727
 New state    724 was old state    725
 New state    725 was old state    724
 New state    726 was old state    723
 New state    727 was old state    728
 New state    728 was old state    726
 New state    730 was old state    731
 New state    731 was old state    730
 New state    732 was old state    735
 New state    733 was old state    732
 New state    734 was old state    733
 New state    735 was old state    734
 New state    740 was old state    741
 New state    741 was old state    740
 New state    743 was old state    744
 New state    744 was old state    743
 New state    746 was old state    748
 New state    747 was old state    746
 New state    748 was old state    747
 New state    754 was old state    756
 New state    755 was old state    757
 New state    756 was old state    754
 New state    757 was old state    755
 New state    770 was old state    771
 New state    771 was old state    770
 New state    778 was old state    779
 New state    779 was old state    778
 New state    784 was old state    787
 New state    785 was old state    788
 New state    787 was old state    784
 New state    788 was old state    785
 New state    795 was old state    797
 New state    796 was old state    798
 New state    797 was old state    799
 New state    798 was old state    800
 New state    799 was old state    795
 New state    800 was old state    796
 New state    809 was old state    810
 New state    810 was old state    811
 New state    811 was old state    809
 New state    812 was old state    813
 New state    813 was old state    812
 New state    814 was old state    816
 New state    815 was old state    817
 New state    816 was old state    815
 New state    817 was old state    818
 New state    818 was old state    814
 New state    820 was old state    821
 New state    821 was old state    822
 New state    822 was old state    820
 New state    824 was old state    827
 New state    825 was old state    828
 New state    826 was old state    824
 New state    827 was old state    825
 New state    828 was old state    826
 New state    832 was old state    834
 New state    833 was old state    837
 New state    834 was old state    835
 New state    835 was old state    836
 New state    836 was old state    832
 New state    837 was old state    833
 New state    840 was old state    841
 New state    841 was old state    840
 New state    846 was old state    847
 New state    847 was old state    848
 New state    848 was old state    846
 New state    857 was old state    858
 New state    858 was old state    857
 Excitation Energies [eV] at current iteration:
 Root      1 :     7.673148522200333
 Root      2 :     7.673306211226224
 Root      3 :     8.343852912251352
 Root      4 :     8.347394386935466
 Root      5 :     8.408702502206923
 Root      6 :     8.408711477661170
 Root      7 :     8.475577907575062
 Root      8 :     8.475742204502675
 Root      9 :     9.040590215638659
 Root     10 :     9.040674092073635
 Root     11 :     9.685430909912849
 Root     12 :     9.685590184976999
 Root     13 :     9.715569478331222
 Root     14 :     9.740483135159849
 Root     15 :     9.740484973317873
 Root     16 :     9.822396941649325
 Root     17 :    10.014487550632870
 Root     18 :    10.014568343308940
 Root     19 :    10.568539428578550
 Root     20 :    10.568665723359660
 Root     21 :    10.738952715242090
 Root     22 :    10.750348869262770
 Root     23 :    10.755832336254130
 Root     24 :    10.755832969261490
 Root     25 :    11.131069613596220
 Root     26 :    11.131153589788640
 Root     27 :    11.249833703515120
 Root     28 :    11.249917571733100
 Root     29 :    11.267818808823430
 Root     30 :    11.284532524191530
 Root     31 :    11.284548980074820
 Root     32 :    11.587109008712690
 Root     33 :    11.909145631845870
 Root     34 :    11.924492867486820
 Root     35 :    11.993994078171280
 Root     36 :    11.993996635331670
 Root     37 :    12.040010185806490
 Root     38 :    12.040599826397530
 Root     39 :    12.040767794352460
 Root     40 :    12.142924537736320
 Root     41 :    12.259137559017440
 Root     42 :    12.259139975753020
 Root     43 :    12.308761842721330
 Root     44 :    12.308767130014850
 Root     45 :    12.330520523569270
 Root     46 :    12.427345356802380
 Root     47 :    12.596286052281190
 Root     48 :    12.598148917005180
 Root     49 :    12.637186811487540
 Root     50 :    12.637189150378620
 Root     51 :    12.644889370772120
 Root     52 :    12.644946383057810
 Root     53 :    12.654058559882990
 Root     54 :    12.682828412355310
 Root     55 :    12.842174538278140
 Root     56 :    12.842298764288940
 Root     57 :    12.850121503860920
 Root     58 :    13.313551410759200
 Root     59 :    13.344956785124460
 Root     60 :    13.344998386416960
 Root     61 :    13.390982993797720
 Root     62 :    13.390987177943150
 Root     63 :    13.586489679929700
 Root     64 :    13.586577863084510
 Root     65 :    13.667182369932140
 Root     66 :    13.691512296875150
 Root     67 :    13.865269562955750
 Root     68 :    13.887636249046970
 Root     69 :    14.037613253118300
 Root     70 :    14.037629937092320
 Root     71 :    14.074879262750100
 Root     72 :    14.074948806486160
 Root     73 :    14.262975531791920
 Root     74 :    14.269233298137850
 Root     75 :    14.742607717562030
 Root     76 :    14.769428077080830
 Root     77 :    14.786857803703160
 Root     78 :    14.827183433775440
 Root     79 :    14.827252516993330
 Root     80 :    14.969157767897890
 Root     81 :    14.969177674820620
 Root     82 :    14.987686670759250
 Root     83 :    15.039129459297250
 Root     84 :    15.039169384372940
 Root     85 :    15.321910395676630
 Root     86 :    15.322071703803030
 Root     87 :    15.463744888196880
 Root     88 :    15.463777646862370
 Root     89 :    15.486778944460460
 Root     90 :    15.540327599556620
 Root     91 :    15.540396302018960
 Root     92 :    15.600781633433440
 Root     93 :    15.600863534031740
 Root     94 :    15.719533215664910
 Root     95 :    15.719538112943770
 Root     96 :    15.871611633284060
 Root     97 :    15.871774093385640
 Root     98 :    15.924616388458690
 Root     99 :    15.924779093863310
 Root    100 :    15.991089755706800
 Root    101 :    16.015211806394960
 Root    102 :    16.132961540026280
 Root    103 :    16.132975586773430
 Root    104 :    16.164914805111810
 Root    105 :    16.164924538542150
 Root    106 :    16.233111603880670
 Root    107 :    16.233160934260020
 Root    108 :    16.236333736644810
 Root    109 :    16.483705022159400
 Root    110 :    16.483727649605540
 Root    111 :    16.502144195621190
 Root    112 :    16.616023192373470
 Root    113 :    16.616052726958810
 Root    114 :    16.673812685860390
 Root    115 :    16.673882273589300
 Root    116 :    16.852807370346180
 Root    117 :    16.852893375912950
 Root    118 :    16.867167682465070
 Root    119 :    16.867252024072990
 Root    120 :    16.944810065101130
 Root    121 :    17.039163331139040
 Root    122 :    17.039180952292890
 Root    123 :    17.151438695959330
 Root    124 :    17.190733021621570
 Root    125 :    17.190789722988260
 Root    126 :    17.251479612037880
 Root    127 :    17.251508815176220
 Root    128 :    17.253610102507470
 Root    129 :    17.271076590391100
 Root    130 :    17.273305483748430
 Root    131 :    17.292329332876490
 Root    132 :    17.292330149939430
 Root    133 :    17.312745230552370
 Root    134 :    17.414311132364110
 Root    135 :    17.414388069178100
 Root    136 :    17.469716355246660
 Root    137 :    17.469757217585290
 Root    138 :    17.596344149194110
 Root    139 :    17.696432828075550
 Root    140 :    17.696480977247530
 Root    141 :    17.767616546145790
 Root    142 :    17.767684130122210
 Root    143 :    17.835748866199910
 Root    144 :    17.869756613580070
 Root    145 :    17.908988370301900
 Root    146 :    17.943231948201350
 Root    147 :    17.943234632298160
 Root    148 :    18.035436899616110
 Root    149 :    18.035465601178400
 Root    150 :    18.055634022657700
 Root    151 :    18.126815594294070
 Root    152 :    18.151273345878360
 Root    153 :    18.151275523889090
 Root    154 :    18.153821025925290
 Root    155 :    18.192498737967070
 Root    156 :    18.192528613025310
 Root    157 :    18.194490897192160
 Root    158 :    18.252260589517340
 Root    159 :    18.349976183341570
 Root    160 :    18.477818509703110
 Root    161 :    18.488385609995620
 Root    162 :    18.488402212565460
 Root    163 :    18.598749442903250
 Root    164 :    18.598832412912440
 Root    165 :    18.648369094221440
 Root    166 :    18.665850030762850
 Root    167 :    18.697016127050440
 Root    168 :    18.697019957097180
 Root    169 :    18.700792410643630
 Root    170 :    18.700812669911570
 Root    171 :    18.766288751724100
 Root    172 :    18.931995876499190
 Root    173 :    19.031627999993640
 Root    174 :    19.031708811189880
 Root    175 :    19.043778740798380
 Root    176 :    19.174372251288510
 Root    177 :    19.174381161338810
 Root    178 :    19.226643509153350
 Root    179 :    19.241402680904720
 Root    180 :    19.241455118774610
 Root    181 :    19.254391838717150
 Root    182 :    19.254400773569420
 Root    183 :    19.263977275355780
 Root    184 :    19.271457246176880
 Root    185 :    19.271482970129650
 Root    186 :    19.324733190171750
 Root    187 :    19.471287177908440
 Root    188 :    19.483584600342100
 Root    189 :    19.493591473236930
 Root    190 :    19.493594388113990
 Root    191 :    19.509377702666100
 Root    192 :    19.514731534670970
 Root    193 :    19.582157665576760
 Root    194 :    19.582226731252410
 Root    195 :    19.587690424087370
 Root    196 :    19.700717777312080
 Root    197 :    19.700758938471870
 Root    198 :    19.702371103706620
 Root    199 :    19.702438561941840
 Root    200 :    19.710093532342440
 Root    201 :    19.742004727969110
 Root    202 :    19.765966779102190
 Root    203 :    19.765981960122480
 Root    204 :    19.841265265109630
 Root    205 :    19.848376827939880
 Root    206 :    19.848418336548700
 Root    207 :    19.891004961862330
 Root    208 :    19.891044383865590
 Root    209 :    20.040315661293580
 Root    210 :    20.040350271887990
 Root    211 :    20.090880616114540
 Root    212 :    20.137473352486340
 Root    213 :    20.196707180725290
 Root    214 :    20.264345472332800
 Root    215 :    20.440216974055990
 Root    216 :    20.481014780757050
 Root    217 :    20.596464368754200
 Root    218 :    20.648753432866350
 Root    219 :    20.648768157065250
 Root    220 :    20.842682578832730
 Root    221 :    20.938701843993550
 Root    222 :    21.142367576972850
 Root    223 :    21.164984650464500
 Root    224 :    21.165091562794740
 Root    225 :    21.237073735347350
 Root    226 :    21.344646318822270
 Root    227 :    21.480125638919770
 Root    228 :    21.480149901950440
 Root    229 :    21.514813589495900
 Root    230 :    21.548507117607980
 Root    231 :    21.548583753005800
 Root    232 :    21.657356006598920
 Root    233 :    21.657458269593540
 Root    234 :    21.703973013070400
 Root    235 :    21.723825899985300
 Root    236 :    21.732216643645290
 Root    237 :    21.732269653270660
 Root    238 :    21.828699076344270
 Root    239 :    21.894200252437250
 Root    240 :    21.894204512402310
 Root    241 :    21.900745615468560
 Root    242 :    21.906703506160830
 Root    243 :    21.906725385863500
 Root    244 :    22.007594478890830
 Root    245 :    22.007650721383010
 Root    246 :    22.007751898494510
 Root    247 :    22.133433900675800
 Root    248 :    22.133570404364300
 Root    249 :    22.273380121494810
 Root    250 :    22.273424639573210
 Root    251 :    22.295258860115150
 Root    252 :    22.295340565709110
 Root    253 :    22.296511654813860
 Root    254 :    22.355578259775440
 Root    255 :    22.355592931817360
 Root    256 :    22.439006755591790
 Root    257 :    22.439011980115240
 Root    258 :    22.471064596126570
 Root    259 :    22.494833506934970
 Root    260 :    22.494907195086700
 Root    261 :    22.593456514373660
 Root    262 :    22.770291603105870
 Root    263 :    22.770310211244250
 Root    264 :    22.905711872913750
 Root    265 :    22.905890052920420
 Root    266 :    22.994257509319900
 Root    267 :    23.008634315610780
 Root    268 :    23.008649793223110
 Root    269 :    23.009106968085900
 Root    270 :    23.009188944214050
 Root    271 :    23.053334810542700
 Root    272 :    23.053373524504610
 Root    273 :    23.084433981805360
 Root    274 :    23.084439873429100
 Root    275 :    23.099632573645040
 Root    276 :    23.105036636887790
 Root    277 :    23.105048970570480
 Root    278 :    23.133071743089050
 Root    279 :    23.238115528012550
 Root    280 :    23.238128076695630
 Root    281 :    23.518632453812730
 Root    282 :    23.622791769727750
 Root    283 :    23.841350902008690
 Root    284 :    23.851898683558080
 Root    285 :    23.851926242263940
 Root    286 :    23.909837583286670
 Root    287 :    23.924256409261500
 Root    288 :    23.935013805175060
 Root    289 :    23.935028396306490
 Root    290 :    24.000267802089960
 Root    291 :    24.165960442578450
 Root    292 :    24.165987222884510
 Root    293 :    24.382091768287370
 Root    294 :    24.413764582217360
 Root    295 :    24.413765278731300
 Root    296 :    24.454831059831280
 Root    297 :    24.463445199703680
 Root    298 :    24.482886966548610
 Root    299 :    24.580820718230220
 Root    300 :    24.646853328340080
 Root    301 :    24.646861675749950
 Root    302 :    24.665687744595510
 Root    303 :    24.665728168404000
 Root    304 :    24.792895472060820
 Root    305 :    24.792950573436780
 Root    306 :    24.940757512298100
 Root    307 :    24.940773790095160
 Root    308 :    25.003452363975620
 Root    309 :    25.013292491895730
 Root    310 :    25.013294861762170
 Root    311 :    25.104945848576730
 Root    312 :    25.133657751470920
 Root    313 :    25.133817599337900
 Root    314 :    25.153493777821390
 Root    315 :    25.153505900918440
 Root    316 :    25.196551066981890
 Root    317 :    25.228730396833560
 Root    318 :    25.255605687818420
 Root    319 :    25.277323977913040
 Root    320 :    25.277339115600770
 Root    321 :    25.306355107868790
 Root    322 :    25.306362196418410
 Root    323 :    25.366822649592430
 Root    324 :    25.371009326792820
 Root    325 :    25.414403226830760
 Root    326 :    25.414427949708530
 Root    327 :    25.547637880965230
 Root    328 :    25.571932197590760
 Root    329 :    25.571956685552060
 Root    330 :    25.689073639305960
 Root    331 :    25.689099885679050
 Root    332 :    25.728940003732950
 Root    333 :    25.728969935849140
 Root    334 :    25.838343663066690
 Root    335 :    25.838373629073320
 Root    336 :    25.914489323983610
 Root    337 :    25.938261282784500
 Root    338 :    26.010393198065450
 Root    339 :    26.010531006489090
 Root    340 :    26.059755912720240
 Root    341 :    26.178034522848520
 Root    342 :    26.178065739056440
 Root    343 :    26.606682109867930
 Root    344 :    26.649994979737950
 Root    345 :    26.650119062888000
 Root    346 :    26.665688183271570
 Root    347 :    26.665712554662320
 Root    348 :    26.671594044654520
 Root    349 :    26.703575458082010
 Root    350 :    26.703595171473470
 Root    351 :    26.829881800227650
 Root    352 :    26.829998120031150
 Root    353 :    27.029967375354680
 Root    354 :    27.066876833127110
 Root    355 :    27.236749039993450
 Root    356 :    27.236783220631140
 Root    357 :    27.395450797608960
 Root    358 :    27.395558794856540
 Root    359 :    27.666595736202910
 Root    360 :    27.666606834350980
 Root    361 :    27.667891884027450
 Root    362 :    27.755055196914040
 Root    363 :    28.236965224976250
 Root    364 :    28.237053154019130
 Root    365 :    28.371083083008930
 Root    366 :    28.371107207125440
 Root    367 :    28.702230203183100
 Root    368 :    28.702247640369170
 Root    369 :    28.812811206497770
 Root    370 :    28.812882294182990
 Root    371 :    28.872712698832290
 Root    372 :    28.887799810064800
 Root    373 :    28.887818433544550
 Root    374 :    28.893305794716050
 Root    375 :    28.893386892761500
 Root    376 :    28.898123472672100
 Root    377 :    28.956748139980720
 Root    378 :    28.956831467129450
 Root    379 :    29.113397219351800
 Root    380 :    29.114399435226210
 Root    381 :    29.417605134294920
 Root    382 :    29.527118045769410
 Root    383 :    29.702143510495520
 Root    384 :    29.774919834078740
 Root    385 :    29.774959260853900
 Root    386 :    30.013083457887850
 Root    387 :    30.045431965814290
 Root    388 :    30.228426590514420
 Root    389 :    30.437672866564470
 Root    390 :    30.556990704665900
 Root    391 :    30.556996533836350
 Root    392 :    30.626277696751530
 Root    393 :    30.764971129849530
 Root    394 :    30.802514274524170
 Root    395 :    30.939582868040720
 Root    396 :    30.939586424235140
 Root    397 :    31.103883072947450
 Root    398 :    31.111201190449890
 Root    399 :    31.111257485609140
 Root    400 :    31.133149883475260
 Root    401 :    31.139326411985550
 Root    402 :    31.139382535346140
 Root    403 :    31.166370696646710
 Root    404 :    31.208249567058360
 Root    405 :    31.208395201226120
 Root    406 :    31.251261041323990
 Root    407 :    31.550412531301070
 Root    408 :    31.785516345076700
 Root    409 :    31.860841417319840
 Root    410 :    31.860997180812380
 Root    411 :    32.006530656744640
 Root    412 :    32.006553766836160
 Root    413 :    32.111389807567380
 Root    414 :    32.111494920709940
 Root    415 :    32.199197295862080
 Root    416 :    32.242729981416640
 Root    417 :    32.292596195582160
 Root    418 :    32.292681049108100
 Root    419 :    32.320821695796000
 Root    420 :    32.320927622111380
 Root    421 :    32.449899858589340
 Root    422 :    32.449978390359470
 Root    423 :    32.473344718271930
 Root    424 :    32.581505590647750
 Root    425 :    32.606441351522290
 Root    426 :    33.117238342357380
 Root    427 :    33.117391751259430
 Root    428 :    33.391866417158130
 Root    429 :    33.391970547751730
 Root    430 :    33.444296638829140
 Root    431 :    33.444383804021190
 Root    432 :    33.467816967196970
 Root    433 :    33.467894326895170
 Root    434 :    33.505112791085230
 Root    435 :    33.745004414484320
 Root    436 :    33.745017351468720
 Root    437 :    33.880957458399510
 Root    438 :    33.880996999010950
 Root    439 :    34.004670186910530
 Root    440 :    34.020355296958300
 Root    441 :    34.020430118013670
 Root    442 :    34.161675048663390
 Root    443 :    34.161832883677160
 Root    444 :    34.227087422837590
 Root    445 :    34.227164088935660
 Root    446 :    34.227912460030990
 Root    447 :    34.394219122747070
 Root    448 :    34.394291599013520
 Root    449 :    34.500039541287580
 Root    450 :    34.630579263620940
 Root    451 :    34.630668467616940
 Root    452 :    34.720423871849580
 Root    453 :    34.720444386699440
 Root    454 :    35.317374570377250
 Root    455 :    35.317414388710770
 Root    456 :    35.533771043807820
 Root    457 :    35.572417876849800
 Root    458 :    35.572575319665140
 Root    459 :    35.816404784013900
 Root    460 :    35.816423597855060
 Root    461 :    36.062670113163950
 Root    462 :    36.062675936698420
 Root    463 :    36.292645487362670
 Root    464 :    36.297764271876130
 Root    465 :    36.329108839721000
 Root    466 :    36.499177800750260
 Root    467 :    36.499191635814540
 Root    468 :    37.012525558859130
 Root    469 :    37.049177768732740
 Root    470 :    37.205455221663930
 Root    471 :    37.205459539567950
 Root    472 :    37.363257247265320
 Root    473 :    37.611062121279450
 Root    474 :    37.611113287243110
 Root    475 :    37.717144431126140
 Root    476 :    37.786047654580800
 Root    477 :    37.786134894433690
 Root    478 :    37.939153370452870
 Root    479 :    38.115667939661200
 Root    480 :    38.133949908640990
 Root    481 :    38.133984219214900
 Root    482 :    38.291332806341710
 Root    483 :    38.398726249162640
 Root    484 :    38.433241195125180
 Root    485 :    38.433270145743890
 Root    486 :    38.457684146089670
 Root    487 :    38.457695996486710
 Root    488 :    38.464783229856340
 Root    489 :    38.850830556237490
 Root    490 :    38.850963147472160
 Root    491 :    38.863907536743180
 Root    492 :    38.927485444028090
 Root    493 :    39.351169346979460
 Root    494 :    39.351266819125330
 Root    495 :    39.392960647401770
 Root    496 :    39.735435125650080
 Root    497 :    39.913700209916930
 Root    498 :    39.913731298209200
 Root    499 :    40.245303194468780
 Root    500 :    40.245390317726600
 Root    501 :    40.333644321486490
 Root    502 :    40.389153758850380
 Root    503 :    40.432360195245480
 Root    504 :    40.432370950006550
 Root    505 :    40.628490213134020
 Root    506 :    40.927225612665180
 Root    507 :    40.945097838457210
 Root    508 :    41.367413141953340
 Root    509 :    41.367496950329480
 Root    510 :    41.400735377364740
 Root    511 :    41.400830564081300
 Root    512 :    41.604411166240280
 Root    513 :    41.604497267129430
 Root    514 :    41.729443563098510
 Root    515 :    41.971270321138750
 Root    516 :    41.971313239899050
 Root    517 :    42.175232960723970
 Root    518 :    42.175296384018150
 Root    519 :    42.278506362744660
 Root    520 :    42.767196061183280
 Root    521 :    42.943563289766990
 Root    522 :    42.943569446359250
 Root    523 :    43.075202435511320
 Root    524 :    43.200381506502440
 Root    525 :    43.200511224873300
 Root    526 :    43.592247498905910
 Root    527 :    44.137100867471510
 Root    528 :    44.188711565554740
 Root    529 :    44.199861689423070
 Root    530 :    44.288189270838530
 Root    531 :    44.288194625648890
 Root    532 :    44.632673044214010
 Root    533 :    44.691482382034750
 Root    534 :    44.691732375394580
 Root    535 :    44.745202436202260
 Root    536 :    44.745265206428680
 Root    537 :    44.934001065912070
 Root    538 :    44.934061060545960
 Root    539 :    45.435495078164220
 Root    540 :    45.503790186987030
 Root    541 :    45.504119394690400
 Root    542 :    45.944827151321750
 Root    543 :    46.027263996608160
 Root    544 :    46.027343457885950
 Root    545 :    46.646677548136920
 Root    546 :    46.646724921712940
 Root    547 :    47.277901044564630
 Root    548 :    47.278062629720320
 Root    549 :    47.460719690401940
 Root    550 :    47.472360052776750
 Root    551 :    47.729618150764480
 Root    552 :    47.729631610699490
 Root    553 :    48.067101680435250
 Root    554 :    48.091469116318860
 Root    555 :    48.091608954523320
 Root    556 :    48.119730456023710
 Root    557 :    48.156633168009950
 Root    558 :    48.384057723788350
 Root    559 :    48.384105419794590
 Root    560 :    49.092013442420910
 Root    561 :    49.388828552888100
 Root    562 :    49.388955145899520
 Root    563 :    49.702502663627800
 Root    564 :    49.932054960409120
 Root    565 :    49.991327518103790
 Root    566 :    50.048891813637820
 Root    567 :    50.048969866616960
 Root    568 :    50.100293755856750
 Root    569 :    50.100299455787510
 Root    570 :    50.147939414858830
 Root    571 :    50.147967450388510
 Root    572 :    50.455814046417590
 Root    573 :    51.049954179223660
 Root    574 :    51.113560607166070
 Root    575 :    51.113628256312940
 Root    576 :    51.649443226791720
 Root    577 :    51.764059203791850
 Root    578 :    51.764191262846210
 Root    579 :    52.247329537145670
 Root    580 :    52.247433147527890
 Root    581 :    52.305527761158910
 Root    582 :    52.341635011664120
 Root    583 :    52.574973697590090
 Root    584 :    52.575323719102500
 Root    585 :    53.013977744014310
 Root    586 :    53.014095228528130
 Root    587 :    53.029919008652260
 Root    588 :    53.568420405374840
 Root    589 :    53.568868973891760
 Root    590 :    53.594231094216060
 Root    591 :    53.742441040758330
 Root    592 :    54.117617711177910
 Root    593 :    54.117773716575340
 Root    594 :    54.206601921163810
 Root    595 :    54.206937439111710
 Root    596 :    54.501492675853540
 Root    597 :    54.501688034766260
 Root    598 :    54.641370055065150
 Root    599 :    54.641386469077050
 Root    600 :    55.268935349963270
 Root    601 :    55.269044984869400
 Root    602 :    55.307710647498800
 Root    603 :    55.491865740085230
 Root    604 :    55.491926457429560
 Root    605 :    55.665651246727070
 Root    606 :    55.707784915186090
 Root    607 :    55.707908824242660
 Root    608 :    55.898009981052000
 Root    609 :    55.898103447796980
 Root    610 :    55.975485575747040
 Root    611 :    55.975488089427540
 Root    612 :    56.056763953427750
 Root    613 :    56.181737379230060
 Root    614 :    56.181772975623010
 Root    615 :    56.217585309409650
 Root    616 :    56.738900013297710
 Root    617 :    56.738919181208550
 Root    618 :    56.755531500086830
 Root    619 :    56.755704830810150
 Root    620 :    57.519121675500460
 Root    621 :    57.686696900405970
 Root    622 :    57.686741548569390
 Root    623 :    57.757149453412890
 Root    624 :    57.774968460323060
 Root    625 :    57.985679520141410
 Root    626 :    58.226891495640810
 Root    627 :    58.354481997575700
 Root    628 :    58.357094776586070
 Root    629 :    58.357116750978870
 Root    630 :    58.574794814029770
 Root    631 :    58.668323504372520
 Root    632 :    59.245222611941260
 Root    633 :    59.304624997684490
 Root    634 :    59.533299458193850
 Root    635 :    59.533313993863100
 Root    636 :    59.681274961562740
 Root    637 :    59.709839331612830
 Root    638 :    60.172929633208440
 Root    639 :    60.172998321649470
 Root    640 :    60.485138329882840
 Root    641 :    60.485441170736880
 Root    642 :    60.896611228985080
 Root    643 :    60.962672159093050
 Root    644 :    60.962696773621000
 Root    645 :    60.987304419283630
 Root    646 :    61.166609580293300
 Root    647 :    61.166942439049560
 Root    648 :    61.357155767360990
 Root    649 :    61.357270539092060
 Root    650 :    61.483072542696530
 Root    651 :    61.483213395248300
 Root    652 :    61.616006987726120
 Root    653 :    61.616037609113970
 Root    654 :    61.704402362606190
 Root    655 :    61.704569854790710
 Root    656 :    62.146469508396980
 Root    657 :    62.146727947624310
 Root    658 :    62.340419130129630
 Root    659 :    62.340565200913390
 Root    660 :    62.347718828210310
 Root    661 :    62.971039366070010
 Root    662 :    63.001752105793180
 Root    663 :    63.001838418081460
 Root    664 :    63.194333708579860
 Root    665 :    63.278815257167100
 Root    666 :    63.285132216242860
 Root    667 :    63.285181734899230
 Root    668 :    63.373200032527650
 Root    669 :    63.373213447902560
 Root    670 :    63.407282237198240
 Root    671 :    63.677464642247160
 Root    672 :    63.678939400849550
 Root    673 :    63.679031186476960
 Root    674 :    63.816349903204570
 Root    675 :    63.836235339396130
 Root    676 :    63.836253720643310
 Root    677 :    64.320899142251460
 Root    678 :    64.320917694246960
 Root    679 :    64.556189904883890
 Root    680 :    64.556253344130610
 Root    681 :    64.881373495431990
 Root    682 :    64.914476985946340
 Root    683 :    64.914596453856130
 Root    684 :    64.942233586309140
 Root    685 :    65.295889435641170
 Root    686 :    65.367999847287020
 Root    687 :    65.368002175689920
 Root    688 :    65.527653735056390
 Root    689 :    65.813891498374700
 Root    690 :    65.999418411354750
 Root    691 :    66.542411514373380
 Root    692 :    66.564436235998200
 Root    693 :    66.601302173176990
 Root    694 :    66.601319154288840
 Root    695 :    66.611939415580660
 Root    696 :    66.718056383908210
 Root    697 :    66.718368602913230
 Root    698 :    66.744058888424890
 Root    699 :    67.248859069175300
 Root    700 :    67.418119180427420
 Root    701 :    67.418437199822730
 Root    702 :    67.993099517159950
 Root    703 :    68.247669574136150
 Root    704 :    68.450523730910870
 Root    705 :    68.451046199517260
 Root    706 :    68.626176434375860
 Root    707 :    68.626280962309110
 Root    708 :    68.857815486263020
 Root    709 :    68.857897591632540
 Root    710 :    68.937862719056600
 Root    711 :    68.938017073030580
 Root    712 :    68.944783370002110
 Root    713 :    68.945293829969530
 Root    714 :    69.378225187411520
 Root    715 :    69.540361267090620
 Root    716 :    69.540387365942990
 Root    717 :    69.616727046165550
 Root    718 :    69.907207581939350
 Root    719 :    69.907535928427660
 Root    720 :    70.449887465266900
 Root    721 :    70.449980809751640
 Root    722 :    70.907533379239370
 Root    723 :    71.075897921430300
 Root    724 :    71.109793769873020
 Root    725 :    71.109797445168950
 Root    726 :    71.278996111171450
 Root    727 :    71.387779448025240
 Root    728 :    71.387784594726180
 Root    729 :    71.530281213240710
 Root    730 :    71.826551316166290
 Root    731 :    72.076741154028270
 Root    732 :    72.251651182649510
 Root    733 :    72.252651904323090
 Root    734 :    72.252673765412270
 Root    735 :    72.299463882460560
 Root    736 :    72.299491553162430
 Root    737 :    72.327997112225320
 Root    738 :    73.231665518487660
 Root    739 :    73.231728716214660
 Root    740 :    73.430194408333630
 Root    741 :    73.472528722639640
 Root    742 :    73.631268397140370
 Root    743 :    73.631277334954790
 Root    744 :    73.706940893082380
 Root    745 :    74.071327197434640
 Root    746 :    75.321793417257580
 Root    747 :    75.357437934842470
 Root    748 :    75.357648767871810
 Root    749 :    75.485670916757260
 Root    750 :    75.820479685633050
 Root    751 :    75.820724619253770
 Root    752 :    76.089483917869470
 Root    753 :    76.089575877874850
 Root    754 :    76.237672792065000
 Root    755 :    76.237942684636590
 Root    756 :    76.249687424656670
 Root    757 :    76.249988778578530
 Root    758 :    77.075505664421060
 Root    759 :    77.075798259740080
 Root    760 :    77.951955359068960
 Root    761 :    77.952418390734460
 Root    762 :    78.058674699420120
 Root    763 :    78.088458522468850
 Root    764 :    78.108894630043280
 Root    765 :    78.108952918031790
 Root    766 :    78.593860648194270
 Root    767 :    78.593996779693410
 Root    768 :    79.074587370512230
 Root    769 :    79.114783631192380
 Root    770 :    79.114790436066460
 Root    771 :    79.266679711129070
 Root    772 :    79.902321293924020
 Root    773 :    79.902401034612520
 Root    774 :    80.781899164252000
 Root    775 :    80.935480673544700
 Root    776 :    81.231995093816010
 Root    777 :    81.232052653689110
 Root    778 :    82.216580156337510
 Root    779 :    82.305796614563500
 Root    780 :    82.305807603908590
 Root    781 :    82.419061444321810
 Root    782 :    82.606229294508440
 Root    783 :    83.067262738753400
 Root    784 :    83.349488240126320
 Root    785 :    83.349653021185730
 Root    786 :    83.457551601539420
 Root    787 :    83.567730331475860
 Root    788 :    83.567946842012430
 Root    789 :    84.605874351700880
 Root    790 :    84.605956023797700
 Root    791 :    84.825284201599080
 Root    792 :    84.825458061049100
 Root    793 :    84.962629596177630
 Root    794 :    84.962758900608830
 Root    795 :    85.350360603663630
 Root    796 :    85.350474040902060
 Root    797 :    85.516497801882100
 Root    798 :    85.516600315475170
 Root    799 :    85.565933554286970
 Root    800 :    85.566191266639380
 Root    801 :    85.813191143195940
 Root    802 :    85.813478708278610
 Root    803 :    85.860415335597850
 Root    804 :    85.860657879668250
 Root    805 :    86.744084866421080
 Root    806 :    86.744136112006760
 Root    807 :    87.753787105250040
 Root    808 :    87.755265815157810
 Root    809 :    88.040572655850100
 Root    810 :    88.088708065787610
 Root    811 :    88.088727726304570
 Root    812 :    88.172072503951670
 Root    813 :    88.229547198377740
 Root    814 :    88.425220266382960
 Root    815 :    88.430094722898990
 Root    816 :    88.430105539128410
 Root    817 :    88.461411237260260
 Root    818 :    88.606827793453190
 Root    819 :    89.649944204625970
 Root    820 :    89.731511668131250
 Root    821 :    89.817460091031690
 Root    822 :    89.817479804199120
 Root    823 :    89.903130520112030
 Root    824 :    90.526777021782310
 Root    825 :    90.526872229686530
 Root    826 :    90.560062544523250
 Root    827 :    90.566421333410160
 Root    828 :    90.566532587730480
 Root    829 :    92.228594032531890
 Root    830 :    92.445085068940570
 Root    831 :    92.445232404815560
 Root    832 :    92.585660492078770
 Root    833 :    92.647606744350040
 Root    834 :    92.647623282747390
 Root    835 :    92.740560441754770
 Root    836 :    92.842499628987940
 Root    837 :    92.843026972654910
 Root    838 :    93.499954972149670
 Root    839 :    93.500573391676260
 Root    840 :    94.028693966555990
 Root    841 :    94.202218721159010
 Root    842 :    94.202234818370020
 Root    843 :    94.542047697204640
 Root    844 :    94.938968322498680
 Root    845 :    94.939202802199490
 Root    846 :    95.456537897143780
 Root    847 :    95.573758330692900
 Root    848 :    95.573802650289820
 Root    849 :    95.743509056761170
 Root    850 :    97.055086543062960
 Root    851 :    97.055753799953370
 Root    852 :    97.177105270924490
 Root    853 :    97.436577413773320
 Root    854 :    97.812705890846230
 Root    855 :    97.813378448237050
 Root    856 :    99.269588128776430
[...]
     11  -0.571367D-01  0.134192D+00  0.117022D+00 -0.336311D+00 -0.450623D+00
     12   0.570884D-01 -0.134144D+00 -0.117034D+00  0.336345D+00  0.450582D+00
     13   0.387349D-05 -0.129012D-04  0.170737D-04 -0.292924D-04  0.321690D-04
     14  -0.134329D+00 -0.569752D-01  0.336367D+00  0.117025D+00  0.203615D+00
     15   0.000000D+00  0.000000D+00  0.000000D+00  0.000000D+00  0.000000D+00
     16   0.000000D+00  0.000000D+00  0.000000D+00  0.000000D+00  0.000000D+00
               796           797           798           799           800 
      1  -0.113556D+03 -0.113550D+03 -0.113550D+03 -0.113548D+03 -0.113548D+03
      2  -0.622613D-02  0.000000D+00  0.000000D+00 -0.389009D-01  0.141022D+00
      3   0.817039D-01  0.000000D+00  0.000000D+00  0.141011D+00  0.388943D-01
      4   0.000000D+00 -0.149099D-05 -0.154685D-05  0.000000D+00  0.000000D+00
      5   0.151120D-01  0.000000D+00  0.000000D+00  0.110895D+00 -0.402266D+00
      6  -0.198323D+00  0.000000D+00  0.000000D+00 -0.402239D+00 -0.110878D+00
      7   0.000000D+00  0.432669D-05  0.476903D-05  0.000000D+00  0.000000D+00
      8   0.000000D+00  0.122991D-02 -0.376037D-01  0.000000D+00  0.000000D+00
      9   0.000000D+00 -0.376350D-01 -0.119357D-02  0.000000D+00  0.000000D+00
     10  -0.307030D-03  0.000000D+00  0.000000D+00 -0.621466D-04 -0.184754D-03
     11   0.203604D+00  0.000000D+00  0.000000D+00 -0.235890D+00  0.331005D+00
     12  -0.203575D+00  0.000000D+00  0.000000D+00  0.236247D+00 -0.331402D+00
     13  -0.406991D-05  0.000000D+00  0.000000D+00 -0.105281D-03  0.106976D-03
     14   0.450430D+00  0.000000D+00  0.000000D+00 -0.331223D+00 -0.236055D+00
     15   0.000000D+00  0.260632D+00  0.796490D-02  0.000000D+00  0.000000D+00
     16   0.000000D+00  0.800771D-02 -0.260654D+00  0.000000D+00  0.000000D+00
               801           802           803           804           805 
      1  -0.113539D+03 -0.113539D+03 -0.113538D+03 -0.113538D+03 -0.113505D+03
      2   0.000000D+00  0.000000D+00  0.000000D+00  0.000000D+00  0.000000D+00
      3   0.000000D+00  0.000000D+00  0.000000D+00  0.000000D+00  0.000000D+00
      4  -0.655166D-05  0.219883D-05 -0.201194D-05  0.197330D-05  0.000000D+00
      5   0.000000D+00  0.000000D+00  0.000000D+00  0.000000D+00  0.000000D+00
      6   0.000000D+00  0.000000D+00  0.000000D+00  0.000000D+00  0.000000D+00
      7   0.166883D-04 -0.553274D-05  0.745538D-05 -0.564577D-05 -0.186066D-05
      8   0.878550D-02  0.142526D+00 -0.663305D-01 -0.203201D-01  0.245840D+00
      9  -0.142521D+00  0.869014D-02 -0.203218D-01  0.662838D-01 -0.221460D-01
     10   0.000000D+00  0.000000D+00  0.000000D+00  0.000000D+00  0.000000D+00
     11   0.000000D+00  0.000000D+00  0.000000D+00  0.000000D+00  0.000000D+00
     12   0.000000D+00  0.000000D+00  0.000000D+00  0.000000D+00  0.000000D+00
     13   0.000000D+00  0.000000D+00  0.000000D+00  0.000000D+00  0.000000D+00
     14   0.000000D+00  0.000000D+00  0.000000D+00  0.000000D+00  0.000000D+00
     15  -0.637265D-01  0.427675D-02  0.884360D-01 -0.288396D+00  0.285718D-01
     16  -0.415758D-02 -0.637432D-01 -0.288388D+00 -0.884380D-01  0.319582D+00
               806           807           808           809           810 
      1  -0.113505D+03 -0.113468D+03 -0.113468D+03 -0.113457D+03 -0.113456D+03
      2   0.000000D+00 -0.173492D-04  0.000000D+00 -0.461560D-04  0.390433D-02
      3   0.000000D+00 -0.789647D-04  0.000000D+00 -0.152746D-04 -0.480528D-01
      4  -0.102989D-04  0.000000D+00 -0.821269D-01  0.000000D+00  0.000000D+00
      5   0.000000D+00  0.481651D-04  0.000000D+00  0.810680D-04 -0.882727D-02
      6   0.000000D+00  0.245987D-03  0.000000D+00  0.269452D-04  0.108711D+00
      7   0.307561D-04  0.000000D+00  0.218736D+00  0.000000D+00  0.000000D+00
      8  -0.221474D-01  0.000000D+00 -0.209782D-04  0.000000D+00  0.000000D+00
      9  -0.245808D+00  0.000000D+00 -0.295129D-04  0.000000D+00  0.000000D+00
     10   0.000000D+00 -0.372098D+00  0.000000D+00  0.422612D+00 -0.917480D-04
     11   0.000000D+00  0.301137D-03  0.000000D+00  0.454341D-03  0.651916D-01
     12   0.000000D+00  0.411624D-03  0.000000D+00  0.105571D-02 -0.652676D-01
     13   0.000000D+00 -0.798987D-03  0.000000D+00  0.278841D-03 -0.380504D-03
     14   0.000000D+00 -0.192589D-03  0.000000D+00  0.676303D-04  0.140601D+00
     15   0.319538D+00  0.000000D+00 -0.223023D-04  0.000000D+00  0.000000D+00
     16  -0.285758D-01  0.000000D+00  0.181378D-05  0.000000D+00  0.000000D+00
               811           812           813           814           815 
      1  -0.113456D+03 -0.113453D+03 -0.113451D+03 -0.113443D+03 -0.113443D+03
      2  -0.479962D-01  0.000000D+00 -0.794358D-05 -0.392538D-02  0.902980D-01
      3  -0.392955D-02  0.000000D+00 -0.209186D-04  0.433265D-03  0.202087D-01
      4   0.000000D+00 -0.350523D-05  0.000000D+00  0.000000D+00  0.000000D+00
      5   0.108541D+00  0.000000D+00  0.512505D-04  0.116709D-01 -0.268634D+00
      6   0.890999D-02  0.000000D+00  0.321991D-04 -0.129092D-02 -0.601319D-01
      7   0.000000D+00  0.106209D-04  0.000000D+00  0.000000D+00  0.000000D+00
      8   0.000000D+00  0.120960D-04  0.000000D+00  0.000000D+00  0.000000D+00
      9   0.000000D+00 -0.528058D-05  0.000000D+00  0.000000D+00  0.000000D+00
     10  -0.548587D-03  0.000000D+00  0.154891D-03  0.736128D-03 -0.532817D-02
     11  -0.140867D+00  0.000000D+00 -0.151481D-01  0.613047D-01 -0.195419D+00
     12   0.141062D+00  0.000000D+00 -0.155640D-01  0.419318D-01  0.200135D+00
     13   0.315225D-03  0.000000D+00  0.493759D+00  0.205524D+00  0.856114D-02
     14   0.652541D-01  0.000000D+00  0.798306D-04 -0.239335D-02  0.126775D+00
     15   0.000000D+00  0.222826D-04  0.000000D+00  0.000000D+00  0.000000D+00
     16   0.000000D+00  0.512224D-04  0.000000D+00  0.000000D+00  0.000000D+00
               816           817           818           819           820 
      1  -0.113443D+03 -0.113442D+03 -0.113437D+03 -0.113398D+03 -0.113395D+03
      2   0.201757D-01 -0.274809D-03  0.245969D-04 -0.229622D-04  0.000000D+00
      3  -0.904128D-01 -0.104891D-02  0.000000D+00  0.100381D-04  0.000000D+00
      4   0.000000D+00  0.000000D+00  0.000000D+00  0.000000D+00 -0.161499D-03
      5  -0.600385D-01  0.819727D-03 -0.853349D-04  0.644977D-04  0.000000D+00
      6   0.268972D+00  0.312307D-02  0.493413D-05 -0.295315D-04  0.000000D+00
      7   0.000000D+00  0.000000D+00  0.000000D+00  0.000000D+00  0.482301D-03
      8   0.000000D+00  0.000000D+00  0.000000D+00  0.000000D+00  0.100935D-02
      9   0.000000D+00  0.000000D+00  0.000000D+00  0.000000D+00 -0.196257D-03
     10   0.108291D-01 -0.103772D+01  0.256869D-03 -0.600254D-04  0.000000D+00
     11  -0.125996D+00 -0.100500D-02 -0.630534D+00 -0.145880D+00  0.000000D+00
     12   0.127623D+00 -0.261399D-03 -0.630369D+00 -0.146052D+00  0.000000D+00
     13   0.291282D-02  0.241648D-02 -0.181468D+00 -0.382006D-01  0.000000D+00
     14  -0.198204D+00 -0.283834D-02  0.224182D-04  0.139738D-04  0.000000D+00
     15   0.000000D+00  0.000000D+00  0.000000D+00  0.000000D+00  0.223488D-03
     16   0.000000D+00  0.000000D+00  0.000000D+00  0.000000D+00  0.116467D-02
               821           822           823           824           825 
      1  -0.113392D+03 -0.113392D+03 -0.113389D+03 -0.113366D+03 -0.113366D+03
      2   0.000000D+00  0.000000D+00  0.000000D+00  0.000000D+00  0.000000D+00
      3   0.000000D+00  0.000000D+00  0.000000D+00  0.000000D+00  0.000000D+00
      4   0.463251D-04 -0.422967D-03 -0.100784D+00 -0.489637D-05  0.235606D-05
      5   0.000000D+00  0.000000D+00  0.000000D+00  0.000000D+00  0.000000D+00
      6   0.000000D+00  0.000000D+00  0.000000D+00  0.000000D+00  0.000000D+00
      7  -0.139040D-03  0.126900D-02  0.308108D+00  0.145177D-04 -0.722353D-05
      8   0.318184D+00 -0.265905D-01  0.316163D-03  0.242343D+00  0.462732D-02
      9  -0.264771D-01 -0.318261D+00  0.131259D-02  0.462315D-02 -0.242353D+00
     10   0.000000D+00  0.000000D+00  0.000000D+00  0.000000D+00  0.000000D+00
     11   0.000000D+00  0.000000D+00  0.000000D+00  0.000000D+00  0.000000D+00
     12   0.000000D+00  0.000000D+00  0.000000D+00  0.000000D+00  0.000000D+00
     13   0.000000D+00  0.000000D+00  0.000000D+00  0.000000D+00  0.000000D+00
     14   0.000000D+00  0.000000D+00  0.000000D+00  0.000000D+00  0.000000D+00
     15   0.296868D-01  0.351274D+00 -0.145115D-02  0.383078D-05  0.983707D-02
     16   0.351230D+00 -0.297558D-01  0.330587D-03  0.983733D-02 -0.170127D-05
               826           827           828           829           830 
      1  -0.113365D+03 -0.113365D+03 -0.113365D+03 -0.113304D+03 -0.113296D+03
      2   0.000000D+00  0.618295D-01  0.200953D-02  0.000000D+00 -0.553806D-03
      3   0.000000D+00  0.201443D-02 -0.618197D-01  0.000000D+00 -0.251601D-01
      4   0.178647D+00  0.000000D+00  0.000000D+00 -0.167902D-04  0.000000D+00
      5   0.000000D+00 -0.135093D+00 -0.433002D-02  0.000000D+00  0.135209D-02
      6   0.000000D+00 -0.434585D-02  0.135067D+00  0.000000D+00  0.594543D-01
      7  -0.470873D+00  0.000000D+00  0.000000D+00  0.564733D-04  0.000000D+00
      8  -0.553790D-04  0.000000D+00  0.000000D+00  0.657362D-04  0.000000D+00
      9  -0.790041D-04  0.000000D+00  0.000000D+00 -0.393774D-04  0.000000D+00
     10   0.000000D+00 -0.198596D-03 -0.135583D-03  0.000000D+00  0.817024D-04
     11   0.000000D+00 -0.657123D+00 -0.263687D+00  0.000000D+00 -0.221134D-01
     12   0.000000D+00  0.656984D+00  0.263602D+00  0.000000D+00  0.221141D-01
     13   0.000000D+00 -0.871706D-05 -0.169586D-04  0.000000D+00 -0.337804D-05
     14   0.000000D+00  0.263647D+00 -0.657102D+00  0.000000D+00 -0.648797D-01
     15   0.908679D-04  0.000000D+00  0.000000D+00  0.516899D-04  0.000000D+00
     16  -0.437419D-04  0.000000D+00  0.000000D+00  0.842235D-04  0.000000D+00
               831           832           833           834           835 
      1  -0.113296D+03 -0.113290D+03 -0.113288D+03 -0.113288D+03 -0.113285D+03
      2  -0.251983D-01  0.000000D+00  0.000000D+00  0.000000D+00  0.000000D+00
      3   0.560396D-03  0.000000D+00  0.000000D+00  0.000000D+00  0.000000D+00
      4   0.000000D+00 -0.114091D-03  0.181158D-03 -0.231985D-03 -0.105227D+00
      5   0.595701D-01  0.000000D+00  0.000000D+00  0.000000D+00  0.000000D+00
      6  -0.137317D-02  0.000000D+00  0.000000D+00  0.000000D+00  0.000000D+00
      7   0.000000D+00  0.373533D-03 -0.550801D-03  0.704789D-03  0.323133D+00
      8   0.000000D+00  0.158832D-02  0.278781D+00  0.124561D-01  0.406258D-03
      9   0.000000D+00 -0.975723D-03  0.124706D-01 -0.278842D+00  0.554398D-03
     10   0.637772D-04  0.000000D+00  0.000000D+00  0.000000D+00  0.000000D+00
     11   0.649657D-01  0.000000D+00  0.000000D+00  0.000000D+00  0.000000D+00
     12  -0.649432D-01  0.000000D+00  0.000000D+00  0.000000D+00  0.000000D+00
     13  -0.204003D-04  0.000000D+00  0.000000D+00  0.000000D+00  0.000000D+00
     14  -0.221158D-01  0.000000D+00  0.000000D+00  0.000000D+00  0.000000D+00
     15   0.000000D+00  0.166791D-02 -0.226664D-01  0.479453D+00 -0.977031D-03
     16   0.000000D+00  0.274309D-02  0.479394D+00  0.226470D-01  0.702970D-03
               836           837           838           839           840 
      1  -0.113281D+03 -0.113281D+03 -0.113257D+03 -0.113257D+03 -0.113237D+03
      2   0.511782D-02  0.720019D-01  0.000000D+00  0.000000D+00  0.496472D-04
      3   0.720202D-01 -0.511386D-02  0.000000D+00  0.000000D+00  0.789142D-04
      4   0.000000D+00  0.000000D+00  0.000000D+00  0.000000D+00  0.000000D+00
      5  -0.157162D-01 -0.221055D+00  0.000000D+00  0.000000D+00 -0.158006D-03
      6  -0.221100D+00  0.157044D-01  0.000000D+00  0.000000D+00 -0.253570D-03
      7   0.000000D+00  0.000000D+00  0.000000D+00 -0.880348D-05  0.000000D+00
      8   0.000000D+00  0.000000D+00 -0.368630D+00  0.276362D-01  0.000000D+00
      9   0.000000D+00  0.000000D+00  0.276340D-01  0.368602D+00  0.000000D+00
     10   0.510615D-04 -0.245218D-03  0.000000D+00  0.000000D+00 -0.446324D-01
     11   0.233066D-01 -0.798488D-01  0.000000D+00  0.000000D+00  0.297520D-03
     12  -0.232631D-01  0.797324D-01  0.000000D+00  0.000000D+00 -0.532552D-04
     13  -0.257904D-04  0.581339D-04  0.000000D+00  0.000000D+00  0.401185D-03
     14   0.798381D-01  0.232863D-01  0.000000D+00  0.000000D+00 -0.490097D-03
     15   0.000000D+00  0.000000D+00 -0.420484D-01 -0.564171D+00  0.000000D+00
     16   0.000000D+00  0.000000D+00 -0.564211D+00  0.420481D-01  0.000000D+00
               841           842           843           844           845 
      1  -0.113231D+03 -0.113231D+03 -0.113219D+03 -0.113204D+03 -0.113204D+03
      2   0.543178D-01  0.317686D-02 -0.511274D-04  0.649713D-02 -0.212891D-01
      3  -0.317409D-02  0.543191D-01  0.318659D-04 -0.212931D-01 -0.649767D-02
      4   0.000000D+00  0.000000D+00  0.000000D+00  0.000000D+00  0.000000D+00
      5  -0.175880D+00 -0.103071D-01  0.164698D-03 -0.248236D-01  0.812514D-01
      6   0.102977D-01 -0.175883D+00 -0.101860D-03  0.812609D-01  0.248251D-01
      7   0.000000D+00  0.000000D+00  0.000000D+00  0.000000D+00  0.000000D+00
      8   0.000000D+00  0.000000D+00  0.000000D+00  0.000000D+00  0.000000D+00
      9   0.000000D+00  0.000000D+00  0.000000D+00  0.000000D+00  0.000000D+00
     10  -0.710991D-04  0.126508D-03  0.691571D-03 -0.473820D-04  0.231714D-03
     11   0.285320D+00 -0.848270D-01 -0.878945D+00  0.415287D-01 -0.556960D-01
     12  -0.287034D+00  0.856926D-01 -0.878335D+00 -0.414900D-01  0.556588D-01
     13  -0.102198D-03  0.499400D-04 -0.952300D-01  0.194270D-04 -0.181287D-04
     14  -0.852447D-01 -0.286185D+00 -0.664387D-04  0.557232D-01  0.414946D-01
     15   0.000000D+00  0.000000D+00  0.000000D+00  0.000000D+00  0.000000D+00
     16   0.000000D+00  0.000000D+00  0.000000D+00  0.000000D+00  0.000000D+00
               846           847           848           849           850 
      1  -0.113185D+03 -0.113181D+03 -0.113181D+03 -0.113174D+03 -0.113126D+03
      2  -0.157510D-04 -0.897817D-03 -0.388259D-01  0.810297D-04  0.000000D+00
      3  -0.892951D-04 -0.388187D-01  0.898555D-03 -0.175233D-04  0.000000D+00
      4   0.000000D+00  0.000000D+00  0.000000D+00  0.000000D+00 -0.467469D-05
      5   0.434384D-04  0.252340D-02  0.108089D+00 -0.223806D-03  0.000000D+00
      6   0.247865D-03  0.108065D+00 -0.252457D-02  0.489546D-04  0.000000D+00
      7   0.000000D+00  0.000000D+00  0.000000D+00  0.000000D+00  0.165993D-04
      8   0.000000D+00  0.000000D+00  0.000000D+00  0.000000D+00 -0.481651D+00
      9   0.000000D+00  0.000000D+00  0.000000D+00  0.000000D+00 -0.544921D-01
     10  -0.498247D-01  0.103740D-03  0.444293D-04  0.100732D-04  0.000000D+00
     11  -0.260556D-02  0.124465D+00 -0.363817D+00  0.689149D+00  0.000000D+00
     12  -0.292016D-02 -0.125052D+00  0.366729D+00  0.687626D+00  0.000000D+00
     13   0.208771D-03  0.452932D-04 -0.283638D-03 -0.121685D+00  0.000000D+00
     14   0.825648D-03  0.365241D+00  0.124778D+00 -0.108878D-03  0.000000D+00
     15   0.000000D+00  0.000000D+00  0.000000D+00  0.000000D+00  0.604052D-01
     16   0.000000D+00  0.000000D+00  0.000000D+00  0.000000D+00 -0.538965D+00
               851           852           853           854           855 
      1  -0.113126D+03 -0.113122D+03 -0.113112D+03 -0.113098D+03 -0.113098D+03
      2   0.000000D+00  0.171693D-04  0.000000D+00  0.932790D-02 -0.862486D-01
      3   0.000000D+00  0.974430D-05  0.000000D+00 -0.862475D-01 -0.933204D-02
      4   0.106916D-04  0.000000D+00  0.176236D+00  0.000000D+00  0.000000D+00
      5   0.000000D+00 -0.596471D-04  0.000000D+00 -0.288149D-01  0.266613D+00
      6   0.000000D+00 -0.284599D-04  0.000000D+00  0.266607D+00  0.288297D-01
      7  -0.374547D-04  0.000000D+00 -0.514622D+00  0.000000D+00  0.000000D+00
      8  -0.544872D-01  0.000000D+00 -0.338799D-04  0.000000D+00  0.000000D+00
      9   0.481650D+00  0.000000D+00 -0.613066D-04  0.000000D+00  0.000000D+00
     10   0.000000D+00  0.450670D-01  0.000000D+00 -0.176613D-03  0.107466D-03
     11   0.000000D+00 -0.113267D-05  0.000000D+00  0.100530D+00 -0.204965D+00
     12   0.000000D+00  0.157365D-03  0.000000D+00 -0.100679D+00  0.205192D+00
     13   0.000000D+00 -0.484656D-04  0.000000D+00  0.282691D-04 -0.627161D-04
     14   0.000000D+00 -0.357771D-04  0.000000D+00  0.205078D+00  0.100582D+00
     15  -0.538966D+00  0.000000D+00  0.106114D-03  0.000000D+00  0.000000D+00
     16  -0.604028D-01  0.000000D+00 -0.545454D-04  0.000000D+00  0.000000D+00
               856           857           858           859           860 
      1  -0.113045D+03 -0.113027D+03 -0.113026D+03 -0.113026D+03 -0.113020D+03
      2   0.609465D-05  0.000000D+00  0.000000D+00  0.000000D+00  0.000000D+00
      3   0.592549D-05  0.000000D+00  0.000000D+00  0.000000D+00  0.000000D+00
      4   0.000000D+00  0.667426D-03  0.146230D-03 -0.697405D-04  0.652491D-01
      5  -0.192687D-04  0.000000D+00  0.000000D+00  0.000000D+00  0.000000D+00
      6  -0.202346D-04  0.000000D+00  0.000000D+00  0.000000D+00  0.000000D+00
      7   0.000000D+00 -0.234153D-02 -0.421112D-03  0.203831D-03 -0.188748D+00
      8   0.000000D+00 -0.549250D-03  0.137478D-01 -0.108801D+00 -0.100623D-03
      9   0.000000D+00  0.371563D-03  0.108823D+00  0.137860D-01 -0.256561D-03
     10  -0.318590D-04  0.000000D+00  0.000000D+00  0.000000D+00  0.000000D+00
     11  -0.743205D-01  0.000000D+00  0.000000D+00  0.000000D+00  0.000000D+00
     12  -0.742254D-01  0.000000D+00  0.000000D+00  0.000000D+00  0.000000D+00
     13   0.147597D+00  0.000000D+00  0.000000D+00  0.000000D+00  0.000000D+00
     14   0.260721D-04  0.000000D+00  0.000000D+00  0.000000D+00  0.000000D+00
     15   0.000000D+00 -0.346960D-03 -0.101693D+00 -0.123802D-01  0.205407D-03
     16   0.000000D+00 -0.502213D-03  0.122833D-01 -0.101519D+00  0.518823D-05
               861           862           863           864 
      1  -0.112936D+03 -0.112936D+03 -0.112777D+03 -0.112777D+03
      2   0.359610D-02  0.481591D-01  0.000000D+00  0.000000D+00
      3   0.481575D-01 -0.359557D-02  0.000000D+00  0.000000D+00
      4   0.000000D+00  0.000000D+00  0.321791D-05 -0.628412D-05
      5  -0.101677D-01 -0.136867D+00  0.000000D+00  0.000000D+00
      6  -0.136860D+00  0.101657D-01  0.000000D+00  0.000000D+00
      7   0.000000D+00  0.000000D+00 -0.106004D-04  0.207039D-04
      8   0.000000D+00  0.000000D+00  0.483074D+00  0.536674D-01
      9   0.000000D+00  0.000000D+00  0.536712D-01 -0.483076D+00
     10   0.178051D-04  0.168791D-04  0.000000D+00  0.000000D+00
     11  -0.332028D-01  0.114085D+00  0.000000D+00  0.000000D+00
     12   0.332136D-01 -0.114097D+00  0.000000D+00  0.000000D+00
     13  -0.249535D-05 -0.403722D-05  0.000000D+00  0.000000D+00
     14  -0.114089D+00 -0.332104D-01  0.000000D+00  0.000000D+00
     15   0.000000D+00  0.000000D+00 -0.526140D-01  0.472959D+00
     16   0.000000D+00  0.000000D+00  0.472962D+00  0.526112D-01
 Unable to Open any file for archive entry.
 1\1\GINC-HEL12\SP\RSVWN5 TD-FC\Gen\C3H6\SABYASACHI\21-Mar-2022\0\\#P T
 D(Nstates=10000) svwn5/Gen SCF(maxcycles=100) Int(Grid=ultrafine)\\xGD
 B7_00001_tier4.com\\0,1\C,0,0.516845,0.69483,0.\C,0,-0.860166,0.100195
 ,0.\C,0,0.343308,-0.795021,0.\H,0,0.866514,1.164858,0.909176\H,0,0.866
 513,1.164859,-0.909176\H,0,-1.442047,0.167964,-0.909177\H,0,-1.442048,
 0.167965,0.909176\H,0,0.575574,-1.332837,-0.909179\H,0,0.575574,-1.332
 837,0.909179\\Version=EM64L-G16RevC.01\State=1-A'\HF=-116.6929085\RMSD
 =5.161e-09\PG=CS [SG(C3),X(H6)]\\@
 The archive entry for this job was punched.


 Mondays are the potholes in the road of life.
                                -- Tom Wilson
 Job cpu time:       0 days  0 hours  5 minutes 23.8 seconds.
 Elapsed time:       0 days  0 hours  0 minutes 40.8 seconds.
 File lengths (MBytes):  RWF=    377 Int=      0 D2E=      0 Chk=    240 Scr=      1
 Normal termination of Gaussian 16 at Mon Mar 21 19:55:53 2022.
