 Entering Gaussian System, Link 0=g16
 Input=000028.com
 Output=000028.log
 Initial command:
 /home/sabyasachi/g16/l1.exe "/scratch/sabyasachi/PBS_7975865.helios/Gau-152329.inp" -scrdir="/scratch/sabyasachi/PBS_7975865.helios/"
 Entering Link 1 = /home/sabyasachi/g16/l1.exe PID=    152330.
  
 Copyright (c) 1988-2019, Gaussian, Inc.  All Rights Reserved.
  
 This is part of the Gaussian(R) 16 program.  It is based on
 the Gaussian(R) 09 system (copyright 2009, Gaussian, Inc.),
 the Gaussian(R) 03 system (copyright 2003, Gaussian, Inc.),
 the Gaussian(R) 98 system (copyright 1998, Gaussian, Inc.),
 the Gaussian(R) 94 system (copyright 1995, Gaussian, Inc.),
 the Gaussian 92(TM) system (copyright 1992, Gaussian, Inc.),
 the Gaussian 90(TM) system (copyright 1990, Gaussian, Inc.),
 the Gaussian 88(TM) system (copyright 1988, Gaussian, Inc.),
 the Gaussian 86(TM) system (copyright 1986, Carnegie Mellon
 University), and the Gaussian 82(TM) system (copyright 1983,
 Carnegie Mellon University). Gaussian is a federally registered
 trademark of Gaussian, Inc.
  
 This software contains proprietary and confidential information,
 including trade secrets, belonging to Gaussian, Inc.
  
 This software is provided under written license and may be
 used, copied, transmitted, or stored only in accord with that
 written license.
  
 The following legend is applicable only to US Government
 contracts under FAR:
  
                    RESTRICTED RIGHTS LEGEND
  
 Use, reproduction and disclosure by the US Government is
 subject to restrictions as set forth in subparagraphs (a)
 and (c) of the Commercial Computer Software - Restricted
 Rights clause in FAR 52.227-19.
  
 Gaussian, Inc.
 340 Quinnipiac St., Bldg. 40, Wallingford CT 06492
  
  
 ---------------------------------------------------------------
 Warning -- This program may not be used in any manner that
 competes with the business of Gaussian, Inc. or will provide
 assistance to any competitor of Gaussian, Inc.  The licensee
 of this program is prohibited from giving any competitor of
 Gaussian, Inc. access to this program.  By using this program,
 the user acknowledges that Gaussian, Inc. is engaged in the
 business of creating and licensing software in the field of
 computational chemistry and represents and warrants to the
 licensee that it is not a competitor of Gaussian, Inc. and that
 it will not use this program in any manner prohibited above.
 ---------------------------------------------------------------
  

 Cite this work as:
 Gaussian 16, Revision C.01,
 M. J. Frisch, G. W. Trucks, H. B. Schlegel, G. E. Scuseria, 
 M. A. Robb, J. R. Cheeseman, G. Scalmani, V. Barone, 
 G. A. Petersson, H. Nakatsuji, X. Li, M. Caricato, A. V. Marenich, 
 J. Bloino, B. G. Janesko, R. Gomperts, B. Mennucci, H. P. Hratchian, 
 J. V. Ortiz, A. F. Izmaylov, J. L. Sonnenberg, D. Williams-Young, 
 F. Ding, F. Lipparini, F. Egidi, J. Goings, B. Peng, A. Petrone, 
 T. Henderson, D. Ranasinghe, V. G. Zakrzewski, J. Gao, N. Rega, 
 G. Zheng, W. Liang, M. Hada, M. Ehara, K. Toyota, R. Fukuda, 
 J. Hasegawa, M. Ishida, T. Nakajima, Y. Honda, O. Kitao, H. Nakai, 
 T. Vreven, K. Throssell, J. A. Montgomery, Jr., J. E. Peralta, 
 F. Ogliaro, M. J. Bearpark, J. J. Heyd, E. N. Brothers, K. N. Kudin, 
 V. N. Staroverov, T. A. Keith, R. Kobayashi, J. Normand, 
 K. Raghavachari, A. P. Rendell, J. C. Burant, S. S. Iyengar, 
 J. Tomasi, M. Cossi, J. M. Millam, M. Klene, C. Adamo, R. Cammi, 
 J. W. Ochterski, R. L. Martin, K. Morokuma, O. Farkas, 
 J. B. Foresman, and D. J. Fox, Gaussian, Inc., Wallingford CT, 2019.
 
 ******************************************
 Gaussian 16:  EM64L-G16RevC.01  3-Jul-2019
                21-Mar-2022 
 ******************************************
 %mem=64gb
 %nproc=8
 Will use up to    8 processors via shared memory.
 ---------------------------------------------------------------------
 #P TD(Nstates=10000) svwn5/Gen SCF(maxcycles=100) Int(Grid=ultrafine)
 ---------------------------------------------------------------------
 1/38=1,172=1/1;
 2/12=2,17=6,18=5,40=1/2;
 3/5=7,11=9,25=1,30=1,74=201,75=-5/1,2,3,8;
 4//1;
 5/5=2,7=100,38=5/2;
 8/6=1,10=1,108=10000/1;
 9/41=10000,42=1,70=2/14;
 6/7=2,8=2,9=2,10=2/1;
 99/5=1,9=1/99;
 Leave Link    1 at Mon Mar 21 20:05:55 2022, MaxMem=  8589934592 cpu:               0.4 elap:               0.1
 (Enter /home/sabyasachi/g16/l101.exe)
 ---------------------
 xGDB7_00001_tier4.com
 ---------------------
 Symbolic Z-matrix:
 Charge =  0 Multiplicity = 1
 7                     1.10644   0.14251  -0.09098 
 7                    -0.08075  -0.51252   0.00607 
 6                    -1.1487    0.16746   0.00817 
 1                     1.85475  -0.40992   0.29153 
 1                     1.10968   1.10045   0.24271 
 1                    -2.08985  -0.3662    0.03525 
 1                    -1.16221   1.26097  -0.02408 
 
 ITRead=  0  0  0  0  0  0  0
 MicOpt= -1 -1 -1 -1 -1 -1 -1
 NAtoms=      7 NQM=        7 NQMF=       0 NMMI=      0 NMMIF=      0
                NMic=       0 NMicF=      0.
                    Isotopes and Nuclear Properties:
 (Nuclear quadrupole moments (NQMom) in fm**2, nuclear magnetic moments (NMagM)
  in nuclear magnetons)

  Atom         1           2           3           4           5           6           7
 IAtWgt=          14          14          12           1           1           1           1
 AtmWgt=  14.0030740  14.0030740  12.0000000   1.0078250   1.0078250   1.0078250   1.0078250
 NucSpn=           2           2           0           1           1           1           1
 AtZEff=  -0.0000000  -0.0000000  -0.0000000  -0.0000000  -0.0000000  -0.0000000  -0.0000000
 NQMom=    2.0440000   2.0440000   0.0000000   0.0000000   0.0000000   0.0000000   0.0000000
 NMagM=    0.4037610   0.4037610   0.0000000   2.7928460   2.7928460   2.7928460   2.7928460
 AtZNuc=   7.0000000   7.0000000   6.0000000   1.0000000   1.0000000   1.0000000   1.0000000
 Leave Link  101 at Mon Mar 21 20:05:56 2022, MaxMem=  8589934592 cpu:               0.6 elap:               0.1
 (Enter /home/sabyasachi/g16/l202.exe)
                          Input orientation:                          
 ---------------------------------------------------------------------
 Center     Atomic      Atomic             Coordinates (Angstroms)
 Number     Number       Type             X           Y           Z
 ---------------------------------------------------------------------
      1          7           0        1.106441    0.142513   -0.090982
      2          7           0       -0.080753   -0.512520    0.006066
      3          6           0       -1.148696    0.167456    0.008166
      4          1           0        1.854749   -0.409916    0.291533
      5          1           0        1.109677    1.100453    0.242713
      6          1           0       -2.089851   -0.366199    0.035249
      7          1           0       -1.162208    1.260974   -0.024080
 ---------------------------------------------------------------------
                    Distance matrix (angstroms):
                    1          2          3          4          5
     1  N    0.000000
     2  N    1.359381   0.000000
     3  C    2.257453   1.266047   0.000000
     4  H    1.005714   1.959129   3.071537   0.000000
     5  H    1.014402   2.018615   2.454739   1.684853   0.000000
     6  H    3.238982   2.014631   1.082263   3.953158   3.525775
     7  H    2.530257   2.077435   1.094077   3.463165   2.293122
                    6          7
     6  H    0.000000
     7  H    1.873962   0.000000
 Stoichiometry    CH4N2
 Framework group  C1[X(CH4N2)]
 Deg. of freedom    15
 Full point group                 C1      NOp   1
 Largest Abelian subgroup         C1      NOp   1
 Largest concise Abelian subgroup C1      NOp   1
                         Standard orientation:                         
 ---------------------------------------------------------------------
 Center     Atomic      Atomic             Coordinates (Angstroms)
 Number     Number       Type             X           Y           Z
 ---------------------------------------------------------------------
      1          7           0        1.106441    0.142513   -0.090982
      2          7           0       -0.080753   -0.512520    0.006066
      3          6           0       -1.148696    0.167456    0.008166
      4          1           0        1.854749   -0.409916    0.291533
      5          1           0        1.109676    1.100453    0.242713
      6          1           0       -2.089851   -0.366199    0.035249
      7          1           0       -1.162209    1.260974   -0.024080
 ---------------------------------------------------------------------
 Rotational constants (GHZ):          66.3844039          11.5398193           9.9244358
 Leave Link  202 at Mon Mar 21 20:05:56 2022, MaxMem=  8589934592 cpu:               0.1 elap:               0.0
 (Enter /home/sabyasachi/g16/l301.exe)
 General basis read from cards:  (5D, 7F)
 Centers:       4      5      6      7
 S 3 1.00
     Exponent=  1.3010701000D+01 Coefficients=  1.9682158000D-02
     Exponent=  1.9622572000D+00 Coefficients=  1.3796524000D-01
     Exponent=  4.4453796000D-01 Coefficients=  4.7831935000D-01
 S 1 1.00
     Exponent=  1.2194962000D-01 Coefficients=  1.0000000000D+00
 P 1 1.00
     Exponent=  8.0000000000D-01 Coefficients=  1.0000000000D+00
 P 1 1.00
     Exponent=  1.1704099050D-01 Coefficients=  1.0000000000D+00
 ****
 Centers:       3
 S 5 1.00
     Exponent=  1.2384016938D+03 Coefficients=  5.4568832082D-03
     Exponent=  1.8629004992D+02 Coefficients=  4.0638409211D-02
     Exponent=  4.2251176346D+01 Coefficients=  1.8025593888D-01
     Exponent=  1.1676557932D+01 Coefficients=  4.6315121755D-01
     Exponent=  3.5930506482D+00 Coefficients=  4.4087173314D-01
 S 1 1.00
     Exponent=  4.0245147363D-01 Coefficients=  1.0000000000D+00
 S 1 1.00
     Exponent=  1.3090182668D-01 Coefficients=  1.0000000000D+00
 S 1 1.00
     Exponent=  6.7053540256D-02 Coefficients=  1.0000000000D+00
 P 3 1.00
     Exponent=  9.4680970621D+00 Coefficients=  3.8387871728D-02
     Exponent=  2.0103545142D+00 Coefficients=  2.1117025112D-01
     Exponent=  5.4771004707D-01 Coefficients=  5.1328172114D-01
 P 1 1.00
     Exponent=  1.5268613795D-01 Coefficients=  1.0000000000D+00
 D 1 1.00
     Exponent=  8.0000000000D-01 Coefficients=  1.0000000000D+00
 D 1 1.00
     Exponent=  1.1713185140D-01 Coefficients=  1.0000000000D+00
 ****
 Centers:       1      2
 S 5 1.00
     Exponent=  1.7128415853D+03 Coefficients= -5.3934125305D-03
     Exponent=  2.5764812677D+02 Coefficients= -4.0221581118D-02
     Exponent=  5.8458245853D+01 Coefficients= -1.7931144990D-01
     Exponent=  1.6198367905D+01 Coefficients= -4.6376317823D-01
     Exponent=  5.0052600809D+00 Coefficients= -4.4171422662D-01
 S 1 1.00
     Exponent=  5.8731856571D-01 Coefficients=  1.0000000000D+00
 S 1 1.00
     Exponent=  1.8764592253D-01 Coefficients=  1.0000000000D+00
 S 1 1.00
     Exponent=  9.6171241529D-02 Coefficients=  1.0000000000D+00
 P 3 1.00
     Exponent=  1.3571470233D+01 Coefficients= -4.0072398852D-02
     Exponent=  2.9257372874D+00 Coefficients= -2.1807045028D-01
     Exponent=  7.9927750754D-01 Coefficients= -5.1294466049D-01
 P 1 1.00
     Exponent=  2.1954348034D-01 Coefficients=  1.0000000000D+00
 D 1 1.00
     Exponent=  1.0000000000D+00 Coefficients=  1.0000000000D+00
 D 1 1.00
     Exponent=  1.6697708112D-01 Coefficients=  1.0000000000D+00
 ****
 Ernie: Thresh=  0.10000D-02 Tol=  0.10000D-05 Strict=F.
 There are    98 symmetry adapted cartesian basis functions of A   symmetry.
 There are    92 symmetry adapted basis functions of A   symmetry.
    92 basis functions,   136 primitive gaussians,    98 cartesian basis functions
    12 alpha electrons       12 beta electrons
       nuclear repulsion energy        73.1919062595 Hartrees.
 IExCor=  201 DFT=T Ex=S Corr=VWN5 ExCW=0 ScaHFX=  0.000000
 ScaDFX=  1.000000  1.000000  1.000000  1.000000 ScalE2=  1.000000  1.000000
 IRadAn=      5 IRanWt=     -1 IRanGd=            0 ICorTp=0 IEmpDi=  4
 NAtoms=    7 NActive=    7 NUniq=    7 SFac= 1.00D+00 NAtFMM=   60 NAOKFM=F Big=F
 Integral buffers will be    131072 words long.
 Regular integral format.
 Two-electron integral symmetry is turned on.
 Leave Link  301 at Mon Mar 21 20:05:56 2022, MaxMem=  8589934592 cpu:               0.6 elap:               0.1
 (Enter /home/sabyasachi/g16/l302.exe)
 NPDir=0 NMtPBC=     1 NCelOv=     1 NCel=       1 NClECP=     1 NCelD=      1
         NCelK=      1 NCelE2=     1 NClLst=     1 CellRange=     0.0.
 One-electron integrals computed using PRISM.
 One-electron integral symmetry used in STVInt
 NBasis=    92 RedAO= T EigKep=  3.91D-04  NBF=    92
 NBsUse=    92 1.00D-06 EigRej= -1.00D+00 NBFU=    92
 Precomputing XC quadrature grid using
 IXCGrd= 4 IRadAn=           5 IRanWt=          -1 IRanGd=           0 AccXCQ= 0.00D+00.
 Generated NRdTot=       0 NPtTot=           0 NUsed=           0 NTot=          32
 NSgBfM=    98    98    98    98    98 MxSgAt=     7 MxSgA2=     7.
 Leave Link  302 at Mon Mar 21 20:05:56 2022, MaxMem=  8589934592 cpu:               1.0 elap:               0.1
 (Enter /home/sabyasachi/g16/l303.exe)
 DipDrv:  MaxL=1.
 Leave Link  303 at Mon Mar 21 20:05:56 2022, MaxMem=  8589934592 cpu:               0.2 elap:               0.0
 (Enter /home/sabyasachi/g16/l308.exe)
 Leave Link  308 at Mon Mar 21 20:05:56 2022, MaxMem=  8589934592 cpu:               0.2 elap:               0.1
 (Enter /home/sabyasachi/g16/l401.exe)
 ExpMin= 6.71D-02 ExpMax= 1.71D+03 ExpMxC= 2.58D+02 IAcc=3 IRadAn=         5 AccDes= 0.00D+00
 Harris functional with IExCor=  201 and IRadAn=       5 diagonalized for initial guess.
 HarFok:  IExCor=  201 AccDes= 0.00D+00 IRadAn=         5 IDoV= 1 UseB2=F ITyADJ=14
 ICtDFT=  3500011 ScaDFX=  1.000000  1.000000  1.000000  1.000000
 FoFCou: FMM=F IPFlag=           0 FMFlag=      100000 FMFlg1=           0
         NFxFlg=           0 DoJE=T BraDBF=F KetDBF=T FulRan=T
         wScrn=  0.000000 ICntrl=       500 IOpCl=  0 I1Cent=   200000004 NGrid=           0
         NMat0=    1 NMatS0=      1 NMatT0=    0 NMatD0=    1 NMtDS0=    0 NMtDT0=    0
 Petite list used in FoFCou.
 Harris En= -148.657146964134    
 JPrj=0 DoOrth=F DoCkMO=F.
 Leave Link  401 at Mon Mar 21 20:05:56 2022, MaxMem=  8589934592 cpu:               1.8 elap:               0.2
 (Enter /home/sabyasachi/g16/l502.exe)
 Keep J ints in memory in canonical form, NReq=16528447.
 FoFCou: FMM=F IPFlag=           0 FMFlag=           0 FMFlg1=           0
         NFxFlg=           0 DoJE=F BraDBF=F KetDBF=F FulRan=T
         wScrn=  0.000000 ICntrl=       600 IOpCl=  0 I1Cent=           0 NGrid=           0
         NMat0=    1 NMatS0=   4278 NMatT0=    0 NMatD0=    1 NMtDS0=    0 NMtDT0=    0
 Symmetry not used in FoFCou.
 Two-electron integral symmetry not used.
 Closed shell SCF:
 Using DIIS extrapolation, IDIIS=  1040.
 NGot=  8589934592 LenX=  8580760569 LenY=  8580750524
 Requested convergence on RMS density matrix=1.00D-08 within 100 cycles.
 Requested convergence on MAX density matrix=1.00D-06.
 Requested convergence on             energy=1.00D-06.
 No special actions if energy rises.
 Integral accuracy reduced to 1.0D-05 until final iterations.

 Cycle   1  Pass 0  IDiag  1:
 E= -148.541933203735    
 DIIS: error= 2.29D-02 at cycle   1 NSaved=   1.
 NSaved= 1 IEnMin= 1 EnMin= -148.541933203735     IErMin= 1 ErrMin= 2.29D-02
 ErrMax= 2.29D-02  0.00D+00 EMaxC= 1.00D-01 BMatC= 5.73D-02 BMatP= 5.73D-02
 IDIUse=3 WtCom= 7.71D-01 WtEn= 2.29D-01
 Coeff-Com:  0.100D+01
 Coeff-En:   0.100D+01
 Coeff:      0.100D+01
 Gap=     0.157 Goal=   None    Shift=    0.000
 GapD=    0.157 DampG=1.000 DampE=0.500 DampFc=0.5000 IDamp=-1.
 Damping current iteration by 5.00D-01
 RMSDP=1.10D-02 MaxDP=3.90D-01              OVMax= 1.80D-01

 Cycle   2  Pass 0  IDiag  1:
 E= -148.562569669440     Delta-E=       -0.020636465705 Rises=F Damp=T
 DIIS: error= 5.06D-03 at cycle   2 NSaved=   2.
 NSaved= 2 IEnMin= 2 EnMin= -148.562569669440     IErMin= 2 ErrMin= 5.06D-03
 ErrMax= 5.06D-03  0.00D+00 EMaxC= 1.00D-01 BMatC= 4.75D-03 BMatP= 5.73D-02
 IDIUse=3 WtCom= 9.49D-01 WtEn= 5.06D-02
 Coeff-Com:  0.185D+00 0.815D+00
 Coeff-En:   0.302D+00 0.698D+00
 Coeff:      0.190D+00 0.810D+00
 Gap=     0.179 Goal=   None    Shift=    0.000
 RMSDP=1.90D-03 MaxDP=4.09D-02 DE=-2.06D-02 OVMax= 1.43D-01

 Cycle   3  Pass 0  IDiag  1:
 E= -148.600097419102     Delta-E=       -0.037527749662 Rises=F Damp=F
 DIIS: error= 5.94D-03 at cycle   3 NSaved=   3.
 NSaved= 3 IEnMin= 3 EnMin= -148.600097419102     IErMin= 2 ErrMin= 5.06D-03
 ErrMax= 5.94D-03  0.00D+00 EMaxC= 1.00D-01 BMatC= 3.85D-03 BMatP= 4.75D-03
 IDIUse=3 WtCom= 9.41D-01 WtEn= 5.94D-02
 Coeff-Com:  0.933D-01 0.507D+00 0.399D+00
 Coeff-En:   0.000D+00 0.000D+00 0.100D+01
 Coeff:      0.878D-01 0.477D+00 0.435D+00
 Gap=     0.166 Goal=   None    Shift=    0.000
 RMSDP=1.32D-03 MaxDP=3.26D-02 DE=-3.75D-02 OVMax= 5.46D-02

 Cycle   4  Pass 0  IDiag  1:
 E= -148.602108079372     Delta-E=       -0.002010660269 Rises=F Damp=F
 DIIS: error= 4.51D-03 at cycle   4 NSaved=   4.
 NSaved= 4 IEnMin= 4 EnMin= -148.602108079372     IErMin= 4 ErrMin= 4.51D-03
 ErrMax= 4.51D-03  0.00D+00 EMaxC= 1.00D-01 BMatC= 1.93D-03 BMatP= 3.85D-03
 IDIUse=3 WtCom= 9.55D-01 WtEn= 4.51D-02
 Coeff-Com:  0.298D-01 0.190D+00 0.368D+00 0.413D+00
 Coeff-En:   0.000D+00 0.000D+00 0.372D+00 0.628D+00
 Coeff:      0.285D-01 0.181D+00 0.368D+00 0.422D+00
 Gap=     0.166 Goal=   None    Shift=    0.000
 RMSDP=5.57D-04 MaxDP=1.16D-02 DE=-2.01D-03 OVMax= 2.42D-02

 Cycle   5  Pass 0  IDiag  1:
 E= -148.603909247517     Delta-E=       -0.001801168146 Rises=F Damp=F
 DIIS: error= 7.47D-04 at cycle   5 NSaved=   5.
 NSaved= 5 IEnMin= 5 EnMin= -148.603909247517     IErMin= 5 ErrMin= 7.47D-04
 ErrMax= 7.47D-04  0.00D+00 EMaxC= 1.00D-01 BMatC= 5.30D-05 BMatP= 1.93D-03
 IDIUse=3 WtCom= 9.93D-01 WtEn= 7.47D-03
 Coeff-Com:  0.850D-02 0.559D-01 0.168D+00 0.236D+00 0.532D+00
 Coeff-En:   0.000D+00 0.000D+00 0.000D+00 0.000D+00 0.100D+01
 Coeff:      0.844D-02 0.554D-01 0.167D+00 0.234D+00 0.535D+00
 Gap=     0.167 Goal=   None    Shift=    0.000
 RMSDP=1.25D-04 MaxDP=2.74D-03 DE=-1.80D-03 OVMax= 5.01D-03

 Cycle   6  Pass 0  IDiag  1:
 E= -148.603942666005     Delta-E=       -0.000033418488 Rises=F Damp=F
 DIIS: error= 3.02D-04 at cycle   6 NSaved=   6.
 NSaved= 6 IEnMin= 6 EnMin= -148.603942666005     IErMin= 6 ErrMin= 3.02D-04
 ErrMax= 3.02D-04  0.00D+00 EMaxC= 1.00D-01 BMatC= 1.62D-05 BMatP= 5.30D-05
 IDIUse=3 WtCom= 9.97D-01 WtEn= 3.02D-03
 Coeff-Com:  0.151D-02 0.111D-01 0.627D-01 0.101D+00 0.392D+00 0.432D+00
 Coeff-En:   0.000D+00 0.000D+00 0.000D+00 0.000D+00 0.279D+00 0.721D+00
 Coeff:      0.150D-02 0.111D-01 0.625D-01 0.100D+00 0.391D+00 0.433D+00
 Gap=     0.167 Goal=   None    Shift=    0.000
 RMSDP=5.23D-05 MaxDP=1.33D-03 DE=-3.34D-05 OVMax= 1.87D-03

 Cycle   7  Pass 0  IDiag  1:
 E= -148.603958308504     Delta-E=       -0.000015642499 Rises=F Damp=F
 DIIS: error= 1.94D-05 at cycle   7 NSaved=   7.
 NSaved= 7 IEnMin= 7 EnMin= -148.603958308504     IErMin= 7 ErrMin= 1.94D-05
 ErrMax= 1.94D-05  0.00D+00 EMaxC= 1.00D-01 BMatC= 5.21D-08 BMatP= 1.62D-05
 IDIUse=1 WtCom= 1.00D+00 WtEn= 0.00D+00
 Coeff-Com:  0.226D-03 0.142D-02 0.144D-01 0.231D-01 0.109D+00 0.132D+00
 Coeff-Com:  0.720D+00
 Coeff:      0.226D-03 0.142D-02 0.144D-01 0.231D-01 0.109D+00 0.132D+00
 Coeff:      0.720D+00
 Gap=     0.167 Goal=   None    Shift=    0.000
 RMSDP=5.22D-06 MaxDP=1.34D-04 DE=-1.56D-05 OVMax= 8.29D-05

 Initial convergence to 1.0D-05 achieved.  Increase integral accuracy.
 Cycle   8  Pass 1  IDiag  1:
 E= -148.603960106255     Delta-E=       -0.000001797751 Rises=F Damp=F
 DIIS: error= 4.50D-06 at cycle   1 NSaved=   1.
 NSaved= 1 IEnMin= 1 EnMin= -148.603960106255     IErMin= 1 ErrMin= 4.50D-06
 ErrMax= 4.50D-06  0.00D+00 EMaxC= 1.00D-01 BMatC= 2.98D-09 BMatP= 2.98D-09
 IDIUse=1 WtCom= 1.00D+00 WtEn= 0.00D+00
 Coeff-Com:  0.100D+01
 Coeff:      0.100D+01
 Gap=     0.167 Goal=   None    Shift=    0.000
 RMSDP=5.22D-06 MaxDP=1.34D-04 DE=-1.80D-06 OVMax= 6.00D-05

 Cycle   9  Pass 1  IDiag  1:
 E= -148.603960101601     Delta-E=        0.000000004655 Rises=F Damp=F
 DIIS: error= 7.80D-06 at cycle   2 NSaved=   2.
 NSaved= 2 IEnMin= 1 EnMin= -148.603960106255     IErMin= 1 ErrMin= 4.50D-06
 ErrMax= 7.80D-06  0.00D+00 EMaxC= 1.00D-01 BMatC= 8.81D-09 BMatP= 2.98D-09
 IDIUse=1 WtCom= 1.00D+00 WtEn= 0.00D+00
 Coeff-Com:  0.655D+00 0.345D+00
 Coeff:      0.655D+00 0.345D+00
 Gap=     0.167 Goal=   None    Shift=    0.000
 RMSDP=1.45D-06 MaxDP=3.59D-05 DE= 4.65D-09 OVMax= 6.71D-05

 Cycle  10  Pass 1  IDiag  1:
 E= -148.603960108859     Delta-E=       -0.000000007259 Rises=F Damp=F
 DIIS: error= 3.52D-06 at cycle   3 NSaved=   3.
 NSaved= 3 IEnMin= 3 EnMin= -148.603960108859     IErMin= 3 ErrMin= 3.52D-06
 ErrMax= 3.52D-06  0.00D+00 EMaxC= 1.00D-01 BMatC= 1.57D-09 BMatP= 2.98D-09
 IDIUse=1 WtCom= 1.00D+00 WtEn= 0.00D+00
 Coeff-Com:  0.255D+00 0.272D+00 0.473D+00
 Coeff:      0.255D+00 0.272D+00 0.473D+00
 Gap=     0.167 Goal=   None    Shift=    0.000
 RMSDP=5.82D-07 MaxDP=1.23D-05 DE=-7.26D-09 OVMax= 2.67D-05

 Cycle  11  Pass 1  IDiag  1:
 E= -148.603960110413     Delta-E=       -0.000000001554 Rises=F Damp=F
 DIIS: error= 6.59D-07 at cycle   4 NSaved=   4.
 NSaved= 4 IEnMin= 4 EnMin= -148.603960110413     IErMin= 4 ErrMin= 6.59D-07
 ErrMax= 6.59D-07  0.00D+00 EMaxC= 1.00D-01 BMatC= 4.73D-11 BMatP= 1.57D-09
 IDIUse=1 WtCom= 1.00D+00 WtEn= 0.00D+00
 Coeff-Com:  0.495D-01 0.795D-01 0.215D+00 0.656D+00
 Coeff:      0.495D-01 0.795D-01 0.215D+00 0.656D+00
 Gap=     0.167 Goal=   None    Shift=    0.000
 RMSDP=1.35D-07 MaxDP=4.13D-06 DE=-1.55D-09 OVMax= 4.97D-06

 Cycle  12  Pass 1  IDiag  1:
 E= -148.603960110439     Delta-E=       -0.000000000026 Rises=F Damp=F
 DIIS: error= 4.26D-07 at cycle   5 NSaved=   5.
 NSaved= 5 IEnMin= 5 EnMin= -148.603960110439     IErMin= 5 ErrMin= 4.26D-07
 ErrMax= 4.26D-07  0.00D+00 EMaxC= 1.00D-01 BMatC= 2.54D-11 BMatP= 4.73D-11
 IDIUse=1 WtCom= 1.00D+00 WtEn= 0.00D+00
 Coeff-Com:  0.349D-02 0.247D-01 0.995D-01 0.473D+00 0.400D+00
 Coeff:      0.349D-02 0.247D-01 0.995D-01 0.473D+00 0.400D+00
 Gap=     0.167 Goal=   None    Shift=    0.000
 RMSDP=6.47D-08 MaxDP=1.95D-06 DE=-2.59D-11 OVMax= 1.42D-06

 Cycle  13  Pass 1  IDiag  1:
 E= -148.603960110459     Delta-E=       -0.000000000021 Rises=F Damp=F
 DIIS: error= 4.21D-08 at cycle   6 NSaved=   6.
 NSaved= 6 IEnMin= 6 EnMin= -148.603960110459     IErMin= 6 ErrMin= 4.21D-08
 ErrMax= 4.21D-08  0.00D+00 EMaxC= 1.00D-01 BMatC= 2.69D-13 BMatP= 2.54D-11
 IDIUse=1 WtCom= 1.00D+00 WtEn= 0.00D+00
 Coeff-Com: -0.998D-03 0.758D-02 0.340D-01 0.183D+00 0.180D+00 0.596D+00
 Coeff:     -0.998D-03 0.758D-02 0.340D-01 0.183D+00 0.180D+00 0.596D+00
 Gap=     0.167 Goal=   None    Shift=    0.000
 RMSDP=8.36D-09 MaxDP=1.03D-07 DE=-2.05D-11 OVMax= 2.22D-07

 SCF Done:  E(RS-VWN5) =  -148.603960110     A.U. after   13 cycles
            NFock= 13  Conv=0.84D-08     -V/T= 2.0052
 KE= 1.478363770464D+02 PE=-4.943313052582D+02 EE= 1.246990618417D+02
 Leave Link  502 at Mon Mar 21 20:05:57 2022, MaxMem=  8589934592 cpu:               8.7 elap:               1.2
 (Enter /home/sabyasachi/g16/l801.exe)
 DoSCS=F DFT=T ScalE2(SS,OS)=  1.000000  1.000000
 ExpMin= 6.71D-02 ExpMax= 1.71D+03 ExpMxC= 2.58D+02 IAcc=3 IRadAn=         5 AccDes= 0.00D+00
 HarFok:  IExCor=  205 AccDes= 0.00D+00 IRadAn=         5 IDoV=-2 UseB2=F ITyADJ=14
 ICtDFT= 12500011 ScaDFX=  1.000000  1.000000  1.000000  1.000000
 Largest valence mixing into a core orbital is  8.16D-05
 Largest core mixing into a valence orbital is  1.88D-06
 Range of M.O.s used for correlation:     4    92
 NBasis=    92 NAE=    12 NBE=    12 NFC=     3 NFV=     0
 NROrb=     89 NOA=     9 NOB=     9 NVA=    80 NVB=    80

 **** Warning!!: The largest alpha MO coefficient is  0.14031858D+02

 Leave Link  801 at Mon Mar 21 20:05:57 2022, MaxMem=  8589934592 cpu:               0.4 elap:               0.1
 (Enter /home/sabyasachi/g16/l914.exe)
 RHF ground state
 Keep J ints in memory in canonical form, NReq=583174539.
 FoFCou: FMM=F IPFlag=           0 FMFlag=           0 FMFlg1=           0
         NFxFlg=           0 DoJE=F BraDBF=F KetDBF=F FulRan=T
         wScrn=  0.000000 ICntrl=       600 IOpCl=  0 I1Cent=           0 NGrid=           0
         NMat0=    1 NMatS0=   4278 NMatT0=    0 NMatD0=    1 NMtDS0=    0 NMtDT0=    0
 Symmetry not used in FoFCou.
 Two-electron integral symmetry not used.
 MDV=  8589934592 DFT=T DoStab=F Mixed=F DoRPA=T DoScal=T NonHer=F
 Making orbital integer symmetry assigments:
 Orbital symmetries:
       Occupied  (A) (A) (A) (A) (A) (A) (A) (A) (A) (A) (A) (A)
       Virtual   (A) (A) (A) (A) (A) (A) (A) (A) (A) (A) (A) (A)
                 (A) (A) (A) (A) (A) (A) (A) (A) (A) (A) (A) (A)
                 (A) (A) (A) (A) (A) (A) (A) (A) (A) (A) (A) (A)
                 (A) (A) (A) (A) (A) (A) (A) (A) (A) (A) (A) (A)
                 (A) (A) (A) (A) (A) (A) (A) (A) (A) (A) (A) (A)
                 (A) (A) (A) (A) (A) (A) (A) (A) (A) (A) (A) (A)
                 (A) (A) (A) (A) (A) (A) (A) (A)
   720 initial guesses have been made.
 Convergence on wavefunction:    0.001000000000000
 Davidson Disk Diagonalization:  ConvIn= 1.00D-03 SkipCon=T Conv= 1.00D-03.
 Max sub-space:  2880 roots to seek:  1440 dimension of matrix:         1440
 *** WARNING: Number of orthogonal guesses is          720
 Iteration     1 Dimension   720 NMult     0 NNew    720
 CISAX will form   720 AO SS matrices at one time.
 NMat=   720 NSing=   720 JSym2X= 0.
 New state      1 was old state      2
 New state      2 was old state      1
 New state     10 was old state     11
 New state     11 was old state     12
 New state     12 was old state     13
 New state     13 was old state     14
 New state     14 was old state     15
 New state     15 was old state     16
 New state     16 was old state     18
 New state     17 was old state     10
 New state     18 was old state     19
 New state     19 was old state     17
 New state     21 was old state     22
 New state     22 was old state     21
 New state     25 was old state     26
 New state     26 was old state     25
 New state     27 was old state     29
 New state     29 was old state     30
 New state     30 was old state     31
 New state     31 was old state     27
 New state     33 was old state     34
 New state     34 was old state     33
 New state     38 was old state     39
 New state     39 was old state     38
 New state     44 was old state     45
 New state     45 was old state     44
 New state     50 was old state     52
 New state     51 was old state     53
 New state     52 was old state     51
 New state     53 was old state     54
 New state     54 was old state     55
 New state     55 was old state     56
 New state     56 was old state     57
 New state     57 was old state     59
 New state     59 was old state     50
 New state     60 was old state     61
 New state     61 was old state     60
 New state     64 was old state     66
 New state     65 was old state     67
 New state     66 was old state     68
 New state     67 was old state     65
 New state     68 was old state     64
 New state     69 was old state     71
 New state     70 was old state     72
 New state     71 was old state     73
 New state     72 was old state     74
 New state     73 was old state     70
 New state     74 was old state     75
 New state     75 was old state     79
 New state     76 was old state     77
 New state     77 was old state     78
 New state     78 was old state     80
 New state     79 was old state     81
 New state     80 was old state     82
 New state     81 was old state     76
 New state     82 was old state     84
 New state     83 was old state     85
 New state     84 was old state     83
 New state     85 was old state     87
 New state     87 was old state     89
 New state     89 was old state     93
 New state     90 was old state     94
 New state     91 was old state     90
 New state     93 was old state     95
 New state     94 was old state     91
 New state     95 was old state     97
 New state     97 was old state     98
 New state     98 was old state     99
 New state     99 was old state    100
 New state    100 was old state    103
 New state    101 was old state    102
 New state    102 was old state    101
 New state    103 was old state    104
 New state    104 was old state    106
 New state    105 was old state    107
 New state    106 was old state    105
 New state    107 was old state    111
 New state    111 was old state    112
 New state    112 was old state    114
 New state    113 was old state    115
 New state    114 was old state    113
 New state    115 was old state    117
 New state    117 was old state    119
 New state    118 was old state    121
 New state    119 was old state    120
 New state    120 was old state    125
 New state    121 was old state    124
 New state    122 was old state    123
 New state    123 was old state    126
 New state    124 was old state    122
 New state    125 was old state    118
 New state    126 was old state    127
 New state    127 was old state    129
 New state    129 was old state    130
 New state    130 was old state    131
 New state    131 was old state    133
 New state    133 was old state    134
 New state    134 was old state    135
 New state    135 was old state    136
 New state    136 was old state    139
 New state    139 was old state    141
 New state    141 was old state    142
 New state    142 was old state    144
 New state    144 was old state    145
 New state    145 was old state    146
 New state    146 was old state    148
 New state    148 was old state    150
 New state    150 was old state    151
 New state    151 was old state    152
 New state    152 was old state    154
 New state    154 was old state    157
 New state    155 was old state    156
 New state    156 was old state    155
 New state    157 was old state    159
 New state    159 was old state    161
 New state    160 was old state    164
 New state    161 was old state    162
 New state    162 was old state    160
 New state    163 was old state    165
 New state    164 was old state    163
 New state    165 was old state    168
 New state    167 was old state    169
 New state    168 was old state    167
 New state    169 was old state    170
 New state    170 was old state    171
 New state    171 was old state    173
 New state    173 was old state    174
 New state    174 was old state    176
 New state    175 was old state    178
 New state    176 was old state    180
 New state    177 was old state    179
 New state    178 was old state    177
 New state    179 was old state    183
 New state    180 was old state    181
 New state    181 was old state    185
 New state    183 was old state    187
 New state    184 was old state    175
 New state    185 was old state    189
 New state    186 was old state    188
 New state    187 was old state    191
 New state    188 was old state    190
 New state    189 was old state    192
 New state    190 was old state    193
 New state    191 was old state    186
 New state    192 was old state    195
 New state    193 was old state    197
 New state    194 was old state    198
 New state    195 was old state    194
 New state    196 was old state    199
 New state    197 was old state    200
 New state    198 was old state    201
 New state    199 was old state    202
 New state    200 was old state    196
 New state    201 was old state    205
 New state    202 was old state    203
 New state    203 was old state    206
 New state    205 was old state    211
 New state    206 was old state    212
 New state    207 was old state    209
 New state    208 was old state    207
 New state    209 was old state    208
 New state    211 was old state    214
 New state    212 was old state    213
 New state    213 was old state    217
 New state    214 was old state    219
 New state    216 was old state    220
 New state    217 was old state    226
 New state    219 was old state    222
 New state    220 was old state    221
 New state    221 was old state    225
 New state    222 was old state    224
 New state    223 was old state    228
 New state    224 was old state    216
 New state    225 was old state    227
 New state    226 was old state    223
 New state    227 was old state    230
 New state    228 was old state    233
 New state    229 was old state    232
 New state    230 was old state    231
 New state    231 was old state    235
 New state    232 was old state    236
 New state    233 was old state    229
 New state    235 was old state    239
 New state    236 was old state    238
 New state    238 was old state    240
 New state    239 was old state    242
 New state    240 was old state    241
 New state    241 was old state    244
 New state    242 was old state    245
 New state    243 was old state    249
 New state    244 was old state    246
 New state    245 was old state    243
 New state    246 was old state    248
 New state    247 was old state    252
 New state    248 was old state    247
 New state    249 was old state    254
 New state    251 was old state    253
 New state    252 was old state    251
 New state    253 was old state    257
 New state    254 was old state    255
 New state    255 was old state    258
 New state    256 was old state    262
 New state    257 was old state    256
 New state    258 was old state    259
 New state    259 was old state    261
 New state    261 was old state    263
 New state    262 was old state    264
 New state    263 was old state    266
 New state    264 was old state    274
 New state    265 was old state    269
 New state    266 was old state    265
 New state    267 was old state    271
 New state    269 was old state    267
 New state    270 was old state    272
 New state    271 was old state    273
 New state    272 was old state    275
 New state    273 was old state    280
 New state    274 was old state    278
 New state    275 was old state    276
 New state    276 was old state    279
 New state    278 was old state    281
 New state    279 was old state    270
 New state    280 was old state    282
 New state    281 was old state    283
 New state    282 was old state    286
 New state    283 was old state    284
 New state    284 was old state    285
 New state    285 was old state    287
 New state    286 was old state    294
 New state    287 was old state    288
 New state    288 was old state    289
 New state    289 was old state    290
 New state    290 was old state    291
 No map to state    291
 New state    293 was old state    295
 New state    294 was old state    296
 New state    295 was old state    293
 New state    296 was old state    297
 New state    297 was old state    299
 New state    299 was old state    301
 New state    301 was old state    303
 New state    303 was old state    306
 New state    306 was old state    307
 New state    307 was old state    309
 New state    308 was old state    311
 New state    309 was old state    310
 New state    310 was old state    315
 New state    311 was old state    312
 New state    312 was old state    308
 New state    313 was old state    314
 New state    314 was old state    313
 New state    315 was old state    320
 New state    316 was old state    317
 New state    317 was old state    316
 New state    318 was old state    319
 New state    319 was old state    318
 New state    320 was old state    321
 New state    321 was old state    324
 New state    322 was old state    323
 New state    323 was old state    325
 New state    324 was old state    326
 New state    325 was old state    329
 New state    326 was old state    330
 New state    327 was old state    328
 New state    328 was old state    331
 New state    329 was old state    333
 New state    330 was old state    332
 New state    331 was old state    334
 New state    332 was old state    338
 New state    333 was old state    339
 New state    334 was old state    335
 New state    335 was old state    336
 New state    336 was old state    337
 New state    337 was old state    340
 New state    338 was old state    341
 New state    339 was old state    342
 New state    340 was old state    343
 New state    341 was old state    346
 New state    342 was old state    345
 New state    343 was old state    344
 No map to state    344
 New state    345 was old state    349
 New state    346 was old state    347
 New state    347 was old state    348
 New state    348 was old state    350
 New state    349 was old state    363
 New state    350 was old state    355
 New state    352 was old state    353
 New state    353 was old state    352
 New state    355 was old state    357
 New state    356 was old state    360
 New state    357 was old state    356
 New state    360 was old state    362
 New state    362 was old state    364
 New state    363 was old state    365
 New state    364 was old state    366
 New state    365 was old state    368
 New state    366 was old state    367
 New state    367 was old state    371
 New state    368 was old state    369
 New state    369 was old state    372
 New state    371 was old state    373
 New state    372 was old state    378
 New state    373 was old state    374
 New state    374 was old state    379
 New state    377 was old state    380
 New state    378 was old state    377
 New state    379 was old state    386
 New state    380 was old state    382
 New state    382 was old state    384
 New state    384 was old state    385
 New state    385 was old state    387
 New state    386 was old state    388
 New state    387 was old state    391
 New state    388 was old state    390
 New state    389 was old state    392
 New state    390 was old state    389
 New state    391 was old state    393
 New state    392 was old state    395
 New state    393 was old state    397
 New state    394 was old state    396
 New state    395 was old state    394
 New state    396 was old state    398
 New state    397 was old state    400
 New state    398 was old state    399
 New state    399 was old state    402
 New state    400 was old state    401
 New state    401 was old state    406
 New state    402 was old state    405
 New state    404 was old state    407
 New state    405 was old state    404
 New state    406 was old state    410
 New state    407 was old state    411
 New state    409 was old state    417
 New state    410 was old state    412
 New state    411 was old state    409
 New state    412 was old state    415
 New state    413 was old state    414
 New state    414 was old state    413
 New state    415 was old state    416
 New state    416 was old state    419
 New state    417 was old state    418
 New state    418 was old state    420
 New state    419 was old state    421
 New state    420 was old state    422
 New state    421 was old state    423
 New state    422 was old state    424
 New state    423 was old state    426
 New state    424 was old state    427
 New state    425 was old state    429
 New state    426 was old state    425
 New state    427 was old state    432
 New state    429 was old state    431
 New state    431 was old state    433
 New state    432 was old state    434
 New state    433 was old state    438
 New state    434 was old state    437
 New state    436 was old state    440
 New state    437 was old state    439
 New state    438 was old state    436
 New state    439 was old state    442
 New state    440 was old state    441
 New state    441 was old state    444
 New state    442 was old state    443
 New state    443 was old state    445
 New state    444 was old state    446
 New state    445 was old state    447
 New state    446 was old state    449
 New state    447 was old state    448
 New state    448 was old state    452
 New state    449 was old state    450
 New state    450 was old state    453
 New state    452 was old state    458
 New state    453 was old state    454
 New state    454 was old state    455
 New state    455 was old state    456
 New state    456 was old state    457
 New state    457 was old state    459
 New state    458 was old state    460
 New state    459 was old state    462
 New state    460 was old state    461
 New state    461 was old state    463
 New state    462 was old state    464
 New state    463 was old state    466
 New state    464 was old state    470
 New state    466 was old state    468
 New state    467 was old state    469
 New state    468 was old state    467
 New state    469 was old state    472
 New state    470 was old state    471
 New state    471 was old state    473
 New state    472 was old state    477
 New state    473 was old state    474
 New state    474 was old state    476
 New state    476 was old state    478
 New state    477 was old state    481
 New state    478 was old state    479
 New state    479 was old state    480
 New state    480 was old state    483
 New state    481 was old state    482
 New state    482 was old state    487
 New state    483 was old state    486
 New state    484 was old state    485
 New state    485 was old state    484
 New state    486 was old state    488
 New state    487 was old state    492
 New state    488 was old state    490
 New state    490 was old state    491
 New state    491 was old state    493
 No map to state    492
 New state    493 was old state    494
 New state    494 was old state    495
 New state    495 was old state    496
 New state    496 was old state    497
 New state    497 was old state    500
 New state    500 was old state    504
 New state    501 was old state    502
 New state    502 was old state    501
 New state    504 was old state    505
 New state    505 was old state    510
 New state    510 was old state    512
 New state    512 was old state    513
 New state    513 was old state    515
 New state    515 was old state    519
 New state    517 was old state    518
 New state    518 was old state    517
 New state    519 was old state    520
 New state    520 was old state    521
 New state    521 was old state    522
 New state    522 was old state    523
 New state    523 was old state    524
 New state    524 was old state    528
 New state    525 was old state    526
 New state    526 was old state    527
 New state    527 was old state    525
 New state    528 was old state    529
 New state    529 was old state    530
 New state    530 was old state    533
 New state    531 was old state    532
 New state    532 was old state    531
 New state    533 was old state    535
 New state    535 was old state    536
 New state    536 was old state    538
 New state    538 was old state    542
 New state    539 was old state    540
 New state    540 was old state    539
 New state    542 was old state    543
 New state    543 was old state    545
 New state    544 was old state    547
 New state    545 was old state    546
 New state    546 was old state    544
 New state    547 was old state    548
 New state    548 was old state    549
 New state    549 was old state    550
 New state    550 was old state    553
 New state    553 was old state    554
 New state    554 was old state    555
 New state    555 was old state    556
 New state    556 was old state    557
 New state    557 was old state    558
 New state    558 was old state    559
 New state    559 was old state    560
 New state    560 was old state    561
 No map to state    561
 New state    562 was old state    563
 New state    563 was old state    562
 New state    565 was old state    566
 New state    566 was old state    568
 New state    567 was old state    565
 New state    568 was old state    567
 New state    571 was old state    573
 New state    573 was old state    574
 New state    574 was old state    576
 New state    575 was old state    571
 New state    576 was old state    578
 New state    577 was old state    575
 New state    578 was old state    579
 New state    579 was old state    577
 New state    581 was old state    582
 New state    582 was old state    583
 New state    583 was old state    581
 New state    586 was old state    587
 New state    587 was old state    586
 New state    589 was old state    590
 New state    590 was old state    591
 New state    591 was old state    594
 New state    592 was old state    593
 New state    593 was old state    592
 New state    594 was old state    597
 New state    597 was old state    598
 New state    598 was old state    599
 New state    599 was old state    602
 New state    602 was old state    603
 No map to state    603
 New state    633 was old state    634
 New state    634 was old state    633
 New state    638 was old state    639
 New state    639 was old state    638
 New state    644 was old state    645
 New state    645 was old state    644
 New state    649 was old state    650
 New state    650 was old state    649
 New state    653 was old state    654
 New state    654 was old state    655
 New state    655 was old state    653
 New state    657 was old state    658
 New state    658 was old state    657
 New state    659 was old state    661
 New state    660 was old state    659
 New state    661 was old state    660
 New state    662 was old state    663
 New state    663 was old state    662
 New state    664 was old state    665
 New state    665 was old state    666
 New state    666 was old state    667
 New state    667 was old state    664
 New state    676 was old state    678
 New state    677 was old state    676
 New state    678 was old state    677
 New state    684 was old state    686
 New state    685 was old state    684
 New state    686 was old state    685
 New state    687 was old state    688
 New state    688 was old state    687
 New state    699 was old state    700
 New state    700 was old state    699
 New state    706 was old state    707
 New state    707 was old state    706
 Excitation Energies [eV] at current iteration:
 Root      1 :     5.550949078573025
 Root      2 :     5.783396727296850
 Root      3 :     6.141233719805768
 Root      4 :     6.680248700967120
 Root      5 :     6.970141825505090
 Root      6 :     7.500539491636125
 Root      7 :     7.563496886966157
 Root      8 :     8.131905698914503
 Root      9 :     8.314318106048660
 Root     10 :     8.636152699348717
 Root     11 :     8.904374976683673
 Root     12 :     9.060574418008002
 Root     13 :     9.146457019106602
 Root     14 :     9.163577916048748
 Root     15 :     9.628935443991017
 Root     16 :     9.896454613150238
 Root     17 :    10.142783716619010
 Root     18 :    10.244296400822230
 Root     19 :    10.327366522315880
 Root     20 :    10.437707446791930
 Root     21 :    10.554265458615240
 Root     22 :    10.627879973039340
 Root     23 :    10.803894822163910
 Root     24 :    10.928302472810530
 Root     25 :    11.105336108726180
 Root     26 :    11.291426341620210
 Root     27 :    11.387900116550000
 Root     28 :    11.453838524335280
 Root     29 :    11.515614971590780
 Root     30 :    11.582537127284040
 Root     31 :    11.635971745433070
 Root     32 :    11.949887467318330
 Root     33 :    12.044302958384630
 Root     34 :    12.093330871372910
 Root     35 :    12.132504237518760
 Root     36 :    12.218596086050770
 Root     37 :    12.327848576290440
 Root     38 :    12.541593595255520
 Root     39 :    12.628256645384470
 Root     40 :    12.633418200124740
 Root     41 :    12.735131537576600
 Root     42 :    12.840204968916870
 Root     43 :    12.964472948729220
 Root     44 :    13.100848605869240
 Root     45 :    13.187894141523060
 Root     46 :    13.202386420879750
 Root     47 :    13.588041839358020
 Root     48 :    13.712096899141720
 Root     49 :    13.850483623847400
 Root     50 :    13.926199200623330
 Root     51 :    14.055440248753580
 Root     52 :    14.106324845885370
 Root     53 :    14.214272116995250
 Root     54 :    14.258861727071870
 Root     55 :    14.315199524294610
 Root     56 :    14.363019353976870
 Root     57 :    14.445881909463120
 Root     58 :    14.468965881299840
 Root     59 :    14.487739933692340
 Root     60 :    14.593566900549500
 Root     61 :    14.648797267895060
 Root     62 :    14.730064707515520
 Root     63 :    14.901665480158860
 Root     64 :    14.992456528532580
 Root     65 :    15.051893782153990
 Root     66 :    15.138180016721940
 Root     67 :    15.220131183586420
 Root     68 :    15.264280821357860
 Root     69 :    15.359302355578590
 Root     70 :    15.387303510211410
 Root     71 :    15.456435613379660
 Root     72 :    15.466954359048890
 Root     73 :    15.495003838807240
 Root     74 :    15.536838708876690
 Root     75 :    15.735359337888910
 Root     76 :    15.797392207327970
 Root     77 :    15.854823770511360
 Root     78 :    15.879234799359120
 Root     79 :    15.903569745307470
 Root     80 :    15.932996942530370
 Root     81 :    15.959341358396960
 Root     82 :    15.992709905362630
 Root     83 :    16.123804921804060
 Root     84 :    16.232758996219970
 Root     85 :    16.263041536000000
 Root     86 :    16.347296253571190
 Root     87 :    16.382490392198000
 Root     88 :    16.425322728507180
 Root     89 :    16.535110960576940
 Root     90 :    16.566629169570130
 Root     91 :    16.621008648729370
 Root     92 :    16.651681029809920
 Root     93 :    16.690761482662880
 Root     94 :    16.784053477656170
 Root     95 :    16.907664050940660
 Root     96 :    16.984496481813240
 Root     97 :    17.048355081368080
 Root     98 :    17.239803167868780
 Root     99 :    17.323577071664130
 Root    100 :    17.371864509904150
 Root    101 :    17.611190253247980
 Root    102 :    17.733241590551000
 Root    103 :    17.775171997936640
 Root    104 :    17.817931389773520
 Root    105 :    17.906632530276760
 Root    106 :    17.933273690276170
 Root    107 :    18.009196821318830
 Root    108 :    18.055834313475920
 Root    109 :    18.090009651346930
 Root    110 :    18.141634159899420
 Root    111 :    18.217417017828680
 Root    112 :    18.303714115459960
 Root    113 :    18.328277314761380
 Root    114 :    18.394024512729530
 Root    115 :    18.448976351213500
 Root    116 :    18.496140061135320
 Root    117 :    18.527391342496340
 Root    118 :    18.614684474482850
 Root    119 :    18.639014566910490
 Root    120 :    18.725580471421500
 Root    121 :    18.815168252318920
 Root    122 :    18.851545562753840
 Root    123 :    18.914095146578080
 Root    124 :    18.974421155633840
 Root    125 :    19.014063789575760
 Root    126 :    19.119655803446900
 Root    127 :    19.240478768383870
 Root    128 :    19.270824542581360
 Root    129 :    19.305873625881250
 Root    130 :    19.357245344446210
 Root    131 :    19.467044638805900
 Root    132 :    19.474186105853010
 Root    133 :    19.505599723429620
 Root    134 :    19.549813882076670
 Root    135 :    19.682421190692620
 Root    136 :    19.741817970325460
 Root    137 :    19.825058053855010
 Root    138 :    19.873711148360860
 Root    139 :    19.960631987847260
 Root    140 :    20.004426374550300
 Root    141 :    20.050078930250550
 Root    142 :    20.116135535755890
 Root    143 :    20.161465653918960
 Root    144 :    20.300635851116530
 Root    145 :    20.318420310900290
 Root    146 :    20.385350299310660
 Root    147 :    20.448862888964560
 Root    148 :    20.627446258530110
 Root    149 :    20.639616068777090
 Root    150 :    20.685417413055640
 Root    151 :    20.744352637030910
 Root    152 :    20.776158976178670
 Root    153 :    20.866485916393580
 Root    154 :    20.963560213572730
 Root    155 :    21.077009996691430
 Root    156 :    21.118763718092490
 Root    157 :    21.225306049976400
 Root    158 :    21.256145348690630
 Root    159 :    21.331642014546250
 Root    160 :    21.410426259127630
 Root    161 :    21.485706801168590
 Root    162 :    21.520798692453980
 Root    163 :    21.634917661647880
 Root    164 :    21.652100837776850
 Root    165 :    21.668877195046450
 Root    166 :    21.779063812420340
 Root    167 :    21.799760902479530
 Root    168 :    21.847669909701190
 Root    169 :    21.932807879655730
 Root    170 :    21.964112901023110
 Root    171 :    22.071950914250500
 Root    172 :    22.107294274813190
 Root    173 :    22.210494797448030
 Root    174 :    22.271822340602740
 Root    175 :    22.344896223295120
 Root    176 :    22.375076296239970
 Root    177 :    22.510347580828250
 Root    178 :    22.517100835411100
 Root    179 :    22.598624046541470
 Root    180 :    22.705193077575990
 Root    181 :    22.733390533572740
 Root    182 :    22.750137958656410
 Root    183 :    22.790062965186540
 Root    184 :    22.840310862845310
 Root    185 :    22.992748647809750
 Root    186 :    23.039819515524990
 Root    187 :    23.045966514047530
 Root    188 :    23.138132655541580
 Root    189 :    23.209788861011880
 Root    190 :    23.289975520298250
 Root    191 :    23.318990550977590
 Root    192 :    23.415451024498790
 Root    193 :    23.505685608721430
 Root    194 :    23.526284309098080
 Root    195 :    23.706946085624940
 Root    196 :    23.765157139869160
 Root    197 :    23.849695463417400
 Root    198 :    23.973658119014270
 Root    199 :    24.022955655335740
 Root    200 :    24.085619300798330
 Root    201 :    24.222605887024600
 Root    202 :    24.252651027650590
 Root    203 :    24.296648898358950
 Root    204 :    24.340386448132830
 Root    205 :    24.457160877746720
 Root    206 :    24.505685527925300
 Root    207 :    24.590368306677470
 Root    208 :    24.604361932858830
 Root    209 :    24.713462117321080
 Root    210 :    24.771573613401910
 Root    211 :    24.827411484365430
 Root    212 :    24.934728286553290
 Root    213 :    24.992375881818310
 Root    214 :    25.013856890105460
 Root    215 :    25.065204335441120
 Root    216 :    25.161901605975150
 Root    217 :    25.188735634827590
 Root    218 :    25.204792537053720
 Root    219 :    25.220605573295370
 Root    220 :    25.314148438557070
 Root    221 :    25.388724987958860
 Root    222 :    25.446723601673400
 Root    223 :    25.457553658355930
 Root    224 :    25.533139660173070
 Root    225 :    25.650015835315950
 Root    226 :    25.697533856363990
 Root    227 :    25.759782129064040
 Root    228 :    25.823422629287650
 Root    229 :    25.903424679229020
 Root    230 :    25.922844547557740
 Root    231 :    25.992404743398650
 Root    232 :    26.092003491056250
 Root    233 :    26.105198188585820
 Root    234 :    26.167424657237070
 Root    235 :    26.275263032102230
 Root    236 :    26.340391005195440
 Root    237 :    26.352169722468790
 Root    238 :    26.483565855192450
 Root    239 :    26.519796888789980
 Root    240 :    26.692732070542670
 Root    241 :    26.798092427602650
 Root    242 :    26.860814651152710
 Root    243 :    26.999759739064430
 Root    244 :    27.041196742414370
 Root    245 :    27.136226698120720
 Root    246 :    27.205425044344850
 Root    247 :    27.312269125004540
 Root    248 :    27.354037027815220
 Root    249 :    27.581990674579640
 Root    250 :    27.678085225036860
 Root    251 :    27.731812530164960
 Root    252 :    27.842590680983820
 Root    253 :    27.905033482196180
 Root    254 :    27.970627523447660
 Root    255 :    27.980528600448600
 Root    256 :    28.014562481080220
 Root    257 :    28.104526101251880
 Root    258 :    28.129182561927080
 Root    259 :    28.263721788109470
 Root    260 :    28.300910368395490
 Root    261 :    28.380024090591980
 Root    262 :    28.512633663522630
 Root    263 :    28.650055411684000
 Root    264 :    28.751937872283580
 Root    265 :    28.778222919727130
 Root    266 :    28.839896061641180
 Root    267 :    28.966199259925510
 Root    268 :    29.010897002273210
 Root    269 :    29.137085422532840
 Root    270 :    29.200071534801760
 Root    271 :    29.219540381422930
 Root    272 :    29.304170773010480
 Root    273 :    29.345379903123270
 Root    274 :    29.432745201896250
 Root    275 :    29.486316535853390
 Root    276 :    29.552084840540430
 Root    277 :    29.585011376429430
 Root    278 :    29.687444772190500
 Root    279 :    29.715659307105640
 Root    280 :    29.829412027174260
 Root    281 :    29.923795358224510
 Root    282 :    30.043486015330490
 Root    283 :    30.124702237485340
 Root    284 :    30.127560326764240
 Root    285 :    30.214831382345930
 Root    286 :    30.303654584873450
 Root    287 :    30.387197557964530
 Root    288 :    30.425420622642550
 Root    289 :    30.534131514190220
 Root    290 :    30.609947041774180
 Root    291 :    30.728915835822750
 Root    292 :    30.934841509260210
 Root    293 :    31.136053487470960
 Root    294 :    31.196941273393590
 Root    295 :    31.238956154442710
 Root    296 :    31.277705439552780
 Root    297 :    31.308930630778670
 Root    298 :    31.349259618764990
 Root    299 :    31.749706410083140
 Root    300 :    31.784226690316260
 Root    301 :    31.840242637029490
 Root    302 :    31.893897678856020
 Root    303 :    31.941505007345190
 Root    304 :    31.970575468390800
 Root    305 :    32.049817190340850
 Root    306 :    32.178282616969670
 Root    307 :    32.414866590351610
 Root    308 :    32.475317034208190
 Root    309 :    32.603053500637090
 Root    310 :    32.794817666478240
 Root    311 :    32.971907428278290
 Root    312 :    32.989202911887330
 Root    313 :    33.094082522876850
 Root    314 :    33.168232765826850
 Root    315 :    33.293339722219240
 Root    316 :    33.374086546737440
 Root    317 :    33.415910502555900
 Root    318 :    33.485426788602000
 Root    319 :    33.487831672154050
 Root    320 :    33.672514683806010
 Root    321 :    33.813232965852860
 Root    322 :    33.864708687549570
 Root    323 :    33.904486294130150
 Root    324 :    33.959021959534950
 Root    325 :    34.201720110378400
 Root    326 :    34.208485840355540
 Root    327 :    34.232970449585650
 Root    328 :    34.326053607127280
 Root    329 :    34.344515399814420
 Root    330 :    34.436351177943640
 Root    331 :    34.533179336078470
 Root    332 :    34.714892207371800
 Root    333 :    34.856232081217780
 Root    334 :    34.957071351643760
 Root    335 :    35.019064355818880
 Root    336 :    35.098210124889220
 Root    337 :    35.176929907476850
 Root    338 :    35.284508097880380
 Root    339 :    35.385006483560040
 Root    340 :    35.469983747921960
 Root    341 :    35.540885836100770
 Root    342 :    35.866804593198150
 Root    343 :    35.955733473866240
 Root    344 :    36.096527844373600
 Root    345 :    36.316251331732290
 Root    346 :    36.479370855503350
 Root    347 :    36.553247307128200
 Root    348 :    36.577579160388150
 Root    349 :    36.686164017624360
 Root    350 :    36.767323097113150
 Root    351 :    37.002997229478830
 Root    352 :    37.035088450725110
 Root    353 :    37.079598974428680
 Root    354 :    37.110729978351590
 Root    355 :    37.199050560628010
 Root    356 :    37.319500364964570
 Root    357 :    37.400213527775930
 Root    358 :    37.497467735371520
 Root    359 :    37.697168331643490
 Root    360 :    37.789886512954060
 Root    361 :    38.007825646839450
 Root    362 :    38.103906043254550
 Root    363 :    38.139136132343650
 Root    364 :    38.359983279951380
 Root    365 :    38.560160275616360
 Root    366 :    38.638658829929110
 Root    367 :    38.747011655502460
 Root    368 :    38.786322152667450
 Root    369 :    38.857703975804610
 Root    370 :    38.975251704455510
 Root    371 :    39.296465540363240
 Root    372 :    39.348268775816980
 Root    373 :    39.511725476703010
 Root    374 :    39.717578076246160
 Root    375 :    39.758889422219930
 Root    376 :    40.040725480148560
 Root    377 :    40.068368344867950
 Root    378 :    40.166195207401880
 Root    379 :    40.214440227237230
 Root    380 :    40.323087433226720
 Root    381 :    40.487662821242780
 Root    382 :    40.635484928273570
 Root    383 :    40.764971066560240
 Root    384 :    40.770729781767950
 Root    385 :    40.835840420102490
 Root    386 :    40.944797415083710
 Root    387 :    40.985804503885750
 Root    388 :    41.046964084946660
 Root    389 :    41.132109510447140
 Root    390 :    41.206312217921360
 Root    391 :    41.505373318373780
 Root    392 :    41.568986802123130
 Root    393 :    41.790015932993950
 Root    394 :    41.912650709733310
 Root    395 :    42.043003477116770
 Root    396 :    42.165820056783670
 Root    397 :    42.436167853813820
 Root    398 :    42.595548925662040
 Root    399 :    42.857211096783780
 Root    400 :    42.984870373727940
 Root    401 :    43.245906931475980
 Root    402 :    43.277763870665460
 Root    403 :    43.415689969185840
 Root    404 :    43.565997484695790
 Root    405 :    43.587920490105970
 Root    406 :    43.763723228769380
 Root    407 :    43.917778618504190
 Root    408 :    43.973393667072170
 Root    409 :    44.003659001097440
 Root    410 :    44.165497485074830
 Root    411 :    44.387889963997760
 Root    412 :    44.554998235845350
 Root    413 :    44.624191090132190
 Root    414 :    44.723612479422760
 Root    415 :    44.802498377375290
 Root    416 :    45.420594268227960
 Root    417 :    45.631171456819350
 Root    418 :    45.666596484525840
 Root    419 :    45.772642891942220
 Root    420 :    46.077474716084720
 Root    421 :    46.170656997550240
 Root    422 :    46.372496096654250
 Root    423 :    46.468651141012590
 Root    424 :    46.587577338368130
 Root    425 :    46.678481986459100
 Root    426 :    46.767756654935910
 Root    427 :    46.895696114299030
 Root    428 :    46.999092740870300
 Root    429 :    47.177133802129840
 Root    430 :    47.476015674049890
 Root    431 :    47.624070338644770
 Root    432 :    47.746624876966860
 Root    433 :    47.864777979428030
 Root    434 :    48.066997186162320
 Root    435 :    48.357957709440040
 Root    436 :    48.441007146315410
 Root    437 :    48.618899287788740
 Root    438 :    48.719384335715460
 Root    439 :    48.775150177537560
 Root    440 :    48.837116778770780
 Root    441 :    48.988806012626850
 Root    442 :    49.132811138166130
 Root    443 :    49.469303836341640
 Root    444 :    49.620069609040080
 Root    445 :    49.638275481038240
 Root    446 :    49.671203093239330
 Root    447 :    50.096697233246090
 Root    448 :    50.209454322517360
 Root    449 :    50.440243215175930
 Root    450 :    50.592243053305450
 Root    451 :    50.629399541407120
 Root    452 :    50.698583780307230
 Root    453 :    50.826050459588460
 Root    454 :    51.214829373949790
 Root    455 :    51.317239445903520
 Root    456 :    51.337234911663200
 Root    457 :    51.399174351691410
 Root    458 :    51.785028826398050
 Root    459 :    52.007819874219240
 Root    460 :    52.322097467534090
 Root    461 :    52.369513770701400
 Root    462 :    52.564159483242570
 Root    463 :    52.615106799614860
 Root    464 :    52.770492860607160
 Root    465 :    52.831258502597490
 Root    466 :    52.894161733129830
 Root    467 :    53.120752948578660
 Root    468 :    53.188922527311210
 Root    469 :    53.212948409447250
 Root    470 :    53.316262364836010
 Root    471 :    53.682838446384400
 Root    472 :    53.731366497742700
 Root    473 :    53.820079178019140
 Root    474 :    53.885782616502500
 Root    475 :    54.256032500770350
 Root    476 :    54.507325241177060
 Root    477 :    54.676383969372930
 Root    478 :    54.998504096588500
 Root    479 :    55.080808290888150
 Root    480 :    55.266618109873680
 Root    481 :    55.467111252326010
 Root    482 :    55.593015258281410
 Root    483 :    55.694788693706970
 Root    484 :    55.790403872526300
 Root    485 :    55.832149915372010
 Root    486 :    55.948419058290260
 Root    487 :    55.995460303291820
 Root    488 :    56.099910382573420
 Root    489 :    56.205188008701160
 Root    490 :    56.264030120408000
 Root    491 :    56.407376880785250
 Root    492 :    56.594627268853910
 Root    493 :    56.776307068716690
 Root    494 :    57.271994832314630
 Root    495 :    57.570530098930520
 Root    496 :    57.750568981133480
 Root    497 :    57.806039113230200
 Root    498 :    57.824364999161590
 Root    499 :    57.906224531177610
 Root    500 :    58.007485581429780
 Root    501 :    58.187693847666940
 Root    502 :    58.250023986209380
 Root    503 :    58.484804516584080
 Root    504 :    58.862977187668520
 Root    505 :    58.915789375350830
 Root    506 :    59.293705562649620
 Root    507 :    59.395964447628290
 Root    508 :    59.481237750838110
 Root    509 :    59.673759575132730
 Root    510 :    59.802867649048320
 Root    511 :    59.894780059644320
 Root    512 :    60.076058258898180
 Root    513 :    60.153756191446400
 Root    514 :    60.161212857803170
 Root    515 :    60.285047417793050
 Root    516 :    60.470567565164590
 Root    517 :    60.607359735686390
 Root    518 :    60.837723078551220
 Root    519 :    61.140791743260450
 Root    520 :    61.345349953623400
 Root    521 :    61.419439108423360
 Root    522 :    61.601878568195350
 Root    523 :    61.698783976785440
 Root    524 :    61.793833555762660
 Root    525 :    61.893715780430900
 Root    526 :    61.978739070962690
 Root    527 :    62.165714728868180
 Root    528 :    62.245104297245770
 Root    529 :    62.414705128294050
 Root    530 :    62.629153781076770
 Root    531 :    62.698729047604350
 Root    532 :    62.781534188547620
 Root    533 :    62.841952266297470
 Root    534 :    63.016434561203920
 Root    535 :    63.117348129247160
 Root    536 :    63.154707378489530
 Root    537 :    63.236424910049660
 Root    538 :    63.354071802743030
 Root    539 :    63.658850947960640
 Root    540 :    63.733677305746490
 Root    541 :    64.123402178376540
 Root    542 :    64.225206408265070
 Root    543 :    64.498981664793040
 Root    544 :    64.691179039296050
 Root    545 :    64.787930088019320
 Root    546 :    64.821761647808370
 Root    547 :    64.886248988730340
 Root    548 :    65.325072026690960
 Root    549 :    65.561430412643560
 Root    550 :    65.692173447032690
 Root    551 :    65.804605847165700
 Root    552 :    66.034472244252290
 Root    553 :    66.102066125033690
 Root    554 :    66.163723134201020
 Root    555 :    66.277344040018800
 Root    556 :    66.309785810620380
 Root    557 :    66.538496088302370
 Root    558 :    66.619821539665450
 Root    559 :    66.701959805902490
 Root    560 :    66.942522751732570
 Root    561 :    67.191033100667790
 Root    562 :    67.492048207920460
 Root    563 :    67.564840790564860
 Root    564 :    67.715027453375970
 Root    565 :    67.973069421848140
 Root    566 :    68.123612225193810
 Root    567 :    68.233463765637810
 Root    568 :    68.260741113722820
 Root    569 :    68.525316935714000
 Root    570 :    69.050142046798940
 Root    571 :    69.232911573183170
 Root    572 :    69.367341121422840
 Root    573 :    69.492853259703450
 Root    574 :    69.660459433316800
 Root    575 :    69.710802597859480
 Root    576 :    69.854647702802840
 Root    577 :    69.880226221278110
 Root    578 :    70.061122232767360
 Root    579 :    70.233249550838420
 Root    580 :    70.432133901122380
 Root    581 :    70.823410450265710
 Root    582 :    70.886436320883560
 Root    583 :    71.130351152082650
 Root    584 :    71.434210368761530
 Root    585 :    71.553833021056920
 Root    586 :    71.600479941652380
 Root    587 :    71.879730088110830
 Root    588 :    72.310701443851930
 Root    589 :    72.563318466352850
 Root    590 :    72.681344345842040
 Root    591 :    72.822419122557860
 Root    592 :    72.883610812268060
 Root    593 :    72.977203697076970
 Root    594 :    73.041053125173380
 Root    595 :    73.284679728928170
 Root    596 :    73.412253347640610
 Root    597 :    73.723122859257630
 Root    598 :    74.032698136240500
 Root    599 :    74.176780437192220
 Root    600 :    74.571631371952210
 Root    601 :    74.955256879576920
 Root    602 :    75.043985613661850
 Root    603 :    75.134513842190340
 Root    604 :    75.299723765771420
 Root    605 :    75.599610970330840
 Root    606 :    75.882514178428450
 Root    607 :    75.929366836628010
 Root    608 :    76.444601221850020
 Root    609 :    76.494761347532550
 Root    610 :    76.589508597861640
 Root    611 :    76.657122186254470
 Root    612 :    77.112455849423200
 Root    613 :    77.254657505481460
 Root    614 :    77.394164975448330
 Root    615 :    77.466144463601000
 Root    616 :    77.574730505496230
 Root    617 :    77.895401337454690
 Root    618 :    78.247196820232820
 Root    619 :    78.577255270768870
 Root    620 :    78.698978721725010
 Root    621 :    79.137113225370440
 Root    622 :    79.259485620253200
 Root    623 :    79.571824086053720
 Root    624 :    79.894156482457160
 Root    625 :    79.966019560360550
 Root    626 :    80.160294096355780
 Root    627 :    80.246598304380830
 Root    628 :    80.347661167075060
 Root    629 :    80.510104128169620
 Root    630 :    80.723553369687710
 Root    631 :    81.137117326185430
 Root    632 :    81.569939087706190
 Root    633 :    81.746376958510310
 Root    634 :    81.967598415123390
 Root    635 :    82.282433706472900
 Root    636 :    82.370179256990060
 Root    637 :    83.253937591781140
 Root    638 :    84.015470473657690
 Root    639 :    84.199562229104670
 Root    640 :    84.410903873840820
 Root    641 :    84.645211705602160
 Root    642 :    84.725994600347250
 Root    643 :    84.779901043151070
 Root    644 :    84.817081719537000
 Root    645 :    85.015930072868770
 Root    646 :    85.495574519284300
 Root    647 :    85.932008443196050
 Root    648 :    86.332584604475040
 Root    649 :    86.669803966821860
 Root    650 :    86.794578892835450
 Root    651 :    87.203072539329740
 Root    652 :    87.570037808336470
 Root    653 :    88.196879737486700
 Root    654 :    88.565106840697600
 Root    655 :    88.646953734031400
 Root    656 :    89.197341124429390
 Root    657 :    89.362649632637140
 Root    658 :    89.415114881405540
 Root    659 :    89.969748064848100
 Root    660 :    90.038633671912760
 Root    661 :    90.214041485626030
 Root    662 :    90.855880843024990
 Root    663 :    91.038852881853270
 Root    664 :    91.203575087613340
 Root    665 :    91.335169112839950
 Root    666 :    91.473712105549230
 Root    667 :    91.642574976642520
 Root    668 :    92.096598542618950
 Root    669 :    92.458301540133800
 Root    670 :    92.825498744182170
 Root    671 :    93.371921668981910
 Root    672 :    93.608445024068590
 Root    673 :    93.719046155077340
 Root    674 :    94.143834424349000
 Root    675 :    94.201841897578720
 Root    676 :    94.779416744982360
 Root    677 :    94.849699720837850
 Root    678 :    94.983309069444360
 Root    679 :    95.195305114385620
 Root    680 :    96.063814849515680
 Root    681 :    96.486125513998860
 Root    682 :    96.818257766896830
 Root    683 :    97.294454725110550
 Root    684 :    97.987218040662300
 Root    685 :    98.193017533051930
 Root    686 :    98.313584577064930
 Root    687 :    98.651684934445680
 Root    688 :    98.722527735075080
 Root    689 :    99.124676239666030
 Root    690 :    99.553316106045230
 Root    691 :    99.887745728128170
 Root    692 :   100.057334465546700
 Root    693 :   100.713524837228700
 Root    694 :   101.026128028503700
 Root    695 :   101.750818165718600
 Root    696 :   102.303163168258900
 Root    697 :   103.109742334716200
 Root    698 :   103.247028870542600
 Root    699 :   103.384316846484600
 Root    700 :   103.734197874262600
 Root    701 :   104.002515083472000
 Root    702 :   104.426383162336600
 Root    703 :   104.558099106534900
 Root    704 :   104.760238959671900
 Root    705 :   106.245573594057200
 Root    706 :   106.788036550002200
 Root    707 :   106.845871996699100
 Root    708 :   107.903306751840100
 Root    709 :   108.179502536889500
 Root    710 :   108.603869706216800
 Root    711 :   109.336345797287400
 Root    712 :   109.446873543026500
 Root    713 :   109.712120437481800
 Root    714 :   110.050222298291700
 Root    715 :   111.965797138105700
 Root    716 :   113.231533286288400
 Root    717 :   114.212781022474800
 Root    718 :   116.523894984114200
 Root    719 :   119.145193591878600
 Root    720 :   121.463703469953100
 Convergence achieved for final wavefunctions.
 ***********************************************************************
 Excited states from <AA,BB:AA,BB> singles matrix:
 ***********************************************************************
 
 1PDM for each excited state written to RWF  633
 Ground to excited state transition densities written to RWF  633
 Ground to excited state transition electric dipole moments (Au):
       state          X           Y           Z        Dip. S.      Osc.
         1         0.2081     -0.1080      0.0366      0.0563      0.0077
         2         1.0006     -0.0356     -0.0169      1.0027      0.1421
         3        -0.5632      0.0083      0.1163      0.3308      0.0498
         4        -0.3228     -0.4581     -0.0680      0.3187      0.0522
         5         0.0193     -0.0111     -0.3920      0.1541      0.0263
         6         0.2337     -0.2733      0.0867      0.1368      0.0251
         7         0.2621     -0.1140     -0.1541      0.1055      0.0195
         8         0.1048      0.6788      0.0859      0.4791      0.0955
         9         0.2007     -0.0189     -0.0138      0.0408      0.0083
        10        -0.1260      0.0743     -0.1255      0.0371      0.0079
        11         0.4350      0.1087      0.0307      0.2020      0.0441
        12         0.1524     -0.0714      0.0718      0.0335      0.0074
        13         0.0058      0.0173     -0.1298      0.0172      0.0039
        14        -0.4541      0.4223     -0.0575      0.3878      0.0871
        15         0.2087      0.2034     -0.0764      0.0908      0.0214
        16        -0.2382      0.3300      0.2721      0.2397      0.0581
        17        -0.2243     -0.3137      0.2373      0.2050      0.0509
        18         0.2893     -0.1887     -0.0070      0.1194      0.0300
        19         0.0197     -0.1885      0.0405      0.0376      0.0095
        20        -0.0113      0.0311      0.3390      0.1160      0.0297
        21        -0.0465     -0.1075      0.1377      0.0327      0.0085
        22         0.7563     -0.0414      0.0863      0.5812      0.1513
        23         0.4075     -0.2118     -0.0218      0.2114      0.0560
        24        -0.0124     -0.0174      0.0087      0.0005      0.0001
        25         0.3653     -0.0485     -0.0026      0.1358      0.0369
        26        -0.3460      0.1101     -0.1803      0.1643      0.0455
        27        -0.1699     -0.0941      0.2534      0.1019      0.0284
        28        -0.1484      0.4081     -0.0272      0.1893      0.0531
        29        -0.2560     -0.0070      0.1513      0.0885      0.0250
        30         0.1790     -0.0858     -0.0196      0.0398      0.0113
        31        -0.0244      0.1527     -0.1310      0.0411      0.0117
        32        -0.0947      0.0225      0.5644      0.3281      0.0960
        33         0.4261      0.2109      0.0658      0.2304      0.0680
        34        -0.2605     -0.1503     -0.0731      0.0958      0.0284
        35         0.1232      0.0347     -0.0777      0.0224      0.0067
        36         0.1260     -0.3680      0.0152      0.1515      0.0454
        37         0.1467      0.1933      0.0166      0.0592      0.0179
        38        -0.0596      0.3006     -0.1663      0.1216      0.0374
        39         0.1566      0.0692      0.0299      0.0302      0.0093
        40         0.1497     -0.0128      0.2287      0.0749      0.0232
        41        -0.2017      0.1233     -0.0725      0.0611      0.0191
        42        -0.2009      0.1327      0.0099      0.0581      0.0183
        43        -0.1717     -0.0050     -0.0656      0.0338      0.0107
        44         0.0947      0.0350      0.4399      0.2037      0.0654
        45        -0.3366      0.0383     -0.1189      0.1289      0.0416
        46         0.0937      0.1619      0.3207      0.1378      0.0446
        47        -0.3038      0.4400      0.0253      0.2865      0.0954
        48        -0.3493     -0.4403      0.1154      0.3292      0.1106
        49         0.3339      0.0646     -0.1907      0.1520      0.0516
        50         0.1849      0.0361     -0.0390      0.0370      0.0126
        51         0.1815     -0.0181      0.2169      0.0803      0.0276
        52        -0.0237      0.2150      0.0484      0.0491      0.0170
        53        -0.0159     -0.2344      0.0587      0.0586      0.0204
        54         0.3245     -0.0824      0.0944      0.1210      0.0423
        55        -0.1848      0.1097     -0.0839      0.0532      0.0187
        56        -0.0861     -0.0916      0.0595      0.0194      0.0068
        57         0.1224      0.1489      0.2799      0.1155      0.0409
        58         0.3805     -0.1421     -0.1287      0.1816      0.0644
        59         0.0262     -0.1786     -0.4060      0.1974      0.0701
        60        -0.1384      0.0549      0.1498      0.0446      0.0159
        61        -0.1031      0.2198     -0.0995      0.0688      0.0247
        62        -0.1323      0.2206     -0.1456      0.0874      0.0315
        63        -0.0343     -0.2518      0.1343      0.0826      0.0302
        64        -0.0210     -0.1081      0.2887      0.0955      0.0351
        65        -0.2366      0.1904      0.3202      0.1947      0.0718
        66        -0.1499     -0.4094      0.1381      0.2091      0.0776
        67        -0.4282     -0.4038     -0.0220      0.3469      0.1293
        68        -0.4551     -0.2282     -0.1890      0.2950      0.1103
        69         0.3443      0.1744     -0.0018      0.1490      0.0561
        70        -0.0404     -0.1351      0.2694      0.0925      0.0349
        71        -0.2282     -0.0751      0.0350      0.0590      0.0223
        72         0.1601     -0.1243     -0.2286      0.0933      0.0354
        73        -0.1407      0.1562     -0.1244      0.0597      0.0227
        74         0.2065     -0.1889     -0.3739      0.2181      0.0830
        75         0.2390     -0.4403     -0.0608      0.2547      0.0982
        76        -0.0665     -0.0144      0.0717      0.0098      0.0038
        77         0.2641      0.0563     -0.0244      0.0735      0.0286
        78         0.2616     -0.0627      0.2760      0.1485      0.0578
        79        -0.0474      0.0279     -0.0498      0.0055      0.0021
        80         0.0372     -0.1028      0.0373      0.0134      0.0052
        81        -0.2227      0.4605     -0.0735      0.2671      0.1044
        82         0.3210     -0.0612      0.0404      0.1084      0.0425
        83        -0.0136     -0.0568     -0.1447      0.0243      0.0096
        84         0.0340      0.0431      0.1553      0.0271      0.0108
        85         0.2269      0.3524      0.0654      0.1800      0.0717
        86         0.3269     -0.1069      0.0371      0.1197      0.0479
        87        -0.4481      0.1127     -0.0908      0.2218      0.0890
        88        -0.5272     -0.1840     -0.0143      0.3120      0.1256
        89        -0.0739     -0.0339      0.0019      0.0066      0.0027
[...]
     14  -0.676546D-01 -0.500751D+00  0.406754D+00 -0.210618D-02 -0.700906D-01
     15  -0.519900D-01 -0.653134D-01 -0.169618D-02  0.168204D+00  0.946259D-01
     16   0.546563D-01 -0.706165D-01  0.309823D-01 -0.988717D-01 -0.307241D+00
               651           652           653           654           655 
      1  -0.145399D+03 -0.145386D+03 -0.145363D+03 -0.145349D+03 -0.145346D+03
      2   0.133926D-01 -0.182780D-01 -0.902568D-01 -0.982480D-01  0.169931D-02
      3   0.411649D-01 -0.495580D-01 -0.151575D-01 -0.394367D-01 -0.563685D-01
      4   0.517537D-01  0.586026D-01  0.120139D-01 -0.193486D-01  0.636719D-01
      5  -0.179695D-01  0.665569D-01  0.290153D+00  0.310087D+00  0.944201D-02
      6  -0.117177D+00  0.150667D+00  0.434960D-01  0.122650D+00  0.167587D+00
      7  -0.142946D+00 -0.169117D+00 -0.237519D-01  0.533774D-01 -0.186118D+00
      8   0.148081D-01  0.571960D-02 -0.113480D+00  0.555497D-01  0.436913D-01
      9   0.976695D-01  0.196187D+00  0.692058D-01 -0.175496D+00  0.996699D-01
     10   0.231871D+00 -0.438508D-01  0.103783D+00  0.235622D+00  0.250327D+00
     11   0.560202D+00  0.189109D+00  0.595071D+00  0.486979D+00 -0.543236D+00
     12   0.226394D+00 -0.131093D+00 -0.220566D+00 -0.293614D-01 -0.937291D-01
     13   0.689893D-01  0.135210D+00  0.507074D-01 -0.448074D-01 -0.242536D+00
     14  -0.318924D+00  0.730527D-01 -0.225695D+00  0.604906D-01 -0.124834D+00
     15  -0.117708D+00 -0.318914D+00 -0.119898D+00  0.106140D+00 -0.930476D-01
     16   0.562241D-01 -0.380428D-01 -0.240888D+00  0.589206D-01  0.135390D-01
               656           657           658           659           660 
      1  -0.145326D+03 -0.145320D+03 -0.145318D+03 -0.145298D+03 -0.145295D+03
      2   0.591165D-02 -0.537624D-01  0.612582D-01 -0.504062D-01  0.155078D-01
      3   0.599274D-01 -0.331126D-01  0.211876D-01  0.359462D-01  0.879716D-01
      4   0.297802D-01  0.954585D-03 -0.329094D-01 -0.229234D-01  0.162269D-01
      5  -0.236729D-01  0.161434D+00 -0.183763D+00  0.166794D+00 -0.408930D-01
      6  -0.174607D+00  0.101543D+00 -0.658959D-01 -0.939057D-01 -0.259868D+00
      7  -0.876871D-01 -0.883147D-02  0.109976D+00  0.666500D-01 -0.428227D-01
      8  -0.665323D-01 -0.138507D+00  0.934385D-01 -0.109917D-01 -0.162180D-01
      9  -0.531958D-01  0.305965D+00  0.274430D+00 -0.124055D-01  0.104565D+00
     10  -0.181741D+00  0.112362D-01 -0.151929D+00  0.432771D+00  0.452873D-01
     11   0.890125D+00  0.577419D+00 -0.824965D+00  0.191194D+00  0.270072D+00
     12   0.124340D+00  0.960228D-01 -0.103777D+00 -0.619558D-01 -0.189118D+00
     13  -0.107789D+00  0.139151D+00 -0.108337D+00 -0.108564D-01  0.153970D+00
     14  -0.280613D-01  0.638179D-01 -0.397485D+00  0.207014D+00  0.389839D+00
     15   0.899554D-01 -0.381299D+00 -0.328583D+00  0.254259D-01 -0.177480D+00
     16  -0.607780D-01 -0.260756D+00  0.150538D+00 -0.182438D-01 -0.138987D+00
               661           662           663           664           665 
      1  -0.145289D+03 -0.145265D+03 -0.145258D+03 -0.145252D+03 -0.145247D+03
      2  -0.290674D-01 -0.197836D-01 -0.146630D-01  0.283017D-01 -0.249051D-01
      3   0.505073D-01  0.679906D-03  0.304478D-01  0.458501D-01  0.497240D-01
      4   0.336612D-01  0.861289D-01 -0.945000D-01  0.445070D-01  0.159631D-01
      5   0.811773D-01  0.614426D-01  0.551892D-01 -0.826746D-01  0.774490D-01
      6  -0.152559D+00  0.714859D-02 -0.925868D-01 -0.148658D+00 -0.145033D+00
      7  -0.944766D-01 -0.264655D+00  0.290513D+00 -0.133955D+00 -0.424040D-01
      8   0.563357D-01  0.139310D+00  0.931550D-01 -0.413910D-01  0.136009D+00
      9   0.315928D-01  0.455116D+00 -0.771134D+00  0.308799D+00 -0.142707D+00
     10  -0.908796D-01  0.243233D+00 -0.575309D-01 -0.816626D-01 -0.181517D+00
     11  -0.291952D+00  0.628210D+00 -0.563575D-01  0.237820D+00 -0.179615D+00
     12   0.255664D+00  0.110118D+00  0.116422D+00  0.570752D+00  0.250164D+00
     13   0.396028D-01  0.794473D-01 -0.173382D+00 -0.891597D-01 -0.224810D+00
     14  -0.612921D+00  0.409845D+00 -0.239796D+00 -0.971190D-01 -0.365795D+00
     15   0.773765D-01 -0.448314D+00  0.735342D+00 -0.342601D+00  0.688659D-01
     16   0.226751D-01  0.296932D+00  0.144716D+00 -0.850662D-01  0.215986D+00
               666           667           668           669           670 
      1  -0.145242D+03 -0.145236D+03 -0.145219D+03 -0.145206D+03 -0.145193D+03
      2  -0.126509D-01  0.615532D-02  0.540769D-01 -0.563701D-01 -0.269534D-02
      3   0.233506D-01 -0.648494D-01 -0.198338D-01 -0.720928D-01  0.586567D-01
      4   0.647264D-01  0.731345D-01  0.523366D-01  0.128053D-01  0.128941D-02
      5   0.418331D-01 -0.166661D-01 -0.169015D+00  0.161435D+00  0.933857D-02
      6  -0.845799D-01  0.196882D+00  0.757840D-01  0.211015D+00 -0.162553D+00
      7  -0.198263D+00 -0.209820D+00 -0.155108D+00 -0.381691D-01 -0.440082D-02
      8  -0.668156D-01  0.188749D+00  0.599050D-01  0.708279D-02 -0.280374D-02
      9   0.343264D+00  0.164156D+00  0.169026D+00  0.445243D-01  0.211762D-01
     10  -0.197947D+00  0.240294D+00 -0.506670D-01 -0.191561D+00  0.114329D+00
     11   0.237297D+00  0.122985D-01 -0.166770D+00 -0.374065D+00 -0.516918D-01
     12  -0.246316D+00  0.348132D-01 -0.822667D-01 -0.140052D-01 -0.143852D+00
     13   0.180998D+00  0.128877D+00  0.166780D-01  0.961240D-01 -0.321969D-01
     14  -0.352606D+00  0.261605D+00  0.341130D+00  0.322949D-01  0.103889D+00
     15  -0.436603D+00 -0.182986D+00 -0.215101D+00 -0.724403D-01 -0.344705D-01
     16  -0.198205D-02  0.158615D+00 -0.191834D-01 -0.107338D-01  0.454146D-01
               671           672           673           674           675 
      1  -0.145173D+03 -0.145164D+03 -0.145160D+03 -0.145144D+03 -0.145142D+03
      2  -0.643746D-01  0.783248D-01  0.211296D-01 -0.716789D-01 -0.723956D-02
      3  -0.437726D-01  0.132687D-01 -0.198223D-01 -0.126552D-01  0.965590D-01
      4   0.134689D+00 -0.215399D-01  0.186369D-01  0.127722D-01  0.682396D-01
      5   0.198564D+00 -0.257148D+00 -0.624456D-01  0.218386D+00  0.269574D-01
      6   0.135570D+00 -0.425296D-01  0.814362D-01  0.379992D-01 -0.300208D+00
      7  -0.407718D+00  0.524887D-01 -0.576583D-01 -0.411375D-01 -0.203528D+00
      8   0.135116D+00 -0.170487D+00  0.777870D-01 -0.125772D-01  0.795402D-01
      9   0.687298D+00  0.345581D+00 -0.116997D+00  0.233320D+00  0.402094D+00
     10   0.237332D+00 -0.188481D+00 -0.867687D-01 -0.483519D+00 -0.143750D+00
     11   0.126233D+00 -0.354316D+00  0.593395D+00 -0.354733D-01  0.987667D+00
     12   0.371367D-01 -0.283029D+00 -0.124462D+00 -0.168605D+00 -0.110008D+00
     13   0.225954D+00  0.146827D+00  0.848522D-01  0.105947D+00  0.151929D+00
     14   0.228558D+00 -0.510493D-01  0.241703D-01 -0.414199D+00 -0.328347D-01
     15  -0.780173D+00 -0.313305D+00  0.797063D-01 -0.331970D+00 -0.566269D+00
     16   0.199212D+00 -0.174013D+00  0.175356D+00  0.450405D-01  0.106080D+00
               676           677           678           679           680 
      1  -0.145121D+03 -0.145118D+03 -0.145113D+03 -0.145106D+03 -0.145074D+03
      2   0.631834D-01  0.574167D-01  0.615945D-02 -0.718098D-01  0.503463D-01
      3   0.543650D-01 -0.106008D-01 -0.319847D-01 -0.401640D-01 -0.206315D-01
      4   0.839410D-03  0.249041D-01 -0.373393D-01  0.273070D-01 -0.107297D-01
      5  -0.217255D+00 -0.179877D+00 -0.146891D-01  0.225279D+00 -0.158426D+00
      6  -0.174500D+00  0.383096D-01  0.106489D+00  0.110109D+00  0.473680D-01
      7  -0.107967D-01 -0.781594D-01  0.119176D+00 -0.860788D-01  0.294722D-01
      8  -0.330411D-01 -0.152085D+00 -0.280955D+00 -0.263816D+00  0.140432D+00
      9   0.792359D-01  0.357139D+00  0.190924D+00  0.482450D+00 -0.214325D+00
     10  -0.151493D+00  0.460950D-01  0.398356D+00  0.643810D-01  0.408084D-01
     11  -0.751111D+00  0.642580D+00 -0.457263D+00 -0.205251D+00  0.191969D+00
     12   0.181921D+00  0.138076D+00 -0.491707D+00 -0.639359D-01 -0.464878D+00
     13   0.546328D-01  0.269515D+00  0.115831D+00  0.172684D+00 -0.101085D+00
     14   0.222243D+00  0.311513D+00  0.437437D-01  0.230585D-01  0.290765D-01
     15  -0.649050D-01 -0.430300D+00 -0.143791D+00 -0.523302D+00  0.276522D+00
     16  -0.158968D-02 -0.242833D+00 -0.507091D+00 -0.432504D+00  0.283490D+00
               681           682           683           684           685 
      1  -0.145058D+03 -0.145046D+03 -0.145028D+03 -0.145003D+03 -0.144995D+03
      2   0.794962D-02  0.786375D-01 -0.399907D-01  0.705718D-02  0.128847D-01
      3   0.188761D-01 -0.877389D-01 -0.501439D-01 -0.122822D-02 -0.306498D-01
      4   0.283046D-01  0.292815D-02  0.871346D-02 -0.154774D-01 -0.505213D-01
      5  -0.231808D-01 -0.232893D+00  0.120128D+00 -0.275554D-01 -0.373125D-01
      6  -0.560734D-01  0.260818D+00  0.156472D+00 -0.174902D-01  0.841265D-01
      7  -0.779540D-01 -0.912749D-02 -0.331130D-01  0.403656D-01  0.171430D+00
      8  -0.708283D-01 -0.464514D-01  0.396176D-01 -0.999069D-01  0.801778D-01
      9   0.172981D+00  0.119581D+00  0.892946D-02  0.305339D-01 -0.275750D+00
     10  -0.352739D-01  0.240214D+00 -0.608123D-01 -0.151445D+00  0.441039D+00
     11  -0.372932D-01  0.684598D-01  0.163557D+00 -0.883533D-01 -0.288654D+00
     12   0.512682D-01 -0.277652D-01 -0.229375D-01 -0.716522D-02  0.308120D+00
     13   0.756640D-01  0.621450D-01  0.960976D-01 -0.108719D-01 -0.216910D+00
     14   0.257487D-01  0.285366D+00 -0.154012D+00 -0.161540D-01  0.132898D+00
     15  -0.218105D+00 -0.615650D-01  0.154465D-01  0.341200D-01  0.223142D+00
     16   0.924588D-01 -0.175080D+00  0.538716D-01 -0.107481D+00 -0.445596D-01
               686           687           688           689           690 
      1  -0.144991D+03 -0.144979D+03 -0.144976D+03 -0.144961D+03 -0.144945D+03
      2   0.712161D-02 -0.987430D-02 -0.294667D-01  0.587962D-01  0.156129D-01
      3   0.911599D-02  0.266931D-01  0.517356D-01  0.106321D-01 -0.554810D-01
      4   0.606581D-01 -0.576244D-01 -0.424758D-02 -0.699069D-02  0.830739D-03
      5  -0.330716D-01  0.219442D-01  0.920410D-01 -0.188450D+00 -0.422823D-01
      6  -0.356848D-01 -0.888113D-01 -0.148530D+00 -0.332388D-01  0.167442D+00
      7  -0.180456D+00  0.181195D+00  0.165991D-01  0.230187D-01 -0.178183D-02
      8   0.183218D+00 -0.314922D-01 -0.119689D+00  0.623625D-01  0.323225D-01
      9  -0.347154D-02 -0.299078D+00  0.122877D+00 -0.721366D-01 -0.775827D-01
     10   0.416812D-01 -0.892829D-02 -0.171924D+00  0.351495D+00 -0.249081D+00
     11  -0.254236D+00  0.353683D+00  0.127249D+01 -0.100191D+00 -0.149373D+00
     12   0.389964D-01 -0.473027D+00  0.302388D+00 -0.218453D-01 -0.124503D+00
     13  -0.452643D-01  0.998705D-01 -0.388526D-01  0.786513D-01  0.201041D+00
     14  -0.374431D-01 -0.108716D+00 -0.265309D+00  0.429439D+00 -0.320484D+00
     15  -0.398799D-02  0.346549D+00 -0.256811D+00  0.105783D+00  0.998801D-01
     16   0.299677D+00  0.325999D-01 -0.145133D+00  0.441831D-01  0.656943D-01
               691           692           693           694           695 
      1  -0.144933D+03 -0.144927D+03 -0.144903D+03 -0.144891D+03 -0.144865D+03
      2   0.264821D-01  0.724551D-03  0.485078D-01 -0.953803D-01  0.657408D-02
      3  -0.995749D-03  0.908508D-01  0.184719D-01  0.952891D-01 -0.490353D-01
      4  -0.831089D-02  0.623225D-02 -0.182296D-01  0.250421D-02  0.749952D-01
      5  -0.869575D-01 -0.324673D-02 -0.167175D+00  0.315967D+00 -0.101418D-01
      6   0.565872D-02 -0.288345D+00 -0.652854D-01 -0.306827D+00  0.171578D+00
      7   0.249390D-01 -0.110617D-01  0.669097D-01 -0.146222D-01 -0.244920D+00
      8  -0.263441D-01 -0.365452D-01 -0.293148D-01 -0.356925D-01 -0.474666D-01
      9   0.329989D-01  0.779966D-01 -0.258513D-01  0.261816D-01  0.497240D+00
     10   0.776016D-01 -0.474543D+00  0.351179D+00  0.684655D-01  0.286030D+00
     11  -0.205296D+00 -0.542926D-01 -0.294101D+00 -0.224673D+00 -0.297150D+00
     12  -0.609898D-01  0.172763D+00  0.408186D+00 -0.165016D+00 -0.147532D+00
     13   0.150260D+00  0.337373D-01 -0.980222D-02  0.465696D-01  0.180920D+00
     14   0.693072D-01 -0.309410D+00  0.718514D+00 -0.317086D+00  0.169627D+00
     15  -0.968159D-01 -0.861433D-01  0.321697D-01 -0.795162D-02 -0.439006D+00
     16  -0.229138D-02 -0.450000D-01 -0.183285D+00  0.101398D+00 -0.151911D+00
               696           697           698           699           700 
      1  -0.144844D+03 -0.144815D+03 -0.144810D+03 -0.144805D+03 -0.144792D+03
      2  -0.492314D-01 -0.894992D-01 -0.860648D-02  0.255855D-02  0.794666D-01
      3  -0.795733D-02  0.187739D-01  0.244808D-01 -0.220210D-01 -0.269857D-01
      4  -0.665287D-01  0.870632D-02  0.642197D-03 -0.702739D-02 -0.717094D-02
      5   0.151907D+00  0.310847D+00  0.158794D-01 -0.127668D-01 -0.291315D+00
      6   0.251778D-01 -0.498434D-01 -0.870465D-01  0.713800D-01  0.919244D-01
      7   0.210819D+00 -0.227860D-01 -0.298026D-02  0.225305D-01  0.269683D-01
      8  -0.466231D-01  0.822049D-02  0.735849D-01  0.541544D-02  0.592227D-01
      9  -0.351624D+00  0.130384D-02 -0.129529D+00 -0.826309D-01 -0.139368D+00
     10   0.526112D-01  0.177267D+00 -0.686356D-03 -0.220030D+00  0.193509D-01
     11   0.635171D+00  0.159301D+00  0.411678D-01 -0.219569D+00 -0.260508D+00
     12  -0.888675D-02  0.386054D+00  0.155354D+00  0.115076D+00 -0.628957D+00
     13  -0.412310D-01  0.887335D-01 -0.295099D-01 -0.350832D-01  0.107059D+00
     14   0.193005D+00 -0.814626D-01 -0.731535D-01 -0.411077D-01  0.697566D+00
     15   0.399385D+00 -0.537499D-01  0.470126D-01  0.104537D+00  0.108920D+00
     16  -0.244045D-01 -0.240541D-01  0.585541D-01 -0.158451D-01  0.787305D-02
               701           702           703           704           705 
      1  -0.144782D+03 -0.144766D+03 -0.144762D+03 -0.144754D+03 -0.144700D+03
      2  -0.241855D-01  0.932530D-04 -0.380671D-01 -0.210420D-01 -0.189750D-01
      3   0.781253D-01  0.446598D-01 -0.575200D-02 -0.168228D-01 -0.341110D-01
      4   0.155188D-01  0.839842D-02 -0.321803D-01 -0.648045D-02  0.289814D-01
      5   0.844010D-01  0.659934D-02  0.148211D+00  0.842670D-01  0.565525D-01
      6  -0.252185D+00 -0.142237D+00  0.381063D-01  0.424523D-01  0.120539D+00
      7  -0.580781D-01 -0.328695D-01  0.118009D+00  0.214284D-01 -0.938583D-01
      8  -0.134347D-01 -0.524836D-03  0.265902D-01  0.592944D-01  0.153459D+00
      9   0.915686D-01  0.757035D-01 -0.275966D+00 -0.140263D+00 -0.706480D-01
     10  -0.283992D+00  0.252440D+00 -0.196288D+00 -0.515842D-02  0.129473D+00
     11   0.581695D-01  0.815233D-01  0.277310D+00 -0.305757D+00  0.419109D+00
     12   0.179648D+00  0.150546D+00  0.839145D-01  0.147946D+00 -0.849095D-01
     13  -0.370866D-01 -0.804161D-01 -0.469820D-01  0.346800D-01 -0.127941D-01
     14  -0.599806D+00  0.151029D+00  0.139904D+00 -0.346511D+00  0.223157D+00
     15  -0.126520D+00 -0.445356D-01  0.122071D+00  0.148780D+00  0.221151D+00
     16  -0.112117D-01  0.168837D-01 -0.462550D-01  0.690582D-01  0.186242D+00
               706           707           708           709           710 
      1  -0.144680D+03 -0.144677D+03 -0.144639D+03 -0.144628D+03 -0.144613D+03
      2  -0.507692D-01  0.142347D-01  0.879818D-01  0.135282D-03 -0.134518D-01
      3   0.644630D-01 -0.463785D-01  0.475883D-01  0.635226D-01  0.940465D-03
      4  -0.525081D-02  0.842665D-02  0.669333D-01  0.785772D-02 -0.316632D-01
      5   0.174879D+00 -0.510224D-01 -0.310430D+00  0.184116D-01  0.613304D-01
      6  -0.243764D+00  0.163591D+00 -0.177633D+00 -0.201369D+00 -0.134626D-01
      7   0.190140D-01 -0.276740D-01 -0.227665D+00 -0.263614D-01  0.106667D+00
      8   0.386628D-02 -0.427711D-01 -0.105402D+00 -0.455740D-01  0.144056D-01
      9  -0.121719D+00  0.450631D-01  0.512617D+00  0.134025D+00 -0.203751D+00
     10  -0.404933D+00 -0.361869D+00 -0.330774D+00  0.774876D-01 -0.123068D+00
     11   0.318075D+00  0.799024D+00 -0.104174D+01  0.451791D+00  0.244082D+00
     12  -0.197600D-01 -0.393134D+00  0.290850D-01  0.225530D+00 -0.637567D-01
     13  -0.249897D-01  0.290414D-01  0.581003D-01 -0.567608D-01  0.866860D-01
     14  -0.313717D+00 -0.288428D+00 -0.488932D+00 -0.104928D+00 -0.264740D+00
     15   0.769034D-01 -0.113658D+00 -0.319417D+00 -0.149075D+00  0.139025D+00
     16   0.130082D+00  0.167400D-02 -0.704114D-03 -0.399378D-02  0.462990D-01
               711           712           713           714           715 
      1  -0.144586D+03 -0.144582D+03 -0.144572D+03 -0.144560D+03 -0.144489D+03
      2   0.862939D-01  0.309254D-01 -0.200424D-03  0.119666D-01 -0.107172D+00
      3   0.583563D-01 -0.174624D-01 -0.106127D-01 -0.546533D-01 -0.654836D-01
      4  -0.712696D-02 -0.391301D-01 -0.340984D-01  0.903888D-02  0.178602D-01
      5  -0.320174D+00 -0.104769D+00  0.261150D-01 -0.437822D-01  0.422500D+00
      6  -0.199585D+00  0.649154D-01  0.621454D-01  0.186217D+00  0.253712D+00
      7   0.259268D-01  0.134494D+00  0.113617D+00 -0.313810D-01 -0.671884D-01
      8  -0.163238D-01  0.618287D-01  0.426357D-01  0.348030D-01  0.136787D-01
      9  -0.154446D-01 -0.312474D+00 -0.240788D+00  0.873816D-01  0.964819D-01
     10  -0.488927D+00  0.207134D+00  0.237252D+00  0.838847D+00  0.442246D+00
     11  -0.892805D+00  0.117231D+00  0.204923D+00 -0.925427D+00  0.118184D+01
     12   0.355972D+00  0.249134D+00 -0.203454D+00  0.438803D+00 -0.265840D+00
     13  -0.235601D-01 -0.819844D-01  0.123089D+00 -0.117150D-01 -0.180770D-01
     14  -0.107226D+00  0.161383D+00  0.232832D+00  0.409982D+00  0.402351D+00
     15   0.109151D+00  0.319788D+00  0.201412D+00  0.653242D-01 -0.255365D+00
     16   0.286609D-01 -0.192709D-01 -0.148753D-01 -0.162577D+00 -0.621388D-01
               716           717           718           719           720 
      1  -0.144443D+03 -0.144407D+03 -0.144322D+03 -0.144225D+03 -0.144140D+03
      2  -0.577161D-01 -0.275062D-02 -0.704373D-02 -0.640884D-02 -0.159127D-01
      3   0.513727D-01  0.193485D-01  0.321094D-02  0.377416D-01  0.629236D-02
      4  -0.132061D-01 -0.406371D-02  0.416614D-02  0.353561D-02 -0.743125D-02
      5   0.185929D+00 -0.808865D-02  0.725069D-02  0.496102D-01 -0.807575D-02
      6  -0.174720D+00 -0.594515D-01 -0.255889D-01 -0.123422D+00 -0.500014D-01
      7   0.448117D-01  0.123532D-01 -0.110053D-01 -0.166168D-01  0.314103D-01
      8   0.155697D-01 -0.327003D-01 -0.100528D-01 -0.141025D-01 -0.522765D-02
      9  -0.124605D+00  0.241417D-01  0.197720D-01 -0.527538D-02 -0.466294D-01
     10  -0.118986D+00 -0.285894D+00 -0.155810D+00 -0.389417D+00 -0.666831D-01
     11   0.578421D-01 -0.584672D+00  0.579623D+00  0.532033D+00  0.276136D+00
     12   0.234502D+00 -0.126578D+00  0.515872D+00 -0.179912D+00 -0.139973D+00
     13  -0.499024D-01  0.143888D-01 -0.863146D-01  0.269134D-01  0.219512D-01
     14  -0.236732D+00 -0.183858D+00  0.244821D+00 -0.312404D+00  0.499017D-01
     15   0.576165D-01 -0.127241D-01 -0.104945D+00 -0.629154D-01 -0.211955D-03
     16   0.844785D-01  0.582997D-01 -0.494500D-01  0.142136D+00  0.214788D-01
 Unable to Open any file for archive entry.
 1\1\GINC-HEL24\SP\RSVWN5 TD-FC\Gen\C1H4N2\SABYASACHI\21-Mar-2022\0\\#P
  TD(Nstates=10000) svwn5/Gen SCF(maxcycles=100) Int(Grid=ultrafine)\\x
 GDB7_00001_tier4.com\\0,1\N,0,1.106441,0.142513,-0.090982\N,0,-0.08075
 3,-0.51252,0.006066\C,0,-1.148696,0.167456,0.008166\H,0,1.854749,-0.40
 9916,0.291533\H,0,1.109677,1.100453,0.242713\H,0,-2.089851,-0.366199,0
 .035249\H,0,-1.162208,1.260974,-0.02408\\Version=EM64L-G16RevC.01\Stat
 e=1-A\HF=-148.6039601\RMSD=8.357e-09\PG=C01 [X(C1H4N2)]\\@
 The archive entry for this job was punched.


 You can't act like a skunk without someone's getting wind of it.
 -- Lorene Workman
 Job cpu time:       0 days  0 hours  5 minutes 13.5 seconds.
 Elapsed time:       0 days  0 hours  0 minutes 39.6 seconds.
 File lengths (MBytes):  RWF=    259 Int=      0 D2E=      0 Chk=    150 Scr=      1
 Normal termination of Gaussian 16 at Mon Mar 21 20:06:35 2022.
