 Entering Gaussian System, Link 0=g16
 Input=000008.com
 Output=000008.log
 Initial command:
 /home/sabyasachi/g16/l1.exe "/scratch/sabyasachi/PBS_7975845.helios/Gau-152042.inp" -scrdir="/scratch/sabyasachi/PBS_7975845.helios/"
 Entering Link 1 = /home/sabyasachi/g16/l1.exe PID=    152043.
  
 Copyright (c) 1988-2019, Gaussian, Inc.  All Rights Reserved.
  
 This is part of the Gaussian(R) 16 program.  It is based on
 the Gaussian(R) 09 system (copyright 2009, Gaussian, Inc.),
 the Gaussian(R) 03 system (copyright 2003, Gaussian, Inc.),
 the Gaussian(R) 98 system (copyright 1998, Gaussian, Inc.),
 the Gaussian(R) 94 system (copyright 1995, Gaussian, Inc.),
 the Gaussian 92(TM) system (copyright 1992, Gaussian, Inc.),
 the Gaussian 90(TM) system (copyright 1990, Gaussian, Inc.),
 the Gaussian 88(TM) system (copyright 1988, Gaussian, Inc.),
 the Gaussian 86(TM) system (copyright 1986, Carnegie Mellon
 University), and the Gaussian 82(TM) system (copyright 1983,
 Carnegie Mellon University). Gaussian is a federally registered
 trademark of Gaussian, Inc.
  
 This software contains proprietary and confidential information,
 including trade secrets, belonging to Gaussian, Inc.
  
 This software is provided under written license and may be
 used, copied, transmitted, or stored only in accord with that
 written license.
  
 The following legend is applicable only to US Government
 contracts under FAR:
  
                    RESTRICTED RIGHTS LEGEND
  
 Use, reproduction and disclosure by the US Government is
 subject to restrictions as set forth in subparagraphs (a)
 and (c) of the Commercial Computer Software - Restricted
 Rights clause in FAR 52.227-19.
  
 Gaussian, Inc.
 340 Quinnipiac St., Bldg. 40, Wallingford CT 06492
  
  
 ---------------------------------------------------------------
 Warning -- This program may not be used in any manner that
 competes with the business of Gaussian, Inc. or will provide
 assistance to any competitor of Gaussian, Inc.  The licensee
 of this program is prohibited from giving any competitor of
 Gaussian, Inc. access to this program.  By using this program,
 the user acknowledges that Gaussian, Inc. is engaged in the
 business of creating and licensing software in the field of
 computational chemistry and represents and warrants to the
 licensee that it is not a competitor of Gaussian, Inc. and that
 it will not use this program in any manner prohibited above.
 ---------------------------------------------------------------
  

 Cite this work as:
 Gaussian 16, Revision C.01,
 M. J. Frisch, G. W. Trucks, H. B. Schlegel, G. E. Scuseria, 
 M. A. Robb, J. R. Cheeseman, G. Scalmani, V. Barone, 
 G. A. Petersson, H. Nakatsuji, X. Li, M. Caricato, A. V. Marenich, 
 J. Bloino, B. G. Janesko, R. Gomperts, B. Mennucci, H. P. Hratchian, 
 J. V. Ortiz, A. F. Izmaylov, J. L. Sonnenberg, D. Williams-Young, 
 F. Ding, F. Lipparini, F. Egidi, J. Goings, B. Peng, A. Petrone, 
 T. Henderson, D. Ranasinghe, V. G. Zakrzewski, J. Gao, N. Rega, 
 G. Zheng, W. Liang, M. Hada, M. Ehara, K. Toyota, R. Fukuda, 
 J. Hasegawa, M. Ishida, T. Nakajima, Y. Honda, O. Kitao, H. Nakai, 
 T. Vreven, K. Throssell, J. A. Montgomery, Jr., J. E. Peralta, 
 F. Ogliaro, M. J. Bearpark, J. J. Heyd, E. N. Brothers, K. N. Kudin, 
 V. N. Staroverov, T. A. Keith, R. Kobayashi, J. Normand, 
 K. Raghavachari, A. P. Rendell, J. C. Burant, S. S. Iyengar, 
 J. Tomasi, M. Cossi, J. M. Millam, M. Klene, C. Adamo, R. Cammi, 
 J. W. Ochterski, R. L. Martin, K. Morokuma, O. Farkas, 
 J. B. Foresman, and D. J. Fox, Gaussian, Inc., Wallingford CT, 2019.
 
 ******************************************
 Gaussian 16:  EM64L-G16RevC.01  3-Jul-2019
                21-Mar-2022 
 ******************************************
 %mem=64gb
 %nproc=8
 Will use up to    8 processors via shared memory.
 ---------------------------------------------------------------------
 #P TD(Nstates=10000) svwn5/Gen SCF(maxcycles=100) Int(Grid=ultrafine)
 ---------------------------------------------------------------------
 1/38=1,172=1/1;
 2/12=2,17=6,18=5,40=1/2;
 3/5=7,11=9,25=1,30=1,74=201,75=-5/1,2,3,8;
 4//1;
 5/5=2,7=100,38=5/2;
 8/6=1,10=1,108=10000/1;
 9/41=10000,42=1,70=2/14;
 6/7=2,8=2,9=2,10=2/1;
 99/5=1,9=1/99;
 Leave Link    1 at Mon Mar 21 20:05:50 2022, MaxMem=  8589934592 cpu:               0.4 elap:               0.1
 (Enter /home/sabyasachi/g16/l101.exe)
 ---------------------
 xGDB7_00001_tier4.com
 ---------------------
 Symbolic Z-matrix:
 Charge =  0 Multiplicity = 1
 6                    -0.63015  0.         0. 
 9                     0.74851   0.       0. 
 1                    -0.98525   0.89968   0.50542 
 1                    -0.98522  -0.88756   0.52642 
 1                    -0.98525  -0.01213  -1.03184 
 
 ITRead=  0  0  0  0  0
 MicOpt= -1 -1 -1 -1 -1
 NAtoms=      5 NQM=        5 NQMF=       0 NMMI=      0 NMMIF=      0
                NMic=       0 NMicF=      0.
                    Isotopes and Nuclear Properties:
 (Nuclear quadrupole moments (NQMom) in fm**2, nuclear magnetic moments (NMagM)
  in nuclear magnetons)

  Atom         1           2           3           4           5
 IAtWgt=          12          19           1           1           1
 AtmWgt=  12.0000000  18.9984033   1.0078250   1.0078250   1.0078250
 NucSpn=           0           1           1           1           1
 AtZEff=  -0.0000000  -0.0000000  -0.0000000  -0.0000000  -0.0000000
 NQMom=    0.0000000   0.0000000   0.0000000   0.0000000   0.0000000
 NMagM=    0.0000000   2.6288670   2.7928460   2.7928460   2.7928460
 AtZNuc=   6.0000000   9.0000000   1.0000000   1.0000000   1.0000000
 Leave Link  101 at Mon Mar 21 20:05:51 2022, MaxMem=  8589934592 cpu:               0.8 elap:               0.1
 (Enter /home/sabyasachi/g16/l202.exe)
                          Input orientation:                          
 ---------------------------------------------------------------------
 Center     Atomic      Atomic             Coordinates (Angstroms)
 Number     Number       Type             X           Y           Z
 ---------------------------------------------------------------------
      1          6           0       -0.630149   -0.000001    0.000003
      2          9           0        0.748512    0.000002   -0.000001
      3          1           0       -0.985250    0.899676    0.505416
      4          1           0       -0.985222   -0.887557    0.526417
      5          1           0       -0.985245   -0.012128   -1.031840
 ---------------------------------------------------------------------
                    Distance matrix (angstroms):
                    1          2          3          4          5
     1  C    0.000000
     2  F    1.378661   0.000000
     3  H    1.091310   2.017620   0.000000
     4  H    1.091304   2.017600   1.787356   0.000000
     5  H    1.091302   2.017611   1.787328   1.787328   0.000000
 Stoichiometry    CH3F
 Framework group  C1[X(CH3F)]
 Deg. of freedom     9
 Full point group                 C1      NOp   1
 Largest Abelian subgroup         C1      NOp   1
 Largest concise Abelian subgroup C1      NOp   1
                         Standard orientation:                         
 ---------------------------------------------------------------------
 Center     Atomic      Atomic             Coordinates (Angstroms)
 Number     Number       Type             X           Y           Z
 ---------------------------------------------------------------------
      1          6           0        0.630149   -0.000001   -0.000003
      2          9           0       -0.748512    0.000002    0.000001
      3          1           0        0.985250    0.897475   -0.509314
      4          1           0        0.985222   -0.889832   -0.522562
      5          1           0        0.985245   -0.007652    1.031883
 ---------------------------------------------------------------------
 Rotational constants (GHZ):         156.9708152          25.8428001          25.8427103
 Leave Link  202 at Mon Mar 21 20:05:51 2022, MaxMem=  8589934592 cpu:               0.1 elap:               0.0
 (Enter /home/sabyasachi/g16/l301.exe)
 General basis read from cards:  (5D, 7F)
 Centers:       3      4      5
 S 3 1.00
     Exponent=  1.3010701000D+01 Coefficients=  1.9682158000D-02
     Exponent=  1.9622572000D+00 Coefficients=  1.3796524000D-01
     Exponent=  4.4453796000D-01 Coefficients=  4.7831935000D-01
 S 1 1.00
     Exponent=  1.2194962000D-01 Coefficients=  1.0000000000D+00
 P 1 1.00
     Exponent=  8.0000000000D-01 Coefficients=  1.0000000000D+00
 P 1 1.00
     Exponent=  1.1704099050D-01 Coefficients=  1.0000000000D+00
 ****
 Centers:       1
 S 5 1.00
     Exponent=  1.2384016938D+03 Coefficients=  5.4568832082D-03
     Exponent=  1.8629004992D+02 Coefficients=  4.0638409211D-02
     Exponent=  4.2251176346D+01 Coefficients=  1.8025593888D-01
     Exponent=  1.1676557932D+01 Coefficients=  4.6315121755D-01
     Exponent=  3.5930506482D+00 Coefficients=  4.4087173314D-01
 S 1 1.00
     Exponent=  4.0245147363D-01 Coefficients=  1.0000000000D+00
 S 1 1.00
     Exponent=  1.3090182668D-01 Coefficients=  1.0000000000D+00
 S 1 1.00
     Exponent=  6.7053540256D-02 Coefficients=  1.0000000000D+00
 P 3 1.00
     Exponent=  9.4680970621D+00 Coefficients=  3.8387871728D-02
     Exponent=  2.0103545142D+00 Coefficients=  2.1117025112D-01
     Exponent=  5.4771004707D-01 Coefficients=  5.1328172114D-01
 P 1 1.00
     Exponent=  1.5268613795D-01 Coefficients=  1.0000000000D+00
 D 1 1.00
     Exponent=  8.0000000000D-01 Coefficients=  1.0000000000D+00
 D 1 1.00
     Exponent=  1.1713185140D-01 Coefficients=  1.0000000000D+00
 ****
 Centers:       2
 S 5 1.00
     Exponent=  2.8948325990D+03 Coefficients= -5.3408255515D-03
     Exponent=  4.3541939120D+02 Coefficients= -3.9904258866D-02
     Exponent=  9.8843328866D+01 Coefficients= -1.7912768038D-01
     Exponent=  2.7485198001D+01 Coefficients= -4.6758090825D-01
     Exponent=  8.5405498171D+00 Coefficients= -4.4653131020D-01
 S 1 1.00
     Exponent=  1.0654578038D+00 Coefficients=  1.0000000000D+00
 S 1 1.00
     Exponent=  3.3247346748D-01 Coefficients=  1.0000000000D+00
 S 1 1.00
     Exponent=  9.8097752264D-02 Coefficients=  1.0000000000D+00
 P 3 1.00
     Exponent=  2.2696633924D+01 Coefficients= -4.5212874436D-02
     Exponent=  4.9872339257D+00 Coefficients= -2.3754317067D-01
     Exponent=  1.3491613954D+00 Coefficients= -5.1287353587D-01
 P 1 1.00
     Exponent=  3.4829881977D-01 Coefficients=  1.0000000000D+00
 P 1 1.00
     Exponent=  8.3372148304D-02 Coefficients=  1.0000000000D+00
 D 1 1.00
     Exponent=  1.4000000000D+00 Coefficients=  1.0000000000D+00
 D 1 1.00
     Exponent=  2.2301361948D-01 Coefficients=  1.0000000000D+00
 ****
 Ernie: Thresh=  0.10000D-02 Tol=  0.10000D-05 Strict=F.
 There are    71 symmetry adapted cartesian basis functions of A   symmetry.
 There are    67 symmetry adapted basis functions of A   symmetry.
    67 basis functions,    97 primitive gaussians,    71 cartesian basis functions
     9 alpha electrons        9 beta electrons
       nuclear repulsion energy        37.4250480537 Hartrees.
 IExCor=  201 DFT=T Ex=S Corr=VWN5 ExCW=0 ScaHFX=  0.000000
 ScaDFX=  1.000000  1.000000  1.000000  1.000000 ScalE2=  1.000000  1.000000
 IRadAn=      5 IRanWt=     -1 IRanGd=            0 ICorTp=0 IEmpDi=  4
 NAtoms=    5 NActive=    5 NUniq=    5 SFac= 1.00D+00 NAtFMM=   60 NAOKFM=F Big=F
 Integral buffers will be    131072 words long.
 Regular integral format.
 Two-electron integral symmetry is turned on.
 Leave Link  301 at Mon Mar 21 20:05:51 2022, MaxMem=  8589934592 cpu:               0.7 elap:               0.1
 (Enter /home/sabyasachi/g16/l302.exe)
 NPDir=0 NMtPBC=     1 NCelOv=     1 NCel=       1 NClECP=     1 NCelD=      1
         NCelK=      1 NCelE2=     1 NClLst=     1 CellRange=     0.0.
 One-electron integrals computed using PRISM.
 One-electron integral symmetry used in STVInt
 NBasis=    67 RedAO= T EigKep=  6.61D-04  NBF=    67
 NBsUse=    67 1.00D-06 EigRej= -1.00D+00 NBFU=    67
 Precomputing XC quadrature grid using
 IXCGrd= 4 IRadAn=           5 IRanWt=          -1 IRanGd=           0 AccXCQ= 0.00D+00.
 Generated NRdTot=       0 NPtTot=           0 NUsed=           0 NTot=          32
 NSgBfM=    71    71    71    71    71 MxSgAt=     5 MxSgA2=     5.
 Leave Link  302 at Mon Mar 21 20:05:51 2022, MaxMem=  8589934592 cpu:               0.9 elap:               0.1
 (Enter /home/sabyasachi/g16/l303.exe)
 DipDrv:  MaxL=1.
 Leave Link  303 at Mon Mar 21 20:05:51 2022, MaxMem=  8589934592 cpu:               0.2 elap:               0.0
 (Enter /home/sabyasachi/g16/l308.exe)
 Leave Link  308 at Mon Mar 21 20:05:51 2022, MaxMem=  8589934592 cpu:               0.2 elap:               0.0
 (Enter /home/sabyasachi/g16/l401.exe)
 ExpMin= 6.71D-02 ExpMax= 2.89D+03 ExpMxC= 4.35D+02 IAcc=3 IRadAn=         5 AccDes= 0.00D+00
 Harris functional with IExCor=  201 and IRadAn=       5 diagonalized for initial guess.
 HarFok:  IExCor=  201 AccDes= 0.00D+00 IRadAn=         5 IDoV= 1 UseB2=F ITyADJ=14
 ICtDFT=  3500011 ScaDFX=  1.000000  1.000000  1.000000  1.000000
 FoFCou: FMM=F IPFlag=           0 FMFlag=      100000 FMFlg1=           0
         NFxFlg=           0 DoJE=T BraDBF=F KetDBF=T FulRan=T
         wScrn=  0.000000 ICntrl=       500 IOpCl=  0 I1Cent=   200000004 NGrid=           0
         NMat0=    1 NMatS0=      1 NMatT0=    0 NMatD0=    1 NMtDS0=    0 NMtDT0=    0
 Petite list used in FoFCou.
 Harris En= -138.662279235266    
 JPrj=0 DoOrth=F DoCkMO=F.
 Leave Link  401 at Mon Mar 21 20:05:51 2022, MaxMem=  8589934592 cpu:               1.5 elap:               0.2
 (Enter /home/sabyasachi/g16/l502.exe)
 Keep J ints in memory in canonical form, NReq=9739113.
 FoFCou: FMM=F IPFlag=           0 FMFlag=           0 FMFlg1=           0
         NFxFlg=           0 DoJE=F BraDBF=F KetDBF=F FulRan=T
         wScrn=  0.000000 ICntrl=       600 IOpCl=  0 I1Cent=           0 NGrid=           0
         NMat0=    1 NMatS0=   2278 NMatT0=    0 NMatD0=    1 NMtDS0=    0 NMtDT0=    0
 Symmetry not used in FoFCou.
 Two-electron integral symmetry not used.
 Closed shell SCF:
 Using DIIS extrapolation, IDIIS=  1040.
 NGot=  8589934592 LenX=  8587327203 LenY=  8587321721
 Requested convergence on RMS density matrix=1.00D-08 within 100 cycles.
 Requested convergence on MAX density matrix=1.00D-06.
 Requested convergence on             energy=1.00D-06.
 No special actions if energy rises.
 Integral accuracy reduced to 1.0D-05 until final iterations.

 Cycle   1  Pass 0  IDiag  1:
 E= -138.591459977431    
 DIIS: error= 1.97D-02 at cycle   1 NSaved=   1.
 NSaved= 1 IEnMin= 1 EnMin= -138.591459977431     IErMin= 1 ErrMin= 1.97D-02
 ErrMax= 1.97D-02  0.00D+00 EMaxC= 1.00D-01 BMatC= 2.63D-02 BMatP= 2.63D-02
 IDIUse=3 WtCom= 8.03D-01 WtEn= 1.97D-01
 Coeff-Com:  0.100D+01
 Coeff-En:   0.100D+01
 Coeff:      0.100D+01
 Gap=     0.299 Goal=   None    Shift=    0.000
 GapD=    0.299 DampG=1.000 DampE=0.500 DampFc=0.5000 IDamp=-1.
 Damping current iteration by 5.00D-01
 RMSDP=5.06D-03 MaxDP=1.09D-01              OVMax= 1.06D-01

 Cycle   2  Pass 0  IDiag  1:
 E= -138.603098458125     Delta-E=       -0.011638480694 Rises=F Damp=T
 DIIS: error= 4.86D-03 at cycle   2 NSaved=   2.
 NSaved= 2 IEnMin= 2 EnMin= -138.603098458125     IErMin= 2 ErrMin= 4.86D-03
 ErrMax= 4.86D-03  0.00D+00 EMaxC= 1.00D-01 BMatC= 2.21D-03 BMatP= 2.63D-02
 IDIUse=3 WtCom= 9.51D-01 WtEn= 4.86D-02
 Coeff-Com:  0.147D+00 0.853D+00
 Coeff-En:   0.214D+00 0.786D+00
 Coeff:      0.150D+00 0.850D+00
 Gap=     0.310 Goal=   None    Shift=    0.000
 RMSDP=9.17D-04 MaxDP=1.19D-02 DE=-1.16D-02 OVMax= 5.92D-02

 Cycle   3  Pass 0  IDiag  1:
 E= -138.620721483428     Delta-E=       -0.017623025302 Rises=F Damp=F
 DIIS: error= 1.85D-03 at cycle   3 NSaved=   3.
 NSaved= 3 IEnMin= 3 EnMin= -138.620721483428     IErMin= 3 ErrMin= 1.85D-03
 ErrMax= 1.85D-03  0.00D+00 EMaxC= 1.00D-01 BMatC= 3.45D-04 BMatP= 2.21D-03
 IDIUse=3 WtCom= 9.82D-01 WtEn= 1.85D-02
 Coeff-Com:  0.306D-01 0.276D+00 0.693D+00
 Coeff-En:   0.000D+00 0.000D+00 0.100D+01
 Coeff:      0.300D-01 0.271D+00 0.699D+00
 Gap=     0.307 Goal=   None    Shift=    0.000
 RMSDP=2.93D-04 MaxDP=3.13D-03 DE=-1.76D-02 OVMax= 5.69D-03

 Cycle   4  Pass 0  IDiag  1:
 E= -138.620917011471     Delta-E=       -0.000195528043 Rises=F Damp=F
 DIIS: error= 9.82D-04 at cycle   4 NSaved=   4.
 NSaved= 4 IEnMin= 4 EnMin= -138.620917011471     IErMin= 4 ErrMin= 9.82D-04
 ErrMax= 9.82D-04  0.00D+00 EMaxC= 1.00D-01 BMatC= 8.03D-05 BMatP= 3.45D-04
 IDIUse=3 WtCom= 9.90D-01 WtEn= 9.82D-03
 Coeff-Com:  0.156D-01 0.123D+00 0.404D+00 0.458D+00
 Coeff-En:   0.000D+00 0.000D+00 0.800D-01 0.920D+00
 Coeff:      0.154D-01 0.122D+00 0.401D+00 0.462D+00
 Gap=     0.309 Goal=   None    Shift=    0.000
 RMSDP=1.06D-04 MaxDP=2.29D-03 DE=-1.96D-04 OVMax= 3.10D-03

 Cycle   5  Pass 0  IDiag  1:
 E= -138.620964202862     Delta-E=       -0.000047191391 Rises=F Damp=F
 DIIS: error= 3.86D-04 at cycle   5 NSaved=   5.
 NSaved= 5 IEnMin= 5 EnMin= -138.620964202862     IErMin= 5 ErrMin= 3.86D-04
 ErrMax= 3.86D-04  0.00D+00 EMaxC= 1.00D-01 BMatC= 1.16D-05 BMatP= 8.03D-05
 IDIUse=3 WtCom= 9.96D-01 WtEn= 3.86D-03
 Coeff-Com:  0.386D-02 0.156D-01 0.113D+00 0.292D+00 0.575D+00
 Coeff-En:   0.000D+00 0.000D+00 0.000D+00 0.120D+00 0.880D+00
 Coeff:      0.384D-02 0.155D-01 0.113D+00 0.291D+00 0.577D+00
 Gap=     0.309 Goal=   None    Shift=    0.000
 RMSDP=3.64D-05 MaxDP=6.69D-04 DE=-4.72D-05 OVMax= 7.42D-04

 Cycle   6  Pass 0  IDiag  1:
 E= -138.620972055187     Delta-E=       -0.000007852325 Rises=F Damp=F
 DIIS: error= 1.24D-05 at cycle   6 NSaved=   6.
 NSaved= 6 IEnMin= 6 EnMin= -138.620972055187     IErMin= 6 ErrMin= 1.24D-05
 ErrMax= 1.24D-05  0.00D+00 EMaxC= 1.00D-01 BMatC= 8.92D-09 BMatP= 1.16D-05
 IDIUse=1 WtCom= 1.00D+00 WtEn= 0.00D+00
 Coeff-Com:  0.621D-03 0.219D-02 0.199D-01 0.589D-01 0.125D+00 0.793D+00
 Coeff:      0.621D-03 0.219D-02 0.199D-01 0.589D-01 0.125D+00 0.793D+00
 Gap=     0.309 Goal=   None    Shift=    0.000
 RMSDP=2.39D-06 MaxDP=2.50D-05 DE=-7.85D-06 OVMax= 3.64D-05

 Initial convergence to 1.0D-05 achieved.  Increase integral accuracy.
 Cycle   7  Pass 1  IDiag  1:
 E= -138.620969808969     Delta-E=        0.000002246218 Rises=F Damp=F
 DIIS: error= 1.73D-06 at cycle   1 NSaved=   1.
 NSaved= 1 IEnMin= 1 EnMin= -138.620969808969     IErMin= 1 ErrMin= 1.73D-06
 ErrMax= 1.73D-06  0.00D+00 EMaxC= 1.00D-01 BMatC= 2.98D-10 BMatP= 2.98D-10
 IDIUse=1 WtCom= 1.00D+00 WtEn= 0.00D+00
 Coeff-Com:  0.100D+01
 Coeff:      0.100D+01
 Gap=     0.309 Goal=   None    Shift=    0.000
 RMSDP=2.39D-06 MaxDP=2.50D-05 DE= 2.25D-06 OVMax= 1.09D-05

 Cycle   8  Pass 1  IDiag  1:
 E= -138.620969808994     Delta-E=       -0.000000000025 Rises=F Damp=F
 DIIS: error= 2.18D-06 at cycle   2 NSaved=   2.
 NSaved= 2 IEnMin= 2 EnMin= -138.620969808994     IErMin= 1 ErrMin= 1.73D-06
 ErrMax= 2.18D-06  0.00D+00 EMaxC= 1.00D-01 BMatC= 4.07D-10 BMatP= 2.98D-10
 IDIUse=1 WtCom= 1.00D+00 WtEn= 0.00D+00
 Coeff-Com:  0.547D+00 0.453D+00
 Coeff:      0.547D+00 0.453D+00
 Gap=     0.309 Goal=   None    Shift=    0.000
 RMSDP=2.80D-07 MaxDP=5.28D-06 DE=-2.55D-11 OVMax= 7.48D-06

 Cycle   9  Pass 1  IDiag  1:
 E= -138.620969809262     Delta-E=       -0.000000000268 Rises=F Damp=F
 DIIS: error= 9.24D-07 at cycle   3 NSaved=   3.
 NSaved= 3 IEnMin= 3 EnMin= -138.620969809262     IErMin= 3 ErrMin= 9.24D-07
 ErrMax= 9.24D-07  0.00D+00 EMaxC= 1.00D-01 BMatC= 6.95D-11 BMatP= 2.98D-10
 IDIUse=1 WtCom= 1.00D+00 WtEn= 0.00D+00
 Coeff-Com:  0.165D+00 0.291D+00 0.544D+00
 Coeff:      0.165D+00 0.291D+00 0.544D+00
 Gap=     0.309 Goal=   None    Shift=    0.000
 RMSDP=7.28D-08 MaxDP=1.54D-06 DE=-2.68D-10 OVMax= 1.44D-06

 Cycle  10  Pass 1  IDiag  1:
 E= -138.620969809304     Delta-E=       -0.000000000041 Rises=F Damp=F
 DIIS: error= 1.26D-07 at cycle   4 NSaved=   4.
 NSaved= 4 IEnMin= 4 EnMin= -138.620969809304     IErMin= 4 ErrMin= 1.26D-07
 ErrMax= 1.26D-07  0.00D+00 EMaxC= 1.00D-01 BMatC= 8.07D-13 BMatP= 6.95D-11
 IDIUse=1 WtCom= 1.00D+00 WtEn= 0.00D+00
 Coeff-Com:  0.334D-01 0.892D-01 0.177D+00 0.700D+00
 Coeff:      0.334D-01 0.892D-01 0.177D+00 0.700D+00
 Gap=     0.309 Goal=   None    Shift=    0.000
 RMSDP=2.02D-08 MaxDP=4.30D-07 DE=-4.12D-11 OVMax= 3.59D-07

 Cycle  11  Pass 1  IDiag  1:
 E= -138.620969809304     Delta-E=       -0.000000000001 Rises=F Damp=F
 DIIS: error= 6.72D-08 at cycle   5 NSaved=   5.
 NSaved= 5 IEnMin= 5 EnMin= -138.620969809304     IErMin= 5 ErrMin= 6.72D-08
 ErrMax= 6.72D-08  0.00D+00 EMaxC= 1.00D-01 BMatC= 2.77D-13 BMatP= 8.07D-13
 IDIUse=1 WtCom= 1.00D+00 WtEn= 0.00D+00
 Coeff-Com:  0.180D-02 0.221D-01 0.432D-01 0.400D+00 0.532D+00
 Coeff:      0.180D-02 0.221D-01 0.432D-01 0.400D+00 0.532D+00
 Gap=     0.309 Goal=   None    Shift=    0.000
 RMSDP=6.77D-09 MaxDP=1.75D-07 DE=-8.24D-13 OVMax= 1.47D-07

 SCF Done:  E(RS-VWN5) =  -138.620969809     A.U. after   11 cycles
            NFock= 11  Conv=0.68D-08     -V/T= 2.0043
 KE= 1.380250261389D+02 PE=-4.041109643155D+02 EE= 9.003992031363D+01
 Leave Link  502 at Mon Mar 21 20:05:52 2022, MaxMem=  8589934592 cpu:               4.5 elap:               0.6
 (Enter /home/sabyasachi/g16/l801.exe)
 DoSCS=F DFT=T ScalE2(SS,OS)=  1.000000  1.000000
 ExpMin= 6.71D-02 ExpMax= 2.89D+03 ExpMxC= 4.35D+02 IAcc=3 IRadAn=         5 AccDes= 0.00D+00
 HarFok:  IExCor=  205 AccDes= 0.00D+00 IRadAn=         5 IDoV=-2 UseB2=F ITyADJ=14
 ICtDFT= 12500011 ScaDFX=  1.000000  1.000000  1.000000  1.000000
 Largest valence mixing into a core orbital is  8.00D-05
 Largest core mixing into a valence orbital is  1.93D-06
 Range of M.O.s used for correlation:     3    67
 NBasis=    67 NAE=     9 NBE=     9 NFC=     2 NFV=     0
 NROrb=     65 NOA=     7 NOB=     7 NVA=    58 NVB=    58

 **** Warning!!: The largest alpha MO coefficient is  0.22235538D+02

 Leave Link  801 at Mon Mar 21 20:05:52 2022, MaxMem=  8589934592 cpu:               0.5 elap:               0.1
 (Enter /home/sabyasachi/g16/l914.exe)
 RHF ground state
 Keep J ints in memory in canonical form, NReq=194280085.
 FoFCou: FMM=F IPFlag=           0 FMFlag=           0 FMFlg1=           0
         NFxFlg=           0 DoJE=F BraDBF=F KetDBF=F FulRan=T
         wScrn=  0.000000 ICntrl=       600 IOpCl=  0 I1Cent=           0 NGrid=           0
         NMat0=    1 NMatS0=   2278 NMatT0=    0 NMatD0=    1 NMtDS0=    0 NMtDT0=    0
 Symmetry not used in FoFCou.
 Two-electron integral symmetry not used.
 MDV=  8589934592 DFT=T DoStab=F Mixed=F DoRPA=T DoScal=T NonHer=F
 Making orbital integer symmetry assigments:
 Orbital symmetries:
       Occupied  (A) (A) (A) (A) (A) (A) (A) (A) (A)
       Virtual   (A) (A) (A) (A) (A) (A) (A) (A) (A) (A) (A) (A)
                 (A) (A) (A) (A) (A) (A) (A) (A) (A) (A) (A) (A)
                 (A) (A) (A) (A) (A) (A) (A) (A) (A) (A) (A) (A)
                 (A) (A) (A) (A) (A) (A) (A) (A) (A) (A) (A) (A)
                 (A) (A) (A) (A) (A) (A) (A) (A) (A) (A)
   406 initial guesses have been made.
 Convergence on wavefunction:    0.001000000000000
 Davidson Disk Diagonalization:  ConvIn= 1.00D-03 SkipCon=T Conv= 1.00D-03.
 Max sub-space:  1624 roots to seek:   812 dimension of matrix:          812
 *** WARNING: Number of orthogonal guesses is          406
 Iteration     1 Dimension   406 NMult     0 NNew    406
 CISAX will form   406 AO SS matrices at one time.
 NMat=   406 NSing=   406 JSym2X= 0.
 New state      7 was old state      8
 New state      8 was old state      7
 New state      9 was old state     10
 New state     10 was old state      9
 New state     11 was old state     13
 New state     12 was old state     14
 New state     13 was old state     11
 New state     14 was old state     12
 New state     17 was old state     20
 New state     18 was old state     22
 New state     19 was old state     23
 New state     20 was old state     17
 New state     21 was old state     18
 New state     22 was old state     19
 New state     23 was old state     21
 New state     25 was old state     27
 New state     26 was old state     29
 New state     27 was old state     30
 New state     28 was old state     25
 New state     29 was old state     26
 New state     30 was old state     31
 New state     31 was old state     32
 New state     32 was old state     28
 New state     35 was old state     36
 New state     36 was old state     35
 New state     37 was old state     39
 New state     38 was old state     40
 New state     39 was old state     41
 New state     40 was old state     42
 New state     41 was old state     44
 New state     42 was old state     45
 New state     43 was old state     47
 New state     44 was old state     46
 New state     45 was old state     38
 New state     46 was old state     43
 New state     47 was old state     66
 New state     49 was old state     51
 New state     50 was old state     49
 New state     51 was old state     52
 New state     52 was old state     53
 New state     53 was old state     50
 New state     58 was old state     59
 New state     59 was old state     58
 New state     66 was old state     67
 New state     67 was old state     69
 New state     68 was old state     70
 New state     69 was old state     68
 New state     70 was old state     71
 New state     71 was old state     72
 New state     72 was old state     73
 New state     73 was old state     74
 New state     74 was old state     75
 New state     75 was old state     76
 New state     76 was old state     77
 New state     77 was old state     79
 New state     79 was old state     80
 New state     80 was old state     81
 New state     81 was old state    100
 New state     84 was old state     86
 New state     85 was old state     87
 New state     86 was old state     84
 New state     87 was old state     85
 New state     88 was old state     90
 New state     89 was old state     88
 New state     90 was old state     89
 New state     91 was old state     92
 New state     92 was old state     93
 New state     93 was old state     95
 New state     94 was old state     91
 New state     95 was old state     98
 New state     96 was old state     99
 New state     97 was old state    101
 New state     98 was old state    102
 New state     99 was old state    103
 New state    100 was old state    104
 New state    101 was old state     97
 New state    102 was old state    105
 New state    103 was old state    106
 New state    104 was old state     96
 New state    105 was old state     94
 New state    106 was old state    107
 New state    107 was old state    108
 New state    108 was old state    110
 New state    110 was old state    111
 New state    111 was old state    112
 New state    112 was old state    113
 New state    113 was old state    114
 New state    114 was old state    116
 New state    116 was old state    119
 New state    119 was old state    129
 New state    122 was old state    124
 New state    123 was old state    122
 New state    124 was old state    127
 New state    125 was old state    128
 New state    127 was old state    125
 New state    128 was old state    130
 New state    129 was old state    131
 New state    130 was old state    123
 New state    131 was old state    133
 New state    132 was old state    136
 New state    133 was old state    132
 New state    134 was old state    137
 New state    135 was old state    138
 New state    136 was old state    135
 New state    137 was old state    134
 New state    138 was old state    149
 New state    141 was old state    143
 New state    142 was old state    145
 New state    143 was old state    141
 New state    144 was old state    142
 New state    145 was old state    144
 New state    149 was old state    150
 New state    150 was old state    152
 New state    151 was old state    157
 New state    152 was old state    151
 New state    154 was old state    158
 New state    155 was old state    159
 New state    156 was old state    154
 New state    157 was old state    155
 New state    158 was old state    156
 New state    159 was old state    160
 New state    160 was old state    161
 New state    161 was old state    175
 New state    162 was old state    163
 New state    163 was old state    165
 New state    165 was old state    166
 New state    166 was old state    167
 New state    167 was old state    170
 New state    168 was old state    171
 New state    169 was old state    162
 New state    170 was old state    173
 New state    171 was old state    169
 New state    172 was old state    168
 New state    173 was old state    172
 New state    175 was old state    176
 New state    176 was old state    177
 New state    177 was old state    178
 New state    178 was old state    191
 New state    180 was old state    181
 New state    181 was old state    182
 New state    182 was old state    185
 New state    185 was old state    186
 New state    186 was old state    187
 New state    187 was old state    188
 New state    188 was old state    180
 New state    191 was old state    192
 New state    192 was old state    193
 New state    193 was old state    195
 New state    194 was old state    201
 New state    195 was old state    194
 New state    196 was old state    199
 New state    197 was old state    200
 New state    198 was old state    202
 New state    199 was old state    203
 New state    200 was old state    198
 New state    201 was old state    206
 New state    202 was old state    207
 New state    203 was old state    204
 New state    204 was old state    205
 New state    205 was old state    209
 New state    206 was old state    208
 New state    207 was old state    197
 New state    208 was old state    214
 New state    209 was old state    210
 New state    210 was old state    211
 New state    211 was old state    212
 New state    212 was old state    213
 New state    213 was old state    223
 New state    214 was old state    215
 New state    215 was old state    216
 New state    216 was old state    217
 New state    217 was old state    218
 New state    218 was old state    219
 New state    219 was old state    220
 New state    220 was old state    221
 New state    221 was old state    222
 New state    222 was old state    224
 New state    223 was old state    225
 New state    224 was old state    228
 New state    225 was old state    226
 New state    226 was old state    227
 New state    227 was old state    233
 No map to state    228
 New state    233 was old state    234
 New state    234 was old state    237
 New state    237 was old state    238
 New state    238 was old state    240
 New state    240 was old state    243
 New state    243 was old state    244
 New state    244 was old state    246
 New state    246 was old state    249
 New state    247 was old state    248
 New state    248 was old state    247
 New state    249 was old state    252
 New state    252 was old state    253
 New state    253 was old state    254
 New state    254 was old state    255
 New state    255 was old state    256
 New state    256 was old state    257
 New state    257 was old state    258
 New state    258 was old state    263
 New state    259 was old state    261
 New state    260 was old state    262
 New state    261 was old state    259
 New state    262 was old state    260
 New state    263 was old state    264
 New state    264 was old state    266
 New state    266 was old state    269
 New state    267 was old state    270
 New state    268 was old state    267
 New state    269 was old state    268
 New state    270 was old state    271
 New state    271 was old state    277
 New state    277 was old state    278
 New state    278 was old state    280
 New state    279 was old state    281
 New state    280 was old state    279
 New state    281 was old state    283
 New state    283 was old state    284
 New state    284 was old state    285
 New state    285 was old state    295
 New state    288 was old state    289
 New state    289 was old state    290
 New state    290 was old state    288
 New state    293 was old state    294
 New state    294 was old state    293
 New state    295 was old state    296
 New state    296 was old state    298
 New state    298 was old state    300
 New state    300 was old state    305
 New state    305 was old state    306
 New state    306 was old state    308
 New state    308 was old state    310
 New state    309 was old state    311
 New state    310 was old state    309
 New state    311 was old state    312
 New state    312 was old state    313
 New state    313 was old state    314
 New state    314 was old state    315
 New state    315 was old state    331
 New state    319 was old state    321
 New state    320 was old state    322
 New state    321 was old state    323
 New state    322 was old state    319
 New state    323 was old state    320
 New state    327 was old state    328
 New state    328 was old state    327
 New state    331 was old state    332
 New state    332 was old state    333
 New state    333 was old state    335
 New state    335 was old state    337
 New state    337 was old state    338
 New state    338 was old state    339
 New state    339 was old state    342
 New state    342 was old state    357
 New state    354 was old state    355
 New state    355 was old state    354
 New state    357 was old state    358
 New state    358 was old state    359
 New state    359 was old state    360
 New state    360 was old state    362
 New state    362 was old state    363
 New state    363 was old state    364
 No map to state    364
 New state    373 was old state    374
 New state    374 was old state    375
 New state    375 was old state    373
 New state    376 was old state    380
 New state    377 was old state    379
 New state    378 was old state    381
 New state    379 was old state    382
 New state    380 was old state    383
 New state    381 was old state    376
 New state    382 was old state    388
 New state    383 was old state    389
 New state    384 was old state    385
 New state    385 was old state    386
 New state    386 was old state    387
 New state    387 was old state    390
 New state    388 was old state    391
 New state    389 was old state    384
 New state    390 was old state    394
 New state    391 was old state    395
 New state    394 was old state    396
 New state    395 was old state    397
 New state    396 was old state    398
 New state    397 was old state    399
 New state    398 was old state    378
 New state    399 was old state    377
 New state    401 was old state    403
 New state    402 was old state    401
 New state    403 was old state    402
 Excitation Energies [eV] at current iteration:
 Root      1 :     8.445926502657677
 Root      2 :     8.445970506426825
 Root      3 :     9.132350420214721
 Root      4 :     9.132394535206995
 Root      5 :    10.358791827351430
 Root      6 :    10.391087097062910
 Root      7 :    10.391088694896920
 Root      8 :    10.615536116031000
 Root      9 :    11.536658313101540
 Root     10 :    11.701605441384190
 Root     11 :    11.704804742681190
 Root     12 :    11.704875972171610
 Root     13 :    11.840204427745400
 Root     14 :    11.840221495010490
 Root     15 :    12.202197232050010
 Root     16 :    12.202269737759190
 Root     17 :    12.580652671886830
 Root     18 :    12.580654448579750
 Root     19 :    12.581837116490880
 Root     20 :    12.705192190705700
 Root     21 :    12.919121673702520
 Root     22 :    12.919197381705450
 Root     23 :    12.934379446757720
 Root     24 :    13.932676849185870
 Root     25 :    14.037554364491940
 Root     26 :    14.117008151546520
 Root     27 :    14.117016732649250
 Root     28 :    14.184545365941630
 Root     29 :    14.184583778628530
 Root     30 :    14.522631660591710
 Root     31 :    14.522652731822470
 Root     32 :    14.828940783964130
 Root     33 :    15.173613805591990
 Root     34 :    15.173646401049310
 Root     35 :    15.241755920185540
 Root     36 :    15.348553557901060
 Root     37 :    15.413406917623520
 Root     38 :    15.413494159615160
 Root     39 :    15.706451884810080
 Root     40 :    15.706494729600220
 Root     41 :    15.761603853378320
 Root     42 :    15.761621504732940
 Root     43 :    15.964455772779910
 Root     44 :    15.989632057648080
 Root     45 :    15.989632923632360
 Root     46 :    16.014792086697870
 Root     47 :    16.186967966912300
 Root     48 :    16.261915951337110
 Root     49 :    16.280330968540240
 Root     50 :    16.280334098128410
 Root     51 :    16.348249364076130
 Root     52 :    16.348293501487050
 Root     53 :    16.537890921743950
 Root     54 :    16.722458578591540
 Root     55 :    16.722502125623510
 Root     56 :    17.011335773041850
 Root     57 :    17.011380571404860
 Root     58 :    17.190362802807440
 Root     59 :    17.359015306722050
 Root     60 :    17.359018107982500
 Root     61 :    17.360877420305260
 Root     62 :    17.668598647879350
 Root     63 :    17.862153650448030
 Root     64 :    17.862221875740990
 Root     65 :    18.294914880849180
 Root     66 :    18.580786771884250
 Root     67 :    18.654651463507420
 Root     68 :    18.654660897404310
 Root     69 :    18.673692148849500
 Root     70 :    18.869450222252670
 Root     71 :    18.869520746753060
 Root     72 :    18.960423515853680
 Root     73 :    18.960455709009310
 Root     74 :    19.261450931933790
 Root     75 :    19.531303091738120
 Root     76 :    19.531314113876300
 Root     77 :    19.623627569223630
 Root     78 :    19.623635370379330
 Root     79 :    19.643567627656190
 Root     80 :    19.682493408906390
 Root     81 :    19.872610804952220
 Root     82 :    19.998101456289740
 Root     83 :    19.998149276339670
 Root     84 :    20.107930000504840
 Root     85 :    20.107951292189110
 Root     86 :    20.148961621419530
 Root     87 :    20.149024893580680
 Root     88 :    20.508702163840070
 Root     89 :    20.609101987289590
 Root     90 :    20.609115497951330
 Root     91 :    20.725242673482790
 Root     92 :    20.725287828305180
 Root     93 :    20.876781518592700
 Root     94 :    20.884327623507020
 Root     95 :    21.077107100462870
 Root     96 :    21.098786490338130
 Root     97 :    21.098792091929840
 Root     98 :    21.187953957955320
 Root     99 :    21.312727287326210
 Root    100 :    21.312763524215320
 Root    101 :    21.457874269582650
 Root    102 :    21.491175323892460
 Root    103 :    21.491195511628230
 Root    104 :    21.524464747089880
 Root    105 :    21.524504374812490
 Root    106 :    22.262698140915400
 Root    107 :    22.350260610569390
 Root    108 :    22.350280197720440
 Root    109 :    22.433912051323600
 Root    110 :    22.601591415262440
 Root    111 :    22.601642242325820
 Root    112 :    22.783014988254910
 Root    113 :    22.783070849758380
 Root    114 :    22.974400779729020
 Root    115 :    23.075322446623280
 Root    116 :    23.613309976678030
 Root    117 :    23.670845903903950
 Root    118 :    23.670915920575110
 Root    119 :    24.350331706918900
 Root    120 :    24.504778823086140
 Root    121 :    24.766460309568840
 Root    122 :    24.836088090200280
 Root    123 :    24.836100696953350
 Root    124 :    24.895410082023690
 Root    125 :    24.895424941103510
 Root    126 :    24.986924807980630
 Root    127 :    24.986938736272360
 Root    128 :    25.312501786857720
 Root    129 :    25.312529912396500
 Root    130 :    25.426939546866420
 Root    131 :    25.825315254668850
 Root    132 :    25.945517200788010
 Root    133 :    26.009755198253730
 Root    134 :    26.354844020898490
 Root    135 :    26.354879268799210
 Root    136 :    26.380946518567030
 Root    137 :    26.380977944498650
 Root    138 :    26.577221943609390
 Root    139 :    27.590056830852440
 Root    140 :    27.590102512844480
 Root    141 :    27.602499277226920
 Root    142 :    27.811648107961400
 Root    143 :    27.882487360771610
 Root    144 :    27.882505062711580
 Root    145 :    27.929593981068050
 Root    146 :    28.764872773132970
 Root    147 :    28.764935490863860
 Root    148 :    29.012621413673330
 Root    149 :    29.507954447826960
 Root    150 :    29.525423972647660
 Root    151 :    29.574334791449870
 Root    152 :    29.770290966426620
 Root    153 :    29.770297845106520
 Root    154 :    30.035439609575590
 Root    155 :    30.035495336800640
 Root    156 :    30.060733239706790
 Root    157 :    30.216806429551350
 Root    158 :    30.216851230264860
 Root    159 :    30.732744438362930
 Root    160 :    30.732751421932880
 Root    161 :    30.778797661654450
 Root    162 :    31.279051286650520
 Root    163 :    31.368722881117960
 Root    164 :    31.368732203662510
 Root    165 :    31.472166499641020
 Root    166 :    31.472187643024860
 Root    167 :    31.745653153381000
 Root    168 :    31.745692758424400
 Root    169 :    31.791083445022880
 Root    170 :    31.895230954515570
 Root    171 :    31.967657692873260
 Root    172 :    31.967666541000920
 Root    173 :    32.469399028931540
 Root    174 :    32.469424140690630
 Root    175 :    32.747102697876660
 Root    176 :    32.747130320413370
 Root    177 :    32.919807314595510
 Root    178 :    32.931176945930990
 Root    179 :    32.970482708903130
 Root    180 :    32.970483763459830
 Root    181 :    32.971821851669480
 Root    182 :    33.743780880150790
 Root    183 :    33.859774138345840
 Root    184 :    33.859817395676400
 Root    185 :    34.212018964476020
 Root    186 :    34.212086747047180
 Root    187 :    34.322657087452710
 Root    188 :    34.767858983544010
 Root    189 :    35.171852777815860
 Root    190 :    35.171918937816730
 Root    191 :    35.458751497368560
 Root    192 :    35.458831268878870
 Root    193 :    35.547109828393410
 Root    194 :    35.647669332069990
 Root    195 :    35.872868889800660
 Root    196 :    36.010983666951920
 Root    197 :    36.011128818993460
 Root    198 :    36.133754602647430
 Root    199 :    36.133796138289270
 Root    200 :    36.187583778416340
 Root    201 :    36.553301625773260
 Root    202 :    36.553318121884160
 Root    203 :    36.596833309055300
 Root    204 :    36.596837883646630
 Root    205 :    36.650497603649330
 Root    206 :    36.765228512821760
 Root    207 :    36.765238962620760
 Root    208 :    37.040715059370460
 Root    209 :    37.053216807698030
 Root    210 :    37.053239812419040
 Root    211 :    37.228260699670430
 Root    212 :    37.228313395663510
 Root    213 :    37.611217250363420
 Root    214 :    38.146527448429940
 Root    215 :    38.361035008979730
 Root    216 :    38.361073364890650
 Root    217 :    38.593198341886610
 Root    218 :    39.762109647347860
 Root    219 :    39.762164075562400
 Root    220 :    39.935866619069360
 Root    221 :    39.935932423238480
 Root    222 :    40.218153470727780
 Root    223 :    40.366401317094850
 Root    224 :    40.877087363605580
 Root    225 :    41.132882012133950
 Root    226 :    41.133029443926670
 Root    227 :    41.232944324133050
 Root    228 :    41.352156585133140
 Root    229 :    42.161090384099790
 Root    230 :    42.161147010029210
 Root    231 :    42.388779520311470
 Root    232 :    42.388807011266090
 Root    233 :    45.876073293427260
 Root    234 :    46.858939595703390
 Root    235 :    47.099433100986130
 Root    236 :    47.099523461823600
 Root    237 :    47.620266846450920
 Root    238 :    47.813786941582650
 Root    239 :    47.813790380963790
 Root    240 :    48.672657027476860
 Root    241 :    48.910710625059400
 Root    242 :    48.910713318340400
 Root    243 :    50.731559092193250
 Root    244 :    50.927852107981710
 Root    245 :    50.927888174016430
 Root    246 :    51.240446516922360
 Root    247 :    51.309415608377360
 Root    248 :    51.309429474926130
 Root    249 :    51.323340405534180
 Root    250 :    51.545971597271920
 Root    251 :    51.593905555974280
 Root    252 :    51.593910134859270
 Root    253 :    52.189716591595680
 Root    254 :    52.189858092571630
 Root    255 :    53.050780808117890
 Root    256 :    53.135074738059190
 Root    257 :    53.135225361899900
 Root    258 :    53.648320860015200
 Root    259 :    54.108731241086730
 Root    260 :    54.108789753179220
 Root    261 :    54.209289233704000
 Root    262 :    54.209352051846000
 Root    263 :    54.414535292831320
 Root    264 :    54.535248854556000
 Root    265 :    54.535262416403550
 Root    266 :    54.944352760132620
 Root    267 :    54.944416386766940
 Root    268 :    55.164763456356440
 Root    269 :    55.164809575481520
 Root    270 :    55.263349947793780
 Root    271 :    55.882533475231920
 Root    272 :    57.118511761876070
 Root    273 :    57.118648521525960
 Root    274 :    57.339417914337910
 Root    275 :    57.734021156988000
 Root    276 :    57.734090211249220
 Root    277 :    57.969793773261880
 Root    278 :    58.152914414110760
 Root    279 :    58.152996961925830
 Root    280 :    58.294152988383160
 Root    281 :    58.986265886939910
 Root    282 :    58.986302757570380
 Root    283 :    59.847035514233650
 Root    284 :    59.847148196236450
 Root    285 :    60.083651369171070
 Root    286 :    60.218107542630580
 Root    287 :    61.720829387646400
 Root    288 :    61.825994672879160
 Root    289 :    61.826082305854870
 Root    290 :    61.975288035613410
 Root    291 :    62.302866262611860
 Root    292 :    62.303046086336530
 Root    293 :    62.708604399246060
 Root    294 :    62.708732907286470
 Root    295 :    62.946783730556420
 Root    296 :    63.571066710578690
 Root    297 :    63.641941549305630
 Root    298 :    63.648499138976380
 Root    299 :    63.648503475184410
 Root    300 :    66.453849769148730
 Root    301 :    66.797063081650310
 Root    302 :    66.797106105998850
 Root    303 :    67.105503505961310
 Root    304 :    67.105764617395860
 Root    305 :    67.235496831392480
 Root    306 :    67.339833370352270
 Root    307 :    67.339875350911880
 Root    308 :    67.851521038253850
 Root    309 :    67.851730495809260
 Root    310 :    67.920464494537770
 Root    311 :    68.289492481803070
 Root    312 :    68.289550943723600
 Root    313 :    68.847352744722510
 Root    314 :    68.847484847724090
 Root    315 :    68.960784612550480
 Root    316 :    70.562801619718440
 Root    317 :    70.562869306346430
 Root    318 :    71.812636176767800
 Root    319 :    71.827234324760600
 Root    320 :    71.827305899374720
 Root    321 :    72.138952922090810
 Root    322 :    72.313366652729400
 Root    323 :    72.313425488168090
 Root    324 :    72.630587456248970
 Root    325 :    72.666194686345990
 Root    326 :    72.666375640321010
 Root    327 :    73.741381857745520
 Root    328 :    73.928067954894400
 Root    329 :    73.928070442850400
 Root    330 :    74.045722180599720
 Root    331 :    75.802725193006920
 Root    332 :    77.039137059419760
 Root    333 :    77.386685953718780
 Root    334 :    77.528599672881910
 Root    335 :    77.692994705980140
 Root    336 :    77.693090112746940
 Root    337 :    78.258709605197270
 Root    338 :    78.259063778851230
 Root    339 :    78.524757320923140
 Root    340 :    79.157309050441970
 Root    341 :    79.157645046461980
 Root    342 :    80.541827704212680
 Root    343 :    81.049444424957630
 Root    344 :    81.049488715164470
 Root    345 :    82.815318172616090
 Root    346 :    82.815781761450860
 Root    347 :    84.691156494850790
 Root    348 :    84.691280973621100
 Root    349 :    84.867396845818860
 Root    350 :    84.867557391009560
 Root    351 :    85.394691147913900
 Root    352 :    87.560685118871700
 Root    353 :    87.661353318847730
 Root    354 :    87.661361663774460
 Root    355 :    87.866685288687730
 Root    356 :    88.526619066803930
 Root    357 :    90.183942535661340
 Root    358 :    91.211680434530830
 Root    359 :    91.502314705290490
 Root    360 :    91.524375605471930
 Root    361 :    91.524493627198170
 Root    362 :    91.785980193150660
 Root    363 :    91.786379573709920
 Root    364 :    91.907256730027110
 Root    365 :    95.043410696203250
 Root    366 :    95.043879056968660
 Root    367 :    96.596568187710330
 Root    368 :    96.597072986495410
 Root    369 :    98.136124166654410
 Root    370 :    98.146201576467590
 Root    371 :    99.443981618193600
 Root    372 :    99.443982579506970
 Root    373 :   100.295594428578800
 Root    374 :   100.489397505708300
 Root    375 :   100.489398641113900
 Root    376 :   101.696619038067000
 Root    377 :   101.706516593992100
 Root    378 :   102.106345221737600
 Root    379 :   102.106363173523400
 Root    380 :   102.147063467293200
 Root    381 :   102.447658028079600
 Root    382 :   103.130102774968800
 Root    383 :   103.130145722190700
 Root    384 :   103.973479360459600
 Root    385 :   104.092113918302400
 Root    386 :   104.092116123600500
 Root    387 :   106.874874677734100
 Root    388 :   106.874896016188300
 Root    389 :   107.439231391616200
 Root    390 :   107.617341673505600
 Root    391 :   107.617402381956800
 Root    392 :   108.725816068472300
 Root    393 :   108.726326490777100
 Root    394 :   109.803784662235600
 Root    395 :   109.803854125608300
 Root    396 :   112.324182667136400
 Root    397 :   112.324273961884200
 Root    398 :   115.444138495125900
 Root    399 :   115.444175172920700
 Root    400 :   117.126468997973000
 Root    401 :   120.667003691946400
 Root    402 :   120.806774128260900
 Root    403 :   120.806788536054100
 Root    404 :   123.304723584676900
 Root    405 :   123.304821688450400
 Root    406 :   132.956479952757500
 Convergence achieved for final wavefunctions.
 ***********************************************************************
 Excited states from <AA,BB:AA,BB> singles matrix:
 ***********************************************************************
 
 1PDM for each excited state written to RWF  633
 Ground to excited state transition densities written to RWF  633
 Ground to excited state transition electric dipole moments (Au):
       state          X           Y           Z        Dip. S.      Osc.
         1        -0.0000      0.0028     -0.3220      0.1037      0.0215
         2        -0.0000     -0.3220     -0.0028      0.1037      0.0215
         3         0.0000      0.0046     -0.2454      0.0602      0.0135
         4        -0.0000     -0.2454     -0.0046      0.0602      0.0135
         5         0.0000     -0.0004     -0.0001      0.0000      0.0000
         6         0.0000      0.1126      0.3355      0.1253      0.0319
         7        -0.0000     -0.3355      0.1126      0.1253      0.0319
         8         0.6379     -0.0000     -0.0000      0.4069      0.1058
         9        -0.0000     -0.0000      0.0000      0.0000      0.0000
        10         0.1513      0.0000     -0.0005      0.0229      0.0066
        11         0.0020     -0.0015      0.0344      0.0012      0.0003
        12         0.0000      0.0344      0.0014      0.0012      0.0003
        13        -0.0000     -0.4132     -0.0528      0.1736      0.0503
        14         0.0000      0.0528     -0.4132      0.1735      0.0503
        15         0.0000     -0.1541      0.7312      0.5584      0.1669
        16         0.0000      0.7312      0.1541      0.5584      0.1669
        17         0.0000     -0.0303     -0.0050      0.0009      0.0003
        18         0.0000     -0.0050      0.0303      0.0009      0.0003
        19        -0.0000     -0.0015     -0.0001      0.0000      0.0000
        20        -0.0634     -0.0000     -0.0000      0.0040      0.0013
        21        -0.0001      0.0410     -0.1580      0.0266      0.0084
        22         0.0000     -0.1580     -0.0410      0.0266      0.0084
        23        -0.0552     -0.0000      0.0001      0.0030      0.0010
        24        -1.1058     -0.0000      0.0000      1.2229      0.4174
        25        -0.0000      0.0003     -0.0001      0.0000      0.0000
        26        -0.0000      0.0250      0.2964      0.0885      0.0306
        27         0.0000      0.2965     -0.0250      0.0885      0.0306
        28         0.0000     -0.0155      0.2612      0.0685      0.0238
        29         0.0000      0.2612      0.0156      0.0685      0.0238
        30        -0.0000      0.3239     -0.0778      0.1109      0.0395
        31        -0.0000      0.0778      0.3239      0.1109      0.0395
        32        -0.1608     -0.0000     -0.0000      0.0259      0.0094
        33         0.0000      0.0072      0.1850      0.0343      0.0127
        34         0.0000      0.1850     -0.0072      0.0343      0.0127
        35        -0.0000     -0.0000      0.0000      0.0000      0.0000
        36        -0.1956      0.0001      0.0002      0.0382      0.0144
        37        -0.0001      0.0253     -0.1495      0.0230      0.0087
        38        -0.0000     -0.1494     -0.0254      0.0230      0.0087
        39         0.0000     -0.0832      0.6981      0.4943      0.1902
        40         0.0000      0.6983      0.0832      0.4945      0.1903
        41         0.0000     -0.4196     -0.1769      0.2073      0.0801
        42         0.0000      0.1768     -0.4198      0.2075      0.0801
        43        -0.0000      0.0006      0.0002      0.0000      0.0000
        44         0.0000     -0.3367      0.3782      0.2564      0.1005
        45         0.0002      0.3782      0.3367      0.2564      0.1005
        46        -0.4384      0.0000      0.0000      0.1922      0.0754
        47         0.8091     -0.0001     -0.0000      0.6546      0.2596
        48        -0.0000     -0.0012      0.0003      0.0000      0.0000
        49         0.0000     -0.3672      0.1100      0.1469      0.0586
        50        -0.0000      0.1099      0.3672      0.1470      0.0586
        51         0.0000      0.0002     -0.0119      0.0001      0.0001
        52        -0.0000     -0.0119     -0.0002      0.0001      0.0001
        53        -0.4043     -0.0000      0.0000      0.1635      0.0662
        54         0.0000      0.1606     -0.0038      0.0258      0.0106
        55         0.0000      0.0038      0.1606      0.0258      0.0106
        56        -0.0000     -0.1372     -0.0048      0.0188      0.0079
        57        -0.0000     -0.0048      0.1372      0.0188      0.0079
        58        -0.0000     -0.0000     -0.0000      0.0000      0.0000
        59        -0.0024      0.0555     -0.1959      0.0415      0.0176
        60         0.0010      0.1959      0.0555      0.0415      0.0176
        61         0.1621     -0.0006     -0.0034      0.0263      0.0112
        62        -0.1684     -0.0000     -0.0000      0.0284      0.0123
        63        -0.0000     -0.0104      0.0442      0.0021      0.0009
        64        -0.0000      0.0442      0.0104      0.0021      0.0009
        65        -0.4153     -0.0000     -0.0000      0.1725      0.0773
        66        -0.0001     -0.0002      0.0001      0.0000      0.0000
        67        -0.0000      0.0491     -0.3237      0.1072      0.0490
        68        -0.0004      0.3238      0.0491      0.1073      0.0490
        69        -0.4562     -0.0003      0.0001      0.2081      0.0952
        70         0.0000      0.0283     -0.1799      0.0332      0.0153
        71         0.0000     -0.1799     -0.0283      0.0332      0.0153
        72        -0.0000     -0.0302      0.3289      0.1091      0.0507
        73         0.0000      0.3288      0.0302      0.1090      0.0506
        74        -0.0231      0.0001     -0.0000      0.0005      0.0003
        75         0.0000      0.1764     -0.0697      0.0360      0.0172
        76        -0.0000      0.0697      0.1764      0.0360      0.0172
        77         0.0001      0.0032     -0.0085      0.0001      0.0000
        78        -0.0001      0.0085      0.0032      0.0001      0.0000
        79        -0.0001     -0.0000      0.0000      0.0000      0.0000
        80        -0.0244     -0.0000     -0.0000      0.0006      0.0003
        81        -0.4273     -0.0000     -0.0000      0.1825      0.0889
        82        -0.0000     -0.0052      0.0775      0.0060      0.0030
        83        -0.0000      0.0775      0.0052      0.0060      0.0030
        84        -0.0000     -0.2852      0.1304      0.0983      0.0484
        85        -0.0000     -0.1303     -0.2853      0.0984      0.0485
        86         0.0000      0.0771     -0.4085      0.1728      0.0853
        87         0.0000     -0.4086     -0.0771      0.1729      0.0853
        88         0.2581      0.0000      0.0000      0.0666      0.0335
        89        -0.0000     -0.0049     -0.0175      0.0003      0.0002
        90        -0.0000     -0.0175      0.0049      0.0003      0.0002
        91        -0.0000      0.0539      0.0149      0.0031      0.0016
        92        -0.0000      0.0150     -0.0539      0.0031      0.0016
        93         0.0002      0.0000     -0.0000      0.0000      0.0000
        94         0.2370      0.0000      0.0000      0.0562      0.0287
        95        -0.0001      0.0002      0.0000      0.0000      0.0000
        96        -0.0000     -0.1050      0.1664      0.0387      0.0200
        97         0.0000      0.1664      0.1050      0.0387      0.0200
        98        -0.0000     -0.0000     -0.0000      0.0000      0.0000
        99         0.0000     -0.0440      0.2379      0.0586      0.0306
       100         0.0000     -0.2380     -0.0441      0.0586      0.0306
       101        -0.0513     -0.0000     -0.0001      0.0026      0.0014
       102         0.0000      0.5501      0.0304      0.3036      0.1598
       103         0.0000      0.0304     -0.5502      0.3036      0.1599
       104         0.0000     -0.0975      0.0012      0.0095      0.0050
       105         0.0000     -0.0012     -0.0972      0.0095      0.0050
       106         0.0000     -0.0001      0.0001      0.0000      0.0000
       107        -0.0001      0.0031     -0.2100      0.0441      0.0242
       108         0.0000      0.2100      0.0031      0.0441      0.0242
       109        -0.7282      0.0000      0.0000      0.5303      0.2915
       110         0.0001     -0.0013      0.0056      0.0000      0.0000
       111         0.0001      0.0056      0.0013      0.0000      0.0000
       112        -0.0000      0.0911      0.0426      0.0101      0.0056
       113         0.0000      0.0426     -0.0911      0.0101      0.0056
       114        -0.6389     -0.0000     -0.0000      0.4082      0.2297
       115        -0.0604      0.0000      0.0000      0.0036      0.0021
       116         0.1168      0.0000      0.0000      0.0136      0.0079
       117         0.0000     -0.0106      0.0455      0.0022      0.0013
       118         0.0000      0.0455      0.0106      0.0022      0.0013
       119         0.1396     -0.0000      0.0000      0.0195      0.0116
       120        -0.3021      0.0000      0.0000      0.0913      0.0548
       121         0.0000      0.0001      0.0000      0.0000      0.0000
       122         0.0000      0.0811     -0.0132      0.0067      0.0041
       123         0.0000     -0.0132     -0.0811      0.0067      0.0041
       124         0.0000      0.0219     -0.0606      0.0042      0.0025
       125        -0.0000     -0.0607     -0.0219      0.0042      0.0025
       126        -0.0000     -0.0414      0.2519      0.0652      0.0399
       127         0.0000      0.2518      0.0414      0.0651      0.0399
       128         0.0000     -0.1206      0.0783      0.0207      0.0128
       129         0.0000     -0.0783     -0.1206      0.0207      0.0128
       130        -0.1220      0.0000      0.0000      0.0149      0.0093
       131        -0.0000     -0.0000      0.0000      0.0000      0.0000
       132        -0.0000      0.0000     -0.0000      0.0000      0.0000
       133         0.4188      0.0000      0.0001      0.1754      0.1118
       134        -0.0000      0.0550     -0.4926      0.2457      0.1587
       135         0.0000      0.4926      0.0551      0.2457      0.1587
       136         0.0000     -0.0118      0.2980      0.0889      0.0575
       137        -0.0000     -0.2980     -0.0118      0.0889      0.0575
       138        -0.3671      0.0000      0.0001      0.1348      0.0878
       139        -0.0000      0.2280      0.1143      0.0651      0.0440
       140         0.0000      0.1143     -0.2280      0.0651      0.0440
       141        -0.0001     -0.0001      0.0000      0.0000      0.0000
       142         0.0370      0.0000      0.0002      0.0014      0.0009
       143        -0.0004     -0.0011      0.4842      0.2345      0.1602
       144         0.0000     -0.4843     -0.0011      0.2345      0.1602
       145        -0.5929     -0.0000     -0.0003      0.3515      0.2405
       146         0.0000     -0.1011      0.3713      0.1481      0.1044
       147        -0.0000      0.3713      0.1011      0.1481      0.1044
       148        -0.0004     -0.0000     -0.0000      0.0000      0.0000
       149        -0.2524      0.0000     -0.0000      0.0637      0.0460
       150        -0.0002     -0.0000      0.0000      0.0000      0.0000
       151         0.0840      0.0000      0.0000      0.0070      0.0051
       152         0.0001     -0.0006      0.1570      0.0247      0.0180
       153        -0.0000     -0.1570     -0.0006      0.0246      0.0180
       154         0.0000     -0.0848      0.2122      0.0522      0.0384
       155        -0.0000     -0.2123     -0.0848      0.0522      0.0384
       156        -0.0678      0.0000     -0.0000      0.0046      0.0034
       157        -0.0000      0.0137     -0.0285      0.0010      0.0007
       158        -0.0000      0.0286      0.0137      0.0010      0.0007
       159         0.0000     -0.0328     -0.3467      0.1213      0.0913
       160        -0.0000     -0.3467      0.0328      0.1213      0.0913
       161         0.1180     -0.0000     -0.0001      0.0139      0.0105
       162         0.0001     -0.0001      0.0000      0.0000      0.0000
       163        -0.0000     -0.0007      0.0027      0.0000      0.0000
       164         0.0000      0.0027      0.0007      0.0000      0.0000
       165        -0.0000      0.0500     -0.0112      0.0026      0.0020
       166         0.0000      0.0112      0.0500      0.0026      0.0020
       167        -0.0000      0.0040     -0.0816      0.0067      0.0052
       168        -0.0000     -0.0817     -0.0040      0.0067      0.0052
       169        -0.0592      0.0000     -0.0001      0.0035      0.0027
       170         0.0000      0.0001     -0.0001      0.0000      0.0000
       171        -0.0000     -0.4493     -0.1868      0.2368      0.1855
       172         0.0000      0.1868     -0.4494      0.2368      0.1855
       173        -0.0000     -0.0392      0.2042      0.0433      0.0344
       174        -0.0000     -0.2043     -0.0392      0.0433      0.0344
       175         0.0001     -0.0073     -0.0678      0.0046      0.0037
       176        -0.0000     -0.0678      0.0073      0.0046      0.0037
       177         0.1213     -0.0000      0.0000      0.0147      0.0119
       178        -0.2337      0.0000     -0.0000      0.0546      0.0441
       179        -0.0001     -0.0225      0.0080      0.0006      0.0005
       180         0.0002     -0.0080     -0.0225      0.0006      0.0005
       181        -0.0001      0.0010     -0.0000      0.0000      0.0000
       182         0.0001     -0.0000     -0.0000      0.0000      0.0000
       183         0.0000     -0.0361      0.0025      0.0013      0.0011
       184        -0.0000     -0.0025     -0.0361      0.0013      0.0011
       185        -0.0000     -0.0534      0.1777      0.0344      0.0289
       186        -0.0000      0.1777      0.0534      0.0344      0.0289
       187        -0.4995      0.0000     -0.0000      0.2495      0.2098
       188         0.3775      0.0000      0.0000      0.1425      0.1214
       189        -0.0000      0.0124     -0.0364      0.0015      0.0013
       190        -0.0000      0.0364      0.0124      0.0015      0.0013
       191        -0.0000     -0.0178      0.0559      0.0034      0.0030
       192        -0.0000      0.0559      0.0177      0.0034      0.0030
       193        -0.0000     -0.0000     -0.0000      0.0000      0.0000
       194         0.2098     -0.0000      0.0000      0.0440      0.0384
       195         0.0443     -0.0000      0.0002      0.0020      0.0017
       196         0.0000      0.0614      0.3016      0.0947      0.0836
       197         0.0000      0.3017     -0.0614      0.0948      0.0836
       198        -0.0000     -0.0206     -0.1513      0.0233      0.0206
       199         0.0000     -0.1513      0.0205      0.0233      0.0206
       200        -0.1427     -0.0000      0.0000      0.0204      0.0180
       201        -0.0000      0.2361      0.0858      0.0631      0.0565
       202        -0.0000     -0.0857      0.2361      0.0631      0.0565
       203        -0.0000     -0.0705     -0.1197      0.0193      0.0173
       204         0.0000     -0.1197      0.0706      0.0193      0.0173
       205        -0.0000     -0.0001      0.0001      0.0000      0.0000
       206         0.0000      0.2059      0.0641      0.0465      0.0419
       207         0.0000      0.0641     -0.2060      0.0465      0.0419
       208        -0.0455     -0.0002      0.0000      0.0021      0.0019
       209        -0.0001      0.0778     -0.0452      0.0081      0.0073
       210        -0.0000      0.0451      0.0778      0.0081      0.0073
       211        -0.0000      0.1945      0.0125      0.0380      0.0346
       212         0.0000      0.0125     -0.1944      0.0380      0.0346
       213        -0.0101     -0.0000     -0.0000      0.0001      0.0001
       214         0.0000      0.0000     -0.0000      0.0000      0.0000
       215         0.0000     -0.0036      0.0162      0.0003      0.0003
       216         0.0000     -0.0162     -0.0036      0.0003      0.0003
       217        -0.0646      0.0000      0.0000      0.0042      0.0039
       218         0.0000      0.0235      0.0118      0.0007      0.0007
       219        -0.0000      0.0118     -0.0235      0.0007      0.0007
       220        -0.0000     -0.0106      0.0470      0.0023      0.0023
       221        -0.0000      0.0470      0.0106      0.0023      0.0023
       222        -0.0550      0.0000      0.0000      0.0030      0.0030
       223         0.0258     -0.0000      0.0000      0.0007      0.0007
       224        -0.1487      0.0000      0.0000      0.0221      0.0221
       225         0.0000      0.0022      0.0079      0.0001      0.0001
       226        -0.0000      0.0079     -0.0022      0.0001      0.0001
       227        -0.1034     -0.0000     -0.0000      0.0107      0.0108
       228        -0.0395     -0.0000      0.0000      0.0016      0.0016
       229        -0.0000     -0.3820     -0.0044      0.1459      0.1507
       230         0.0000     -0.0044      0.3820      0.1459      0.1507
       231         0.0000      0.0510     -0.0264      0.0033      0.0034
       232         0.0000      0.0264      0.0510      0.0033      0.0034
       233        -0.0925     -0.0000      0.0000      0.0086      0.0096
       234        -0.0661     -0.0000      0.0000      0.0044      0.0050
       235         0.0000      0.0053     -0.0147      0.0002      0.0003
       236         0.0000      0.0146      0.0053      0.0002      0.0003
       237        -0.0001     -0.0000      0.0000      0.0000      0.0000
       238        -0.0000      0.1321      0.1128      0.0302      0.0353
       239         0.0000      0.1128     -0.1321      0.0302      0.0353
       240         0.3506      0.0000     -0.0000      0.1229      0.1466
       241         0.0000     -0.0071     -0.0393      0.0016      0.0019
       242        -0.0000     -0.0393      0.0071      0.0016      0.0019
       243         0.0000     -0.0000     -0.0000      0.0000      0.0000
       244        -0.0000     -0.0099     -0.0007      0.0001      0.0001
       245         0.0000     -0.0007      0.0098      0.0001      0.0001
       246         0.0161      0.0000     -0.0000      0.0003      0.0003
       247         0.0001     -0.0165      0.0462      0.0024      0.0030
       248        -0.0000     -0.0462     -0.0165      0.0024      0.0030
       249         0.0001      0.0001     -0.0000      0.0000      0.0000
       250         0.2567     -0.0001     -0.0003      0.0659      0.0832
       251         0.0000     -0.1316      0.0666      0.0217      0.0275
       252        -0.0004     -0.0666     -0.1316      0.0217      0.0275
       253        -0.0000      0.0603     -0.2673      0.0751      0.0960
       254         0.0000      0.2673      0.0603      0.0751      0.0960
       255        -0.2964      0.0001      0.0000      0.0878      0.1142
       256         0.0001      0.0265      0.0858      0.0081      0.0105
       257         0.0001      0.0858     -0.0265      0.0081      0.0105
       258         0.2117     -0.0000     -0.0000      0.0448      0.0589
       259         0.0000     -0.0657     -0.0020      0.0043      0.0057
       260         0.0000     -0.0020      0.0657      0.0043      0.0057
       261        -0.0000     -0.0059     -0.1926      0.0371      0.0493
       262        -0.0000     -0.1926      0.0059      0.0371      0.0493
       263        -0.0000     -0.0000      0.0000      0.0000      0.0000
       264         0.0000     -0.0119      0.0017      0.0001      0.0002
       265        -0.0000      0.0017      0.0119      0.0001      0.0002
       266         0.0000      0.0525     -0.0418      0.0045      0.0061
       267        -0.0000     -0.0419     -0.0525      0.0045      0.0061
       268         0.0000      0.1397     -0.0141      0.0197      0.0267
       269        -0.0000     -0.0141     -0.1398      0.0197      0.0267
       270         0.0000     -0.0001      0.0000      0.0000      0.0000
       271         0.1925     -0.0000      0.0000      0.0371      0.0507
       272        -0.0000      0.0163     -0.0907      0.0085      0.0119
       273        -0.0000      0.0906      0.0163      0.0085      0.0119
       274         0.0154      0.0000     -0.0000      0.0002      0.0003
       275         0.0000      0.0227     -0.0852      0.0078      0.0110
       276        -0.0000     -0.0852     -0.0227      0.0078      0.0110
       277         0.0000     -0.0001     -0.0001      0.0000      0.0000
       278         0.0000     -0.0168     -0.0914      0.0086      0.0123
       279         0.0001      0.0914     -0.0168      0.0086      0.0123
       280        -0.1546      0.0001     -0.0000      0.0239      0.0341
       281         0.0000      0.0027     -0.0020      0.0000      0.0000
       282        -0.0000      0.0020      0.0027      0.0000      0.0000
       283         0.0000     -0.0920      0.0964      0.0178      0.0260
       284         0.0000      0.0964      0.0920      0.0178      0.0260
       285         0.2225     -0.0000     -0.0000      0.0495      0.0729
       286         0.0000     -0.0000     -0.0000      0.0000      0.0000
       287        -0.0000      0.0001      0.0001      0.0000      0.0000
       288        -0.0000     -0.0215      0.0537      0.0033      0.0051
       289         0.0000     -0.0537     -0.0215      0.0033      0.0051
       290        -0.0253     -0.0000     -0.0000      0.0006      0.0010
       291        -0.0000      0.0311     -0.0196      0.0014      0.0021
       292        -0.0000     -0.0196     -0.0310      0.0013      0.0021
       293        -0.0000      0.1094     -0.0581      0.0153      0.0236
       294         0.0000      0.0581      0.1094      0.0153      0.0236
       295         0.0708     -0.0000      0.0000      0.0050      0.0077
       296        -0.0000     -0.0000     -0.0000      0.0000      0.0000
       297         0.0246     -0.0003      0.0005      0.0006      0.0009
       298         0.0002      0.0310     -0.0221      0.0015      0.0023
       299         0.0001     -0.0221     -0.0310      0.0014      0.0023
       300         0.1115     -0.0000     -0.0000      0.0124      0.0203
       301         0.0000      0.0400     -0.0966      0.0109      0.0179
       302        -0.0000     -0.0966     -0.0400      0.0109      0.0179
       303        -0.0000     -0.0173      0.0096      0.0004      0.0006
       304        -0.0000      0.0096      0.0173      0.0004      0.0006
       305         0.0000      0.0000      0.0000      0.0000      0.0000
       306         0.0000     -0.0545      0.0445      0.0050      0.0082
       307         0.0000      0.0445      0.0545      0.0050      0.0082
       308        -0.0000     -0.0586     -0.1369      0.0222      0.0368
       309        -0.0000     -0.1369      0.0586      0.0222      0.0368
       310         0.0313     -0.0000     -0.0000      0.0010      0.0016
       311         0.0000     -0.0019      0.0726      0.0053      0.0088
       312         0.0000      0.0726      0.0019      0.0053      0.0088
       313        -0.0000     -0.0363      0.1316      0.0186      0.0314
       314         0.0000     -0.1316     -0.0363      0.0186      0.0314
       315        -0.0654     -0.0000     -0.0000      0.0043      0.0072
       316         0.0000      0.0322     -0.1546      0.0249      0.0431
       317         0.0000     -0.1546     -0.0322      0.0249      0.0431
       318         0.0320      0.0000     -0.0000      0.0010      0.0018
       319        -0.0000      0.0112     -0.0328      0.0012      0.0021
       320        -0.0000     -0.0328     -0.0112      0.0012      0.0021
       321         0.0000     -0.0001      0.0000      0.0000      0.0000
       322        -0.0000      0.0864     -0.2238      0.0575      0.1019
       323        -0.0000     -0.2238     -0.0863      0.0575      0.1019
       324         0.0167      0.0000     -0.0000      0.0003      0.0005
       325        -0.0000      0.0343      0.0954      0.0103      0.0183
       326         0.0000      0.0954     -0.0343      0.0103      0.0183
       327        -0.0000      0.0000     -0.0000      0.0000      0.0000
       328         0.0002     -0.0091     -0.0145      0.0003      0.0005
       329        -0.0002     -0.0145      0.0091      0.0003      0.0005
       330        -0.1309      0.0000     -0.0000      0.0171      0.0311
       331        -0.1631      0.0000      0.0000      0.0266      0.0494
       332         0.1779      0.0000     -0.0000      0.0316      0.0597
       333         0.0000     -0.0000     -0.0000      0.0000      0.0000
       334        -0.0495      0.0000      0.0000      0.0024      0.0047
       335         0.0001     -0.0002     -0.0049      0.0000      0.0000
       336        -0.0000     -0.0049      0.0002      0.0000      0.0000
       337         0.0000     -0.0077      0.1382      0.0192      0.0367
       338         0.0000     -0.1382     -0.0077      0.0191      0.0367
       339        -0.1196     -0.0000      0.0000      0.0143      0.0275
       340        -0.0000     -0.1201      0.0735      0.0198      0.0385
       341        -0.0000      0.0735      0.1201      0.0198      0.0385
       342         0.1108     -0.0000      0.0000      0.0123      0.0242
       343        -0.0000     -0.0003     -0.0405      0.0016      0.0033
       344        -0.0000     -0.0405      0.0003      0.0016      0.0033
       345         0.0000      0.0012     -0.0575      0.0033      0.0067
       346        -0.0000      0.0575      0.0012      0.0033      0.0067
       347         0.0000     -0.0216     -0.0845      0.0076      0.0158
       348        -0.0000     -0.0845      0.0216      0.0076      0.0158
       349         0.0000     -0.0101     -0.0368      0.0015      0.0030
       350        -0.0000     -0.0368      0.0102      0.0015      0.0030
       351         0.0273     -0.0000     -0.0000      0.0007      0.0016
       352        -0.0000     -0.0001     -0.0000      0.0000      0.0000
       353         0.0001      0.0190     -0.0183      0.0007      0.0015
       354         0.0000     -0.0183     -0.0190      0.0007      0.0015
       355         0.0865     -0.0000      0.0000      0.0075      0.0161
       356         0.0022     -0.0000     -0.0000      0.0000      0.0000
       357         0.0409      0.0000     -0.0000      0.0017      0.0037
       358         0.0000      0.0001      0.0000      0.0000      0.0000
       359        -0.0762     -0.0001      0.0003      0.0058      0.0130
       360        -0.0001      0.1018     -0.0248      0.0110      0.0246
       361        -0.0002     -0.0248     -0.1018      0.0110      0.0246
       362         0.0000      0.1083     -0.0113      0.0119      0.0267
       363        -0.0000      0.0112      0.1083      0.0118      0.0266
       364        -0.0367      0.0001     -0.0001      0.0013      0.0030
       365        -0.0000      0.0002     -0.0068      0.0000      0.0001
       366        -0.0000      0.0068      0.0002      0.0000      0.0001
       367         0.0000     -0.0817      0.0108      0.0068      0.0161
       368        -0.0000     -0.0108     -0.0817      0.0068      0.0161
       369        -0.0000      0.0000     -0.0000      0.0000      0.0000
       370         0.0076      0.0000      0.0000      0.0001      0.0001
       371         0.0000      0.0597      0.1661      0.0312      0.0759
       372        -0.0000     -0.1661      0.0597      0.0312      0.0759
       373         0.0000      0.0000      0.0000      0.0000      0.0000
       374        -0.0000      0.0043     -0.0070      0.0001      0.0002
       375         0.0000      0.0070      0.0043      0.0001      0.0002
       376         0.0002      0.0000     -0.0000      0.0000      0.0000
       377        -0.0058      0.0000      0.0000      0.0000      0.0001
       378        -0.0000     -0.0054      0.0004      0.0000      0.0001
       379         0.0000      0.0004      0.0054      0.0000      0.0001
       380        -0.0590      0.0000     -0.0000      0.0035      0.0087
       381         0.1119     -0.0000     -0.0000      0.0125      0.0314
       382         0.0000      0.0718     -0.1586      0.0303      0.0766
       383        -0.0000      0.1586      0.0718      0.0303      0.0766
       384        -0.0001     -0.0000      0.0000      0.0000      0.0000
       385        -0.0000     -0.0012     -0.0002      0.0000      0.0000
       386         0.0000     -0.0002      0.0012      0.0000      0.0000
       387         0.0000      0.0181     -0.0012      0.0003      0.0009
       388        -0.0000     -0.0012     -0.0181      0.0003      0.0009
       389        -0.3370     -0.0000     -0.0000      0.1136      0.2990
       390        -0.0000     -0.1087      0.2497      0.0742      0.1956
       391         0.0000     -0.2497     -0.1087      0.0742      0.1956
       392         0.0000     -0.0669      0.0081      0.0045      0.0121
       393        -0.0000     -0.0081     -0.0669      0.0045      0.0121
       394         0.0000      0.0335     -0.0889      0.0090      0.0243
       395        -0.0000      0.0889      0.0335      0.0090      0.0243
       396        -0.0000      0.0718     -0.3222      0.1090      0.2999
       397        -0.0000     -0.3222     -0.0718      0.1090      0.2999
       398         0.0000      0.1400     -0.3283      0.1274      0.3603
       399         0.0000     -0.3283     -0.1400      0.1274      0.3603
       400         0.3299      0.0000      0.0000      0.1088      0.3123
[...]
      1  -0.135766D+03 -0.135745D+03 -0.135745D+03 -0.135735D+03 -0.135712D+03
      2   0.129883D-04 -0.373902D-04 -0.613275D-05  0.119627D+00  0.191686D-04
      3  -0.486562D-02 -0.832602D-02 -0.138118D+00 -0.410390D-05 -0.120435D+00
      4  -0.158607D-03 -0.138134D+00  0.833601D-02 -0.353495D-04 -0.729836D-01
      5  -0.400999D-04  0.121102D-03  0.172342D-04 -0.339994D+00 -0.537324D-04
      6   0.537601D-02  0.217097D-01  0.360141D+00  0.885466D-05  0.349387D+00
      7   0.164689D-03  0.360182D+00 -0.217380D-01  0.971558D-04  0.211751D+00
      8   0.123918D-03 -0.177461D-05 -0.436012D-04 -0.611901D-03 -0.145843D-04
      9  -0.304626D-02  0.507302D-02 -0.513200D-03 -0.402212D-04 -0.232266D+00
     10   0.892059D-01 -0.543192D-03 -0.506842D-02 -0.486518D-05  0.383581D+00
     11  -0.157985D-03  0.686494D-03 -0.618865D-05 -0.237955D+01 -0.161806D-03
     12   0.812162D-02  0.265350D+00 -0.627714D-02 -0.943561D+00  0.247845D-01
     13  -0.822225D-02 -0.264554D+00  0.627018D-02 -0.943606D+00 -0.247325D-01
     14   0.315596D+00  0.127213D-02  0.208663D-01 -0.115467D-04  0.302252D+00
     15   0.108340D-01  0.207542D-01 -0.130250D-02 -0.181364D-04  0.183025D+00
     16   0.124959D+00  0.628848D-02  0.265020D+00  0.115611D-04  0.378786D-01
               341           342           343           344           345 
      1  -0.135712D+03 -0.135661D+03 -0.135642D+03 -0.135642D+03 -0.135578D+03
      2   0.480139D-05 -0.110769D+00  0.439688D-05  0.610564D-05 -0.203467D-05
      3   0.729873D-01 -0.130712D-04 -0.919302D-04 -0.405064D-01  0.143859D-02
      4  -0.120419D+00 -0.143054D-04  0.405070D-01 -0.932564D-04  0.575289D-01
      5  -0.723627D-05  0.321344D+00 -0.108708D-04 -0.156135D-04  0.393761D-05
      6  -0.211766D+00  0.396658D-04  0.215802D-03  0.107362D+00 -0.377172D-02
      7   0.349345D+00  0.389594D-04 -0.107360D+00  0.219421D-03 -0.149356D+00
      8   0.124846D-04 -0.133049D-04  0.362818D-05  0.866978D-05 -0.203922D-05
      9  -0.383560D+00 -0.376844D-04 -0.153529D-01  0.660426D-04  0.136516D+00
     10  -0.232298D+00  0.592049D-04 -0.529925D-04 -0.153674D-01 -0.237358D-02
     11   0.597476D-04  0.901362D+00 -0.355110D-04  0.796457D-05  0.580592D-04
     12   0.379068D-01 -0.162011D+00 -0.103891D+00  0.444523D-02  0.226537D+00
     13  -0.377972D-01 -0.162003D+00  0.103893D+00 -0.444360D-02 -0.226471D+00
     14  -0.183068D+00  0.449156D-04 -0.111904D-02 -0.187386D+00  0.274243D-03
     15   0.302223D+00  0.235858D-04  0.187391D+00 -0.112757D-02  0.254663D-02
     16  -0.247539D-01 -0.178339D-05  0.444896D-02  0.103910D+00 -0.345441D-02
               346           347           348           349           350 
      1  -0.135578D+03 -0.135509D+03 -0.135509D+03 -0.135502D+03 -0.135502D+03
      2   0.120801D-05 -0.275950D-05  0.316249D-05 -0.157499D-05  0.330243D-05
      3   0.575282D-01 -0.212524D-01 -0.846009D-01 -0.997796D-02 -0.368335D-01
      4  -0.143958D-02  0.846096D-01 -0.212386D-01  0.368028D-01 -0.100160D-01
      5  -0.472511D-05  0.802483D-05 -0.100635D-04  0.826998D-05 -0.111307D-04
      6  -0.149354D+00  0.592632D-01  0.235839D+00  0.531827D-01  0.195550D+00
      7   0.377530D-02 -0.235901D+00  0.591806D-01 -0.195463D+00  0.532903D-01
      8  -0.657917D-05  0.362263D-05  0.836633D-05 -0.217880D-05 -0.283140D-05
      9  -0.238151D-02  0.267998D+00 -0.668981D-01  0.368384D+00 -0.100515D+00
     10  -0.136513D+00  0.670672D-01  0.267839D+00  0.100385D+00  0.368506D+00
     11   0.478478D-04  0.721127D-04  0.663781D-05 -0.182661D-04 -0.449743D-04
     12   0.346201D-02  0.464228D-01 -0.135522D-01 -0.825246D-01  0.254789D-01
     13  -0.345372D-02 -0.464266D-01  0.135630D-01  0.825273D-01 -0.254715D-01
     14   0.255904D-02  0.804573D-01  0.319283D+00  0.162648D+00  0.596210D+00
     15  -0.271033D-03 -0.319534D+00  0.801828D-01 -0.596061D+00  0.162803D+00
     16   0.226506D+00 -0.135178D-01 -0.464536D-01  0.254946D-01  0.825001D-01
               351           352           353           354           355 
      1  -0.135483D+03 -0.135403D+03 -0.135399D+03 -0.135399D+03 -0.135392D+03
      2  -0.273060D-01  0.325334D-04 -0.910474D-04 -0.427646D-04 -0.865123D-01
      3  -0.675292D-05 -0.613337D-04  0.190956D-01 -0.182493D-01 -0.293519D-05
      4   0.831344D-05  0.154339D-04  0.182493D-01  0.190952D-01 -0.237527D-04
      5   0.989444D-01 -0.497008D-04  0.221002D-03  0.102147D-03  0.210804D+00
      6   0.162367D-04  0.200947D-03 -0.620025D-01  0.592914D-01  0.120791D-04
      7  -0.199935D-04 -0.512101D-04 -0.592913D-01 -0.620014D-01  0.786084D-04
      8  -0.444440D-04  0.728277D-02  0.799269D-05 -0.184393D-04 -0.378611D-03
      9  -0.496835D-04 -0.328371D-03 -0.309679D+00 -0.324381D+00  0.518189D-03
     10   0.000000D+00 -0.125229D-02  0.324380D+00 -0.309680D+00 -0.179017D-03
     11  -0.713942D+00 -0.994854D-03 -0.369409D-03 -0.241793D-03 -0.517067D+00
     12   0.141114D+00  0.536136D-03 -0.347093D-01 -0.328211D-01  0.353745D-02
     13   0.141158D+00  0.590403D-03  0.347159D-01  0.328162D-01  0.344651D-02
     14  -0.385080D-04 -0.670344D-03  0.160933D+00 -0.152780D+00 -0.114068D-03
     15  -0.267999D-04  0.176964D-03  0.152768D+00  0.160926D+00 -0.269783D-03
     16  -0.311454D-05  0.121159D-03 -0.328121D-01  0.347052D-01  0.161755D-04
               356           357           358           359           360 
      1  -0.135368D+03 -0.135307D+03 -0.135269D+03 -0.135258D+03 -0.135258D+03
      2  -0.222556D-02 -0.409105D-01 -0.210323D-05  0.761722D-01  0.147656D-03
      3  -0.214410D-05  0.453172D-05  0.110778D-03 -0.948034D-04  0.101864D+00
      4   0.487756D-05  0.873500D-05 -0.245486D-04 -0.287925D-03  0.243639D-01
      5   0.460802D-01  0.120776D+00 -0.424058D-05 -0.302565D+00 -0.580074D-03
      6   0.572188D-05 -0.117356D-04 -0.293647D-03  0.237979D-03 -0.272613D+00
      7  -0.162091D-04 -0.248849D-04  0.641958D-04  0.764045D-03 -0.651440D-01
      8   0.140483D-04 -0.199666D-03 -0.897795D-02  0.439995D-03  0.525448D-05
      9  -0.751497D-04 -0.108604D-03  0.460181D-04  0.534859D-03 -0.473891D-01
     10   0.179782D-04  0.112069D-04  0.216127D-03 -0.406667D-03  0.198125D+00
     11   0.566793D-01 -0.530145D+00  0.928386D-03 -0.544965D+00 -0.129307D-02
     12  -0.410146D+00  0.113607D+00  0.253219D-03  0.102882D+01 -0.315801D-01
     13  -0.410102D+00  0.113669D+00  0.235257D-03  0.102812D+01  0.353226D-01
     14   0.967371D-05  0.220023D-04  0.130429D-03 -0.268136D-03  0.214575D-01
     15  -0.874525D-05  0.585950D-04 -0.402407D-04 -0.126682D-03  0.564581D-02
     16   0.000000D+00  0.235083D-05 -0.817993D-04  0.131675D-03 -0.120460D+00
               361           362           363           364           365 
      1  -0.135258D+03 -0.135248D+03 -0.135248D+03 -0.135243D+03 -0.135128D+03
      2   0.158095D-03 -0.562123D-05  0.189894D-04  0.366737D-01  0.345527D-05
      3  -0.243698D-01  0.108392D+00  0.107753D-01  0.531018D-04  0.254315D-03
      4   0.101953D+00  0.107914D-01 -0.108308D+00  0.149141D-03  0.682374D-02
      5  -0.642433D-03  0.000000D+00 -0.188299D-04 -0.812533D-01 -0.207174D-04
      6   0.651593D-01 -0.289376D+00 -0.287242D-01 -0.140161D-03  0.693984D-03
      7  -0.272848D+00 -0.287686D-01  0.289150D+00 -0.398531D-03  0.231404D-01
      8   0.000000D+00  0.427341D-05  0.300479D-05  0.945177D-03 -0.157794D-05
      9  -0.198304D+00 -0.225738D-01  0.221112D+00 -0.337972D-03 -0.243072D+00
     10  -0.473964D-01  0.221270D+00  0.225506D-01  0.955113D-04  0.885725D-02
     11  -0.140763D-02 -0.322730D-03  0.683902D-03  0.650910D+00 -0.447176D-04
     12  -0.118059D+00  0.817951D-02 -0.610339D-01 -0.313506D+00 -0.259567D-01
     13   0.122760D+00 -0.780157D-02  0.601935D-01 -0.313453D+00  0.261634D-01
     14  -0.567223D-02  0.386874D+00  0.396933D-01  0.144120D-03  0.149706D-01
     15   0.217511D-01  0.396902D-01 -0.386847D+00  0.375754D-03  0.440152D+00
     16   0.334364D-01  0.605129D-01  0.801110D-02  0.000000D+00 -0.272166D-03
               366           367           368           369           370 
      1  -0.135128D+03 -0.135071D+03 -0.135071D+03 -0.135015D+03 -0.135014D+03
      2   0.353309D-05 -0.105513D-05  0.387919D-05  0.285341D-04 -0.764111D-02
      3   0.682061D-02 -0.817719D-01 -0.104101D-01  0.638313D-05  0.000000D+00
      4  -0.253645D-03 -0.104095D-01  0.817687D-01  0.000000D+00 -0.363186D-05
      5  -0.150927D-04  0.530236D-05 -0.142382D-04 -0.962629D-04  0.132143D-01
      6   0.231482D-01  0.219372D+00  0.278869D-01 -0.212085D-04 -0.252683D-05
      7  -0.697345D-03  0.278841D-01 -0.219365D+00  0.000000D+00  0.122700D-04
      8   0.342969D-05 -0.109441D-04  0.000000D+00  0.375303D-02 -0.132553D-03
      9   0.886425D-02  0.439734D-01 -0.349841D+00  0.000000D+00 -0.862482D-05
     10   0.243062D+00 -0.349844D+00 -0.439774D-01 -0.280615D-04  0.231625D-05
     11  -0.166444D-04  0.252187D-04 -0.123387D-04  0.211355D-03 -0.127570D+00
     12   0.319051D-03 -0.192955D-01  0.118522D+00 -0.762722D-03  0.153990D-01
     13  -0.224257D-03  0.192589D-01 -0.118498D+00 -0.763452D-03  0.153956D-01
     14   0.440143D+00 -0.241415D+00 -0.298506D-01 -0.251237D-04  0.154840D-05
     15  -0.149844D-01 -0.298365D-01  0.241412D+00  0.000000D+00  0.148867D-04
     16  -0.260666D-01 -0.118512D+00 -0.192785D-01  0.000000D+00  0.100970D-05
               371           372           373           374           375 
      1  -0.134966D+03 -0.134966D+03 -0.134935D+03 -0.134928D+03 -0.134928D+03
      2  -0.291322D-05  0.447583D-05 -0.374641D-04  0.273353D-05 -0.588824D-05
      3   0.590075D-01 -0.166384D+00  0.620456D-05  0.433368D-02  0.699158D-02
      4  -0.166384D+00 -0.590079D-01 -0.584120D-05  0.698606D-02 -0.433672D-02
      5   0.114219D-04 -0.193536D-04  0.129885D-03 -0.849553D-05  0.201820D-04
      6  -0.200702D+00  0.565850D+00 -0.199696D-04 -0.194218D-01 -0.312415D-01
      7   0.565850D+00  0.200703D+00  0.235513D-04 -0.312313D-01  0.194345D-01
      8   0.575270D-05 -0.245750D-05  0.125715D-01 -0.185527D-05 -0.650723D-05
      9  -0.575332D+00 -0.203525D+00 -0.655540D-04  0.400445D-01 -0.250737D-01
     10  -0.203526D+00  0.575335D+00 -0.415011D-04 -0.250409D-01 -0.400374D-01
     11   0.330530D-04 -0.761430D-04  0.523463D-03 -0.350768D-04  0.907854D-04
     12   0.466873D-02  0.213271D-02  0.191707D-03 -0.576478D-01  0.333560D-01
     13  -0.470189D-02 -0.198930D-02  0.170092D-03  0.576504D-01 -0.333642D-01
     14  -0.174678D+00  0.491599D+00 -0.101307D-04  0.525075D-01  0.843823D-01
     15   0.491595D+00  0.174671D+00  0.119881D-04  0.842310D-01 -0.525061D-01
     16  -0.205553D-02  0.468712D-02 -0.146419D-04 -0.333870D-01 -0.576844D-01
               376           377           378           379           380 
      1  -0.134884D+03 -0.134883D+03 -0.134869D+03 -0.134869D+03 -0.134867D+03
      2  -0.207582D-03  0.579670D-02  0.144404D-04 -0.201998D-04  0.590196D-01
      3   0.106240D-04  0.338571D-05 -0.541604D-02  0.424379D-03  0.177861D-04
      4   0.273099D-05 -0.518182D-05 -0.425124D-03 -0.542319D-02  0.179168D-04
      5   0.753392D-03 -0.149662D-01 -0.481672D-04  0.678026D-04 -0.188897D+00
      6  -0.348809D-04 -0.111190D-04  0.159752D-01 -0.128532D-02 -0.563857D-04
      7  -0.941454D-05  0.177977D-04  0.128843D-02  0.159993D-01 -0.624156D-04
      8  -0.248133D-02  0.105708D-03  0.262299D-05 -0.148408D-05 -0.395635D-04
      9   0.137716D-04 -0.320691D-04 -0.910163D-03 -0.101576D-01  0.310992D-04
     10  -0.400086D-04 -0.147351D-04  0.101315D-01 -0.910860D-03 -0.320002D-04
     11   0.492865D-04  0.106300D+00 -0.213364D-03  0.273056D-03 -0.113489D+01
     12   0.809482D-04  0.896323D-02 -0.702897D-02 -0.625950D-01 -0.275766D-01
     13   0.824064D-04  0.897124D-02  0.703982D-02  0.625759D-01 -0.276147D-01
     14  -0.417783D-04 -0.151284D-04 -0.568850D-01  0.417354D-02  0.296800D-04
     15  -0.139022D-04  0.231033D-04 -0.416012D-02 -0.568604D-01 -0.251379D-04
     16  -0.186063D-05  0.346694D-05 -0.625766D-01  0.703705D-02 -0.178586D-04
               381           382           383           384           385 
      1  -0.134856D+03 -0.134831D+03 -0.134831D+03 -0.134800D+03 -0.134796D+03
      2  -0.111928D+00 -0.475637D-05  0.000000D+00  0.641251D-04  0.889637D-05
      3  -0.361618D-05  0.724829D-01  0.158260D+00 -0.174904D-04 -0.123218D-02
      4   0.866552D-05  0.158256D+00 -0.724849D-01 -0.330288D-05  0.160871D-03
      5   0.375059D+00  0.163042D-04  0.119388D-05 -0.222634D-03 -0.302856D-04
      6   0.147390D-04 -0.233566D+00 -0.510092D+00  0.626859D-04 -0.222302D-02
      7  -0.203164D-04 -0.510077D+00  0.233573D+00  0.112897D-04  0.117227D-03
      8   0.487668D-04  0.000000D+00  0.441756D-05 -0.124436D-01  0.431937D-05
      9  -0.527080D-04  0.618537D+00 -0.284366D+00 -0.214007D-04 -0.689715D-03
     10   0.449197D-04 -0.284352D+00 -0.618561D+00  0.937311D-04 -0.812642D-02
     11   0.143526D+01  0.667203D-04  0.365236D-05 -0.541304D-03 -0.927078D-04
     12  -0.138253D+00  0.122790D-01 -0.569548D-02  0.867087D-03  0.214212D-02
     13  -0.138156D+00 -0.123249D-01  0.564700D-02  0.852379D-03 -0.213888D-02
     14   0.243224D-04 -0.199001D+00 -0.433623D+00  0.217307D-03  0.942194D-01
     15   0.210615D-04 -0.433597D+00  0.199016D+00  0.988985D-04 -0.109218D-01
     16   0.101891D-04  0.567053D-02  0.123039D-01 -0.761359D-05 -0.271707D-01
               386           387           388           389           390 
      1  -0.134796D+03 -0.134693D+03 -0.134693D+03 -0.134673D+03 -0.134666D+03
      2  -0.836900D-05 -0.257897D-05  0.245191D-05  0.337046D+00  0.105672D-04
      3  -0.161724D-03  0.181158D-01 -0.109116D-02 -0.101844D-04 -0.109745D+00
      4  -0.122547D-02  0.108906D-02  0.181156D-01  0.173497D-04 -0.249268D+00
      5   0.283913D-04  0.875984D-05 -0.861839D-05 -0.119003D+01 -0.389962D-04
      6  -0.110934D-03 -0.570560D-01  0.342378D-02  0.256663D-04  0.382145D+00
      7  -0.224401D-02 -0.341695D-02 -0.570545D-01 -0.617883D-04  0.867992D+00
      8   0.422436D-05  0.604535D-05  0.000000D+00 -0.297876D-04  0.306102D-05
      9   0.808921D-02 -0.528168D-03 -0.101999D-01  0.141465D-03 -0.133471D+01
     10  -0.657796D-03  0.101892D-01 -0.521158D-03  0.464021D-05  0.588214D+00
     11   0.104612D-03  0.181288D-04 -0.178467D-04 -0.349532D+01 -0.131033D-03
     12  -0.271517D-01  0.211087D-01  0.224932D+00 -0.696755D-01  0.123357D-01
     13   0.271521D-01 -0.211032D-01 -0.224937D+00 -0.695862D-01 -0.123574D-01
     14   0.109261D-01 -0.249144D-02  0.830406D-04 -0.105690D-03  0.599323D+00
     15   0.942464D-01 -0.813052D-04 -0.248055D-02 -0.114453D-03  0.136006D+01
     16  -0.220766D-02  0.224932D+00 -0.211070D-01  0.148950D-04  0.491678D-02
               391           392           393           394           395 
      1  -0.134666D+03 -0.134625D+03 -0.134625D+03 -0.134586D+03 -0.134586D+03
      2  -0.101315D-04 -0.116685D-05  0.000000D+00 -0.183696D-05  0.268316D-05
      3  -0.249266D+00 -0.669651D-01 -0.783843D-02  0.338453D-01  0.887335D-01
      4   0.109746D+00 -0.784197D-02  0.669519D-01  0.887386D-01 -0.338399D-01
      5   0.357358D-04  0.492042D-05 -0.396381D-05  0.737634D-05 -0.954575D-05
      6   0.867986D+00  0.218788D+00  0.254889D-01 -0.114817D+00 -0.300956D+00
      7  -0.382147D+00  0.255004D-01 -0.218744D+00 -0.300974D+00  0.114797D+00
      8   0.250258D-05 -0.782859D-05  0.000000D+00 -0.103975D-05 -0.145369D-05
      9   0.588215D+00  0.150913D-02 -0.209459D-01  0.497331D+00 -0.189008D+00
     10   0.133471D+01 -0.208852D-01 -0.152522D-02 -0.189044D+00 -0.497304D+00
     11   0.849542D-04  0.158203D-04 -0.154257D-05  0.107415D-04 -0.157996D-04
     12  -0.488346D-02 -0.288677D-01  0.187444D+00 -0.347089D-01  0.117016D-01
     13   0.494086D-02  0.288577D-01 -0.187434D+00  0.346983D-01 -0.117224D-01
     14   0.136006D+01 -0.662693D-01 -0.714943D-02 -0.269113D+00 -0.706689D+00
     15  -0.599320D+00 -0.713980D-02  0.663278D-01 -0.706717D+00  0.269077D+00
     16   0.123421D-01 -0.187431D+00 -0.288647D-01 -0.117169D-01 -0.347001D-01
               396           397           398           399           400 
      1  -0.134493D+03 -0.134493D+03 -0.134378D+03 -0.134378D+03 -0.134317D+03
      2   0.560003D-05  0.486541D-05 -0.130549D-04 -0.960043D-05 -0.329904D+00
      3   0.731748D-01 -0.321889D+00  0.141404D+00 -0.327714D+00  0.232075D-05
      4   0.321887D+00  0.731753D-01  0.327716D+00  0.141404D+00 -0.351275D-05
      5  -0.225859D-04 -0.196612D-04  0.515828D-04  0.369377D-04  0.127282D+01
      6  -0.262778D+00  0.115588D+01 -0.529248D+00  0.122657D+01 -0.497793D-05
      7  -0.115587D+01 -0.262780D+00 -0.122658D+01 -0.529251D+00  0.166565D-04
      8  -0.376682D-05  0.000000D+00 -0.435167D-05  0.358734D-05  0.254470D-04
      9   0.138224D+01  0.313778D+00  0.177850D+01  0.768028D+00 -0.632664D-04
     10  -0.313780D+00  0.138225D+01 -0.768025D+00  0.177850D+01 -0.183265D-04
     11   0.170066D-05 -0.765007D-04  0.167159D-03  0.699076D-04  0.268849D+01
     12   0.474493D-01  0.916769D-02 -0.300366D-01 -0.119614D-01  0.146391D-02
     13  -0.474153D-01 -0.912677D-02  0.300599D-01  0.120159D-01  0.141998D-02
     14  -0.348913D+00  0.153771D+01 -0.901609D+00  0.208926D+01  0.759556D-04
     15  -0.153770D+01 -0.348914D+00 -0.208927D+01 -0.901612D+00  0.131325D-03
     16   0.914073D-02 -0.474354D-01 -0.119953D-01  0.300359D-01 -0.276947D-05
               401           402           403           404           405 
      1  -0.134187D+03 -0.134181D+03 -0.134181D+03 -0.134090D+03 -0.134090D+03
      2   0.232673D+00  0.000000D+00 -0.145449D-05  0.000000D+00  0.000000D+00
      3  -0.346457D-05 -0.144580D-03  0.741391D-04  0.356974D-01  0.725817D-01
      4   0.317816D-05 -0.732133D-04 -0.144335D-03  0.725818D-01 -0.356979D-01
      5  -0.103447D+01 -0.268353D-05  0.612141D-05  0.148445D-05 -0.201059D-05
      6   0.832471D-05  0.298741D-02 -0.370720D-03 -0.138092D+00 -0.281037D+00
      7  -0.152869D-04  0.367074D-03  0.298652D-02 -0.281037D+00  0.138094D+00
      8  -0.351996D-04 -0.218812D-04  0.000000D+00 -0.133325D-05  0.000000D+00
      9   0.334376D-04 -0.109785D-02 -0.368912D-01  0.381769D+00 -0.188200D+00
     10   0.141614D-04  0.368874D-01 -0.110383D-02 -0.188202D+00 -0.381770D+00
     11  -0.410564D+01 -0.175382D-05 -0.935616D-05 -0.341773D-05  0.541470D-05
     12   0.159333D+00 -0.485379D-01 -0.735838D+00 -0.255496D-01  0.115491D-01
     13   0.159387D+00  0.485361D-01  0.735853D+00  0.255764D-01 -0.115508D-01
     14  -0.968759D-04  0.197215D-01 -0.917618D-04  0.536233D-01  0.107621D+00
     15  -0.134872D-03  0.945306D-04  0.197225D-01  0.107623D+00 -0.536235D-01
     16   0.000000D+00 -0.735850D+00  0.485368D-01 -0.115442D-01 -0.255666D-01
               406 
      1  -0.133735D+03
      2   0.399801D-01
      3   0.000000D+00
      4   0.000000D+00
      5  -0.251800D+00
      6   0.000000D+00
      7  -0.163247D-05
      8  -0.106339D-04
      9   0.412119D-05
     10   0.299770D-05
     11  -0.257934D+00
     12  -0.202693D+00
     13  -0.202693D+00
     14  -0.268012D-04
     15  -0.219138D-04
     16   0.000000D+00
 Unable to Open any file for archive entry.
 1\1\GINC-HEL24\SP\RSVWN5 TD-FC\Gen\C1H3F1\SABYASACHI\21-Mar-2022\0\\#P
  TD(Nstates=10000) svwn5/Gen SCF(maxcycles=100) Int(Grid=ultrafine)\\x
 GDB7_00001_tier4.com\\0,1\C,0,-0.630149,-0.000001,0.000003\F,0,0.74851
 2,0.000002,-0.000001\H,0,-0.98525,0.899676,0.505416\H,0,-0.985222,-0.8
 87557,0.526417\H,0,-0.985245,-0.012128,-1.03184\\Version=EM64L-G16RevC
 .01\State=1-A\HF=-138.6209698\RMSD=6.768e-09\PG=C01 [X(C1H3F1)]\\@
 The archive entry for this job was punched.


 MODELS ARE TO BE USED, NOT BELIEVED.

    -- PARAPHRASED BY H. THIEL IN "PRINCIPLES OF ECONOMETRICS"
 Job cpu time:       0 days  0 hours  1 minutes 30.1 seconds.
 Elapsed time:       0 days  0 hours  0 minutes 11.6 seconds.
 File lengths (MBytes):  RWF=     85 Int=      0 D2E=      0 Chk=     46 Scr=      1
 Normal termination of Gaussian 16 at Mon Mar 21 20:06:02 2022.
