 Entering Gaussian System, Link 0=g16
 Input=000020.com
 Output=000020.log
 Initial command:
 /home/sabyasachi/g16/l1.exe "/scratch/sabyasachi/PBS_7975857.helios/Gau-152317.inp" -scrdir="/scratch/sabyasachi/PBS_7975857.helios/"
 Entering Link 1 = /home/sabyasachi/g16/l1.exe PID=    152325.
  
 Copyright (c) 1988-2019, Gaussian, Inc.  All Rights Reserved.
  
 This is part of the Gaussian(R) 16 program.  It is based on
 the Gaussian(R) 09 system (copyright 2009, Gaussian, Inc.),
 the Gaussian(R) 03 system (copyright 2003, Gaussian, Inc.),
 the Gaussian(R) 98 system (copyright 1998, Gaussian, Inc.),
 the Gaussian(R) 94 system (copyright 1995, Gaussian, Inc.),
 the Gaussian 92(TM) system (copyright 1992, Gaussian, Inc.),
 the Gaussian 90(TM) system (copyright 1990, Gaussian, Inc.),
 the Gaussian 88(TM) system (copyright 1988, Gaussian, Inc.),
 the Gaussian 86(TM) system (copyright 1986, Carnegie Mellon
 University), and the Gaussian 82(TM) system (copyright 1983,
 Carnegie Mellon University). Gaussian is a federally registered
 trademark of Gaussian, Inc.
  
 This software contains proprietary and confidential information,
 including trade secrets, belonging to Gaussian, Inc.
  
 This software is provided under written license and may be
 used, copied, transmitted, or stored only in accord with that
 written license.
  
 The following legend is applicable only to US Government
 contracts under FAR:
  
                    RESTRICTED RIGHTS LEGEND
  
 Use, reproduction and disclosure by the US Government is
 subject to restrictions as set forth in subparagraphs (a)
 and (c) of the Commercial Computer Software - Restricted
 Rights clause in FAR 52.227-19.
  
 Gaussian, Inc.
 340 Quinnipiac St., Bldg. 40, Wallingford CT 06492
  
  
 ---------------------------------------------------------------
 Warning -- This program may not be used in any manner that
 competes with the business of Gaussian, Inc. or will provide
 assistance to any competitor of Gaussian, Inc.  The licensee
 of this program is prohibited from giving any competitor of
 Gaussian, Inc. access to this program.  By using this program,
 the user acknowledges that Gaussian, Inc. is engaged in the
 business of creating and licensing software in the field of
 computational chemistry and represents and warrants to the
 licensee that it is not a competitor of Gaussian, Inc. and that
 it will not use this program in any manner prohibited above.
 ---------------------------------------------------------------
  

 Cite this work as:
 Gaussian 16, Revision C.01,
 M. J. Frisch, G. W. Trucks, H. B. Schlegel, G. E. Scuseria, 
 M. A. Robb, J. R. Cheeseman, G. Scalmani, V. Barone, 
 G. A. Petersson, H. Nakatsuji, X. Li, M. Caricato, A. V. Marenich, 
 J. Bloino, B. G. Janesko, R. Gomperts, B. Mennucci, H. P. Hratchian, 
 J. V. Ortiz, A. F. Izmaylov, J. L. Sonnenberg, D. Williams-Young, 
 F. Ding, F. Lipparini, F. Egidi, J. Goings, B. Peng, A. Petrone, 
 T. Henderson, D. Ranasinghe, V. G. Zakrzewski, J. Gao, N. Rega, 
 G. Zheng, W. Liang, M. Hada, M. Ehara, K. Toyota, R. Fukuda, 
 J. Hasegawa, M. Ishida, T. Nakajima, Y. Honda, O. Kitao, H. Nakai, 
 T. Vreven, K. Throssell, J. A. Montgomery, Jr., J. E. Peralta, 
 F. Ogliaro, M. J. Bearpark, J. J. Heyd, E. N. Brothers, K. N. Kudin, 
 V. N. Staroverov, T. A. Keith, R. Kobayashi, J. Normand, 
 K. Raghavachari, A. P. Rendell, J. C. Burant, S. S. Iyengar, 
 J. Tomasi, M. Cossi, J. M. Millam, M. Klene, C. Adamo, R. Cammi, 
 J. W. Ochterski, R. L. Martin, K. Morokuma, O. Farkas, 
 J. B. Foresman, and D. J. Fox, Gaussian, Inc., Wallingford CT, 2019.
 
 ******************************************
 Gaussian 16:  EM64L-G16RevC.01  3-Jul-2019
                21-Mar-2022 
 ******************************************
 %mem=64gb
 %nproc=8
 Will use up to    8 processors via shared memory.
 ---------------------------------------------------------------------
 #P TD(Nstates=10000) svwn5/Gen SCF(maxcycles=100) Int(Grid=ultrafine)
 ---------------------------------------------------------------------
 1/38=1,172=1/1;
 2/12=2,17=6,18=5,40=1/2;
 3/5=7,11=9,25=1,30=1,74=201,75=-5/1,2,3,8;
 4//1;
 5/5=2,7=100,38=5/2;
 8/6=1,10=1,108=10000/1;
 9/41=10000,42=1,70=2/14;
 6/7=2,8=2,9=2,10=2/1;
 99/5=1,9=1/99;
 Leave Link    1 at Mon Mar 21 20:08:59 2022, MaxMem=  8589934592 cpu:               0.4 elap:               0.1
 (Enter /home/sabyasachi/g16/l101.exe)
 ---------------------
 xGDB7_00001_tier4.com
 ---------------------
 Symbolic Z-matrix:
 Charge =  0 Multiplicity = 1
 6                     0.        1.16389  -0.19314 
 8                     0.        0.        0.58545 
 6                     0.       -1.16389  -0.19314 
 1                     0.        2.01548   0.48583 
 1                    -0.89039   1.2192   -0.8344 
 1                     0.89039   1.2192   -0.8344 
 1                     0.       -2.01548   0.48583 
 1                     0.89039  -1.2192   -0.8344 
 1                    -0.89039  -1.2192   -0.8344 
 
 ITRead=  0  0  0  0  0  0  0  0  0
 MicOpt= -1 -1 -1 -1 -1 -1 -1 -1 -1
 NAtoms=      9 NQM=        9 NQMF=       0 NMMI=      0 NMMIF=      0
                NMic=       0 NMicF=      0.
                    Isotopes and Nuclear Properties:
 (Nuclear quadrupole moments (NQMom) in fm**2, nuclear magnetic moments (NMagM)
  in nuclear magnetons)

  Atom         1           2           3           4           5           6           7           8           9
 IAtWgt=          12          16          12           1           1           1           1           1           1
 AtmWgt=  12.0000000  15.9949146  12.0000000   1.0078250   1.0078250   1.0078250   1.0078250   1.0078250   1.0078250
 NucSpn=           0           0           0           1           1           1           1           1           1
 AtZEff=  -0.0000000  -0.0000000  -0.0000000  -0.0000000  -0.0000000  -0.0000000  -0.0000000  -0.0000000  -0.0000000
 NQMom=    0.0000000   0.0000000   0.0000000   0.0000000   0.0000000   0.0000000   0.0000000   0.0000000   0.0000000
 NMagM=    0.0000000   0.0000000   0.0000000   2.7928460   2.7928460   2.7928460   2.7928460   2.7928460   2.7928460
 AtZNuc=   6.0000000   8.0000000   6.0000000   1.0000000   1.0000000   1.0000000   1.0000000   1.0000000   1.0000000
 Leave Link  101 at Mon Mar 21 20:09:00 2022, MaxMem=  8589934592 cpu:               0.7 elap:               0.1
 (Enter /home/sabyasachi/g16/l202.exe)
                          Input orientation:                          
 ---------------------------------------------------------------------
 Center     Atomic      Atomic             Coordinates (Angstroms)
 Number     Number       Type             X           Y           Z
 ---------------------------------------------------------------------
      1          6           0        0.000000    1.163894   -0.193136
      2          8           0        0.000000    0.000000    0.585449
      3          6           0        0.000000   -1.163894   -0.193136
      4          1           0        0.000000    2.015478    0.485827
      5          1           0       -0.890390    1.219204   -0.834404
      6          1           0        0.890390    1.219204   -0.834404
      7          1           0        0.000000   -2.015478    0.485827
      8          1           0        0.890390   -1.219204   -0.834404
      9          1           0       -0.890390   -1.219204   -0.834404
 ---------------------------------------------------------------------
                    Distance matrix (angstroms):
                    1          2          3          4          5
     1  C    0.000000
     2  O    1.400301   0.000000
     3  C    2.327788   1.400301   0.000000
     4  H    1.089122   2.017939   3.251061   0.000000
     5  H    1.098671   2.072495   2.623581   1.780409   0.000000
     6  H    1.098671   2.072495   2.623581   1.780409   1.780780
     7  H    3.251061   2.017939   1.089122   4.030956   3.605409
     8  H    2.623581   2.072495   1.098671   3.605409   3.019439
     9  H    2.623581   2.072495   1.098671   3.605409   2.438408
                    6          7          8          9
     6  H    0.000000
     7  H    3.605409   0.000000
     8  H    2.438408   1.780409   0.000000
     9  H    3.019439   1.780409   1.780780   0.000000
 Stoichiometry    C2H6O
 Framework group  C2V[C2(O),SGV(C2H2),X(H4)]
 Deg. of freedom     7
 Full point group                 C2V     NOp   4
 Largest Abelian subgroup         C2V     NOp   4
 Largest concise Abelian subgroup C2V     NOp   4
                         Standard orientation:                         
 ---------------------------------------------------------------------
 Center     Atomic      Atomic             Coordinates (Angstroms)
 Number     Number       Type             X           Y           Z
 ---------------------------------------------------------------------
      1          6           0        0.000000    1.163894   -0.193136
      2          8           0       -0.000000   -0.000000    0.585449
      3          6           0       -0.000000   -1.163894   -0.193136
      4          1           0        0.000000    2.015478    0.485827
      5          1           0       -0.890390    1.219204   -0.834404
      6          1           0        0.890390    1.219204   -0.834404
      7          1           0       -0.000000   -2.015478    0.485827
      8          1           0        0.890390   -1.219204   -0.834404
      9          1           0       -0.890390   -1.219204   -0.834404
 ---------------------------------------------------------------------
 Rotational constants (GHZ):          39.6793505          10.1303106           8.9873277
 Leave Link  202 at Mon Mar 21 20:09:00 2022, MaxMem=  8589934592 cpu:               0.1 elap:               0.0
 (Enter /home/sabyasachi/g16/l301.exe)
 General basis read from cards:  (5D, 7F)
 Centers:       4      5      6      7      8      9
 S 3 1.00
     Exponent=  1.3010701000D+01 Coefficients=  1.9682158000D-02
     Exponent=  1.9622572000D+00 Coefficients=  1.3796524000D-01
     Exponent=  4.4453796000D-01 Coefficients=  4.7831935000D-01
 S 1 1.00
     Exponent=  1.2194962000D-01 Coefficients=  1.0000000000D+00
 P 1 1.00
     Exponent=  8.0000000000D-01 Coefficients=  1.0000000000D+00
 P 1 1.00
     Exponent=  1.1704099050D-01 Coefficients=  1.0000000000D+00
 ****
 Centers:       1      3
 S 5 1.00
     Exponent=  1.2384016938D+03 Coefficients=  5.4568832082D-03
     Exponent=  1.8629004992D+02 Coefficients=  4.0638409211D-02
     Exponent=  4.2251176346D+01 Coefficients=  1.8025593888D-01
     Exponent=  1.1676557932D+01 Coefficients=  4.6315121755D-01
     Exponent=  3.5930506482D+00 Coefficients=  4.4087173314D-01
 S 1 1.00
     Exponent=  4.0245147363D-01 Coefficients=  1.0000000000D+00
 S 1 1.00
     Exponent=  1.3090182668D-01 Coefficients=  1.0000000000D+00
 S 1 1.00
     Exponent=  6.7053540256D-02 Coefficients=  1.0000000000D+00
 P 3 1.00
     Exponent=  9.4680970621D+00 Coefficients=  3.8387871728D-02
     Exponent=  2.0103545142D+00 Coefficients=  2.1117025112D-01
     Exponent=  5.4771004707D-01 Coefficients=  5.1328172114D-01
 P 1 1.00
     Exponent=  1.5268613795D-01 Coefficients=  1.0000000000D+00
 D 1 1.00
     Exponent=  8.0000000000D-01 Coefficients=  1.0000000000D+00
 D 1 1.00
     Exponent=  1.1713185140D-01 Coefficients=  1.0000000000D+00
 ****
 Centers:       2
 S 5 1.00
     Exponent=  2.2661767785D+03 Coefficients= -5.3431809926D-03
     Exponent=  3.4087010191D+02 Coefficients= -3.9890039230D-02
     Exponent=  7.7363135167D+01 Coefficients= -1.7853911985D-01
     Exponent=  2.1479644940D+01 Coefficients= -4.6427684959D-01
     Exponent=  6.6589433124D+00 Coefficients= -4.4309745172D-01
 S 1 1.00
     Exponent=  8.0975975668D-01 Coefficients=  1.0000000000D+00
 S 1 1.00
     Exponent=  2.5530772234D-01 Coefficients=  1.0000000000D+00
 S 1 1.00
     Exponent=  7.6572453250D-02 Coefficients=  1.0000000000D+00
 P 3 1.00
     Exponent=  1.7721504317D+01 Coefficients=  4.3394573193D-02
     Exponent=  3.8635505440D+00 Coefficients=  2.3094120765D-01
     Exponent=  1.0480920883D+00 Coefficients=  5.1375311064D-01
 P 1 1.00
     Exponent=  2.7641544411D-01 Coefficients=  1.0000000000D+00
 P 1 1.00
     Exponent=  6.9002276350D-02 Coefficients=  1.0000000000D+00
 D 1 1.00
     Exponent=  1.2000000000D+00 Coefficients=  1.0000000000D+00
 D 1 1.00
     Exponent=  1.7992024323D-01 Coefficients=  1.0000000000D+00
 ****
 Ernie: Thresh=  0.10000D-02 Tol=  0.10000D-05 Strict=F.
 There are    43 symmetry adapted cartesian basis functions of A1  symmetry.
 There are    18 symmetry adapted cartesian basis functions of A2  symmetry.
 There are    21 symmetry adapted cartesian basis functions of B1  symmetry.
 There are    35 symmetry adapted cartesian basis functions of B2  symmetry.
 There are    39 symmetry adapted basis functions of A1  symmetry.
 There are    18 symmetry adapted basis functions of A2  symmetry.
 There are    21 symmetry adapted basis functions of B1  symmetry.
 There are    33 symmetry adapted basis functions of B2  symmetry.
   111 basis functions,   159 primitive gaussians,   117 cartesian basis functions
    13 alpha electrons       13 beta electrons
       nuclear repulsion energy        84.2993183068 Hartrees.
 IExCor=  201 DFT=T Ex=S Corr=VWN5 ExCW=0 ScaHFX=  0.000000
 ScaDFX=  1.000000  1.000000  1.000000  1.000000 ScalE2=  1.000000  1.000000
 IRadAn=      5 IRanWt=     -1 IRanGd=            0 ICorTp=0 IEmpDi=  4
 NAtoms=    9 NActive=    9 NUniq=    4 SFac= 4.00D+00 NAtFMM=   60 NAOKFM=F Big=F
 Integral buffers will be    131072 words long.
 Regular integral format.
 Two-electron integral symmetry is turned on.
 Leave Link  301 at Mon Mar 21 20:09:00 2022, MaxMem=  8589934592 cpu:               0.6 elap:               0.1
 (Enter /home/sabyasachi/g16/l302.exe)
 NPDir=0 NMtPBC=     1 NCelOv=     1 NCel=       1 NClECP=     1 NCelD=      1
         NCelK=      1 NCelE2=     1 NClLst=     1 CellRange=     0.0.
 One-electron integrals computed using PRISM.
 One-electron integral symmetry used in STVInt
 NBasis=   111 RedAO= T EigKep=  3.93D-04  NBF=    39    18    21    33
 NBsUse=   111 1.00D-06 EigRej= -1.00D+00 NBFU=    39    18    21    33
 Precomputing XC quadrature grid using
 IXCGrd= 4 IRadAn=           5 IRanWt=          -1 IRanGd=           0 AccXCQ= 0.00D+00.
 Generated NRdTot=       0 NPtTot=           0 NUsed=           0 NTot=          32
 NSgBfM=   117   117   117   117   117 MxSgAt=     9 MxSgA2=     9.
 Leave Link  302 at Mon Mar 21 20:09:00 2022, MaxMem=  8589934592 cpu:               1.1 elap:               0.2
 (Enter /home/sabyasachi/g16/l303.exe)
 DipDrv:  MaxL=1.
 Leave Link  303 at Mon Mar 21 20:09:00 2022, MaxMem=  8589934592 cpu:               0.2 elap:               0.1
 (Enter /home/sabyasachi/g16/l308.exe)
 Leave Link  308 at Mon Mar 21 20:09:00 2022, MaxMem=  8589934592 cpu:               0.2 elap:               0.1
 (Enter /home/sabyasachi/g16/l401.exe)
 ExpMin= 6.71D-02 ExpMax= 2.27D+03 ExpMxC= 3.41D+02 IAcc=3 IRadAn=         5 AccDes= 0.00D+00
 Harris functional with IExCor=  201 and IRadAn=       5 diagonalized for initial guess.
 HarFok:  IExCor=  201 AccDes= 0.00D+00 IRadAn=         5 IDoV= 1 UseB2=F ITyADJ=14
 ICtDFT=  3500011 ScaDFX=  1.000000  1.000000  1.000000  1.000000
 FoFCou: FMM=F IPFlag=           0 FMFlag=      100000 FMFlg1=           0
         NFxFlg=           0 DoJE=T BraDBF=F KetDBF=T FulRan=T
         wScrn=  0.000000 ICntrl=       500 IOpCl=  0 I1Cent=   200000004 NGrid=           0
         NMat0=    1 NMatS0=      1 NMatT0=    0 NMatD0=    1 NMtDS0=    0 NMtDT0=    0
 Petite list used in FoFCou.
 Harris En= -153.712617865635    
 JPrj=0 DoOrth=F DoCkMO=F.
 Initial guess orbital symmetries:
       Occupied  (A1) (B2) (A1) (A1) (B2) (A1) (B2) (A1) (B1) (A2)
                 (B2) (A1) (B1)
       Virtual   (A1) (A1) (B2) (A1) (B1) (B2) (A1) (B1) (A2) (B2)
                 (A1) (A2) (B2) (B1) (B2) (A1) (A1) (B2) (A1) (B1)
                 (A1) (B1) (A1) (A2) (B1) (B2) (B2) (A2) (B2) (A2)
                 (A1) (B1) (A1) (B2) (A1) (A2) (B1) (B2) (A1) (B2)
                 (A2) (B2) (A1) (B1) (B2) (A1) (A1) (A2) (A1) (B1)
                 (B2) (A1) (B2) (A2) (A1) (B1) (B2) (A1) (A2) (B2)
                 (B2) (A1) (B1) (A2) (B2) (B1) (B1) (A2) (A1) (B2)
                 (A1) (B1) (A1) (A2) (B2) (A1) (B2) (A2) (B1) (A1)
                 (B2) (B2) (A1) (B1) (A1) (A2) (B2) (A1) (B2) (A1)
                 (A2) (B1) (B2) (B1) (A2) (A1) (A1) (B2)
 The electronic state of the initial guess is 1-A1.
 Leave Link  401 at Mon Mar 21 20:09:00 2022, MaxMem=  8589934592 cpu:               1.5 elap:               0.2
 (Enter /home/sabyasachi/g16/l502.exe)
 Keep J ints in memory in symmetry-blocked form, NReq=26879632.
 FoFCou: FMM=F IPFlag=           0 FMFlag=           0 FMFlg1=           0
         NFxFlg=           0 DoJE=F BraDBF=F KetDBF=F FulRan=T
         wScrn=  0.000000 ICntrl=       600 IOpCl=  0 I1Cent=           0 NGrid=           0
         NMat0=    1 NMatS0=   6216 NMatT0=    0 NMatD0=    1 NMtDS0=    0 NMtDT0=    0
 Petite list used in FoFCou.
 Closed shell SCF:
 Using DIIS extrapolation, IDIIS=  1040.
 NGot=  8589934592 LenX=  8585009726 LenY=  8584995596
 Requested convergence on RMS density matrix=1.00D-08 within 100 cycles.
 Requested convergence on MAX density matrix=1.00D-06.
 Requested convergence on             energy=1.00D-06.
 No special actions if energy rises.
 Integral accuracy reduced to 1.0D-05 until final iterations.

 Cycle   1  Pass 0  IDiag  1:
 E= -153.529661602214    
 DIIS: error= 3.08D-02 at cycle   1 NSaved=   1.
 NSaved= 1 IEnMin= 1 EnMin= -153.529661602214     IErMin= 1 ErrMin= 3.08D-02
 ErrMax= 3.08D-02  0.00D+00 EMaxC= 1.00D-01 BMatC= 7.44D-02 BMatP= 7.44D-02
 IDIUse=3 WtCom= 6.92D-01 WtEn= 3.08D-01
 Coeff-Com:  0.100D+01
 Coeff-En:   0.100D+01
 Coeff:      0.100D+01
 Gap=     0.172 Goal=   None    Shift=    0.000
 GapD=    0.172 DampG=1.000 DampE=0.500 DampFc=0.5000 IDamp=-1.
 Damping current iteration by 5.00D-01
 RMSDP=5.83D-03 MaxDP=1.29D-01              OVMax= 2.00D-01

 Cycle   2  Pass 0  IDiag  1:
 E= -153.552981771105     Delta-E=       -0.023320168891 Rises=F Damp=T
 DIIS: error= 9.91D-03 at cycle   2 NSaved=   2.
 NSaved= 2 IEnMin= 2 EnMin= -153.552981771105     IErMin= 2 ErrMin= 9.91D-03
 ErrMax= 9.91D-03  0.00D+00 EMaxC= 1.00D-01 BMatC= 1.04D-02 BMatP= 7.44D-02
 IDIUse=3 WtCom= 9.01D-01 WtEn= 9.91D-02
 Coeff-Com:  0.234D+00 0.766D+00
 Coeff-En:   0.353D+00 0.647D+00
 Coeff:      0.246D+00 0.754D+00
 Gap=     0.234 Goal=   None    Shift=    0.000
 RMSDP=1.34D-03 MaxDP=2.67D-02 DE=-2.33D-02 OVMax= 1.41D-01

 Cycle   3  Pass 0  IDiag  1:
 E= -153.610892599380     Delta-E=       -0.057910828275 Rises=F Damp=F
 DIIS: error= 8.21D-03 at cycle   3 NSaved=   3.
 NSaved= 3 IEnMin= 3 EnMin= -153.610892599380     IErMin= 3 ErrMin= 8.21D-03
 ErrMax= 8.21D-03  0.00D+00 EMaxC= 1.00D-01 BMatC= 5.96D-03 BMatP= 1.04D-02
 IDIUse=3 WtCom= 9.18D-01 WtEn= 8.21D-02
 Coeff-Com:  0.114D+00 0.446D+00 0.440D+00
 Coeff-En:   0.000D+00 0.000D+00 0.100D+01
 Coeff:      0.105D+00 0.409D+00 0.486D+00
 Gap=     0.218 Goal=   None    Shift=    0.000
 RMSDP=6.97D-04 MaxDP=1.96D-02 DE=-5.79D-02 OVMax= 2.28D-02

 Cycle   4  Pass 0  IDiag  1:
 E= -153.614529928717     Delta-E=       -0.003637329337 Rises=F Damp=F
 DIIS: error= 3.36D-03 at cycle   4 NSaved=   4.
 NSaved= 4 IEnMin= 4 EnMin= -153.614529928717     IErMin= 4 ErrMin= 3.36D-03
 ErrMax= 3.36D-03  0.00D+00 EMaxC= 1.00D-01 BMatC= 1.33D-03 BMatP= 5.96D-03
 IDIUse=3 WtCom= 9.66D-01 WtEn= 3.36D-02
 Coeff-Com:  0.336D-01 0.139D+00 0.321D+00 0.506D+00
 Coeff-En:   0.000D+00 0.000D+00 0.205D+00 0.795D+00
 Coeff:      0.325D-01 0.134D+00 0.317D+00 0.516D+00
 Gap=     0.222 Goal=   None    Shift=    0.000
 RMSDP=2.28D-04 MaxDP=7.05D-03 DE=-3.64D-03 OVMax= 6.77D-03

 Cycle   5  Pass 0  IDiag  1:
 E= -153.615477590868     Delta-E=       -0.000947662152 Rises=F Damp=F
 DIIS: error= 3.73D-04 at cycle   5 NSaved=   5.
 NSaved= 5 IEnMin= 5 EnMin= -153.615477590868     IErMin= 5 ErrMin= 3.73D-04
 ErrMax= 3.73D-04  0.00D+00 EMaxC= 1.00D-01 BMatC= 1.38D-05 BMatP= 1.33D-03
 IDIUse=3 WtCom= 9.96D-01 WtEn= 3.73D-03
 Coeff-Com:  0.403D-02 0.142D-01 0.766D-01 0.181D+00 0.724D+00
 Coeff-En:   0.000D+00 0.000D+00 0.000D+00 0.000D+00 0.100D+01
 Coeff:      0.402D-02 0.142D-01 0.763D-01 0.181D+00 0.725D+00
 Gap=     0.222 Goal=   None    Shift=    0.000
 RMSDP=4.84D-05 MaxDP=5.48D-04 DE=-9.48D-04 OVMax= 1.04D-03

 Cycle   6  Pass 0  IDiag  1:
 E= -153.615489314953     Delta-E=       -0.000011724085 Rises=F Damp=F
 DIIS: error= 5.67D-05 at cycle   6 NSaved=   6.
 NSaved= 6 IEnMin= 6 EnMin= -153.615489314953     IErMin= 6 ErrMin= 5.67D-05
 ErrMax= 5.67D-05  0.00D+00 EMaxC= 1.00D-01 BMatC= 1.99D-07 BMatP= 1.38D-05
 IDIUse=1 WtCom= 1.00D+00 WtEn= 0.00D+00
 Coeff-Com:  0.885D-03 0.204D-02 0.205D-01 0.520D-01 0.254D+00 0.670D+00
 Coeff:      0.885D-03 0.204D-02 0.205D-01 0.520D-01 0.254D+00 0.670D+00
 Gap=     0.222 Goal=   None    Shift=    0.000
 RMSDP=7.47D-06 MaxDP=8.46D-05 DE=-1.17D-05 OVMax= 1.67D-04

 Initial convergence to 1.0D-05 achieved.  Increase integral accuracy.
 Cycle   7  Pass 1  IDiag  1:
 E= -153.615501462879     Delta-E=       -0.000012147926 Rises=F Damp=F
 DIIS: error= 7.11D-06 at cycle   1 NSaved=   1.
 NSaved= 1 IEnMin= 1 EnMin= -153.615501462879     IErMin= 1 ErrMin= 7.11D-06
 ErrMax= 7.11D-06  0.00D+00 EMaxC= 1.00D-01 BMatC= 4.89D-09 BMatP= 4.89D-09
 IDIUse=1 WtCom= 1.00D+00 WtEn= 0.00D+00
 Coeff-Com:  0.100D+01
 Coeff:      0.100D+01
 Gap=     0.222 Goal=   None    Shift=    0.000
 RMSDP=7.47D-06 MaxDP=8.46D-05 DE=-1.21D-05 OVMax= 4.83D-05

 Cycle   8  Pass 1  IDiag  1:
 E= -153.615501465794     Delta-E=       -0.000000002915 Rises=F Damp=F
 DIIS: error= 5.97D-06 at cycle   2 NSaved=   2.
 NSaved= 2 IEnMin= 2 EnMin= -153.615501465794     IErMin= 2 ErrMin= 5.97D-06
 ErrMax= 5.97D-06  0.00D+00 EMaxC= 1.00D-01 BMatC= 3.49D-09 BMatP= 4.89D-09
 IDIUse=1 WtCom= 1.00D+00 WtEn= 0.00D+00
 Coeff-Com:  0.453D+00 0.547D+00
 Coeff:      0.453D+00 0.547D+00
 Gap=     0.222 Goal=   None    Shift=    0.000
 RMSDP=8.46D-07 MaxDP=1.15D-05 DE=-2.92D-09 OVMax= 2.18D-05

 Cycle   9  Pass 1  IDiag  1:
 E= -153.615501469021     Delta-E=       -0.000000003227 Rises=F Damp=F
 DIIS: error= 3.04D-06 at cycle   3 NSaved=   3.
 NSaved= 3 IEnMin= 3 EnMin= -153.615501469021     IErMin= 3 ErrMin= 3.04D-06
 ErrMax= 3.04D-06  0.00D+00 EMaxC= 1.00D-01 BMatC= 9.20D-10 BMatP= 3.49D-09
 IDIUse=1 WtCom= 1.00D+00 WtEn= 0.00D+00
 Coeff-Com:  0.225D+00 0.352D+00 0.423D+00
 Coeff:      0.225D+00 0.352D+00 0.423D+00
 Gap=     0.222 Goal=   None    Shift=    0.000
 RMSDP=2.07D-07 MaxDP=6.91D-06 DE=-3.23D-09 OVMax= 7.18D-06

 Cycle  10  Pass 1  IDiag  1:
 E= -153.615501469639     Delta-E=       -0.000000000618 Rises=F Damp=F
 DIIS: error= 7.48D-07 at cycle   4 NSaved=   4.
 NSaved= 4 IEnMin= 4 EnMin= -153.615501469639     IErMin= 4 ErrMin= 7.48D-07
 ErrMax= 7.48D-07  0.00D+00 EMaxC= 1.00D-01 BMatC= 4.67D-11 BMatP= 9.20D-10
 IDIUse=1 WtCom= 1.00D+00 WtEn= 0.00D+00
 Coeff-Com:  0.349D-01 0.844D-01 0.214D+00 0.666D+00
 Coeff:      0.349D-01 0.844D-01 0.214D+00 0.666D+00
 Gap=     0.222 Goal=   None    Shift=    0.000
 RMSDP=5.93D-08 MaxDP=1.54D-06 DE=-6.18D-10 OVMax= 1.96D-06

 Cycle  11  Pass 1  IDiag  1:
 E= -153.615501469669     Delta-E=       -0.000000000030 Rises=F Damp=F
 DIIS: error= 2.45D-07 at cycle   5 NSaved=   5.
 NSaved= 5 IEnMin= 5 EnMin= -153.615501469669     IErMin= 5 ErrMin= 2.45D-07
 ErrMax= 2.45D-07  0.00D+00 EMaxC= 1.00D-01 BMatC= 4.59D-12 BMatP= 4.67D-11
 IDIUse=1 WtCom= 1.00D+00 WtEn= 0.00D+00
 Coeff-Com:  0.662D-02 0.263D-01 0.921D-01 0.372D+00 0.503D+00
 Coeff:      0.662D-02 0.263D-01 0.921D-01 0.372D+00 0.503D+00
 Gap=     0.222 Goal=   None    Shift=    0.000
 RMSDP=2.22D-08 MaxDP=4.54D-07 DE=-3.02D-11 OVMax= 6.46D-07

 Cycle  12  Pass 1  IDiag  1:
 E= -153.615501469673     Delta-E=       -0.000000000004 Rises=F Damp=F
 DIIS: error= 3.45D-08 at cycle   6 NSaved=   6.
 NSaved= 6 IEnMin= 6 EnMin= -153.615501469673     IErMin= 6 ErrMin= 3.45D-08
 ErrMax= 3.45D-08  0.00D+00 EMaxC= 1.00D-01 BMatC= 1.64D-13 BMatP= 4.59D-12
 IDIUse=1 WtCom= 1.00D+00 WtEn= 0.00D+00
 Coeff-Com: -0.690D-04 0.527D-02 0.262D-01 0.120D+00 0.227D+00 0.622D+00
 Coeff:     -0.690D-04 0.527D-02 0.262D-01 0.120D+00 0.227D+00 0.622D+00
 Gap=     0.222 Goal=   None    Shift=    0.000
 RMSDP=4.39D-09 MaxDP=9.62D-08 DE=-4.32D-12 OVMax= 1.12D-07

 SCF Done:  E(RS-VWN5) =  -153.615501470     A.U. after   12 cycles
            NFock= 12  Conv=0.44D-08     -V/T= 2.0060
 KE= 1.526964828921D+02 PE=-5.287967490143D+02 EE= 1.381854463457D+02
 Leave Link  502 at Mon Mar 21 20:09:01 2022, MaxMem=  8589934592 cpu:               6.5 elap:               0.9
 (Enter /home/sabyasachi/g16/l801.exe)
 DoSCS=F DFT=T ScalE2(SS,OS)=  1.000000  1.000000
 ExpMin= 6.71D-02 ExpMax= 2.27D+03 ExpMxC= 3.41D+02 IAcc=3 IRadAn=         5 AccDes= 0.00D+00
 HarFok:  IExCor=  205 AccDes= 0.00D+00 IRadAn=         5 IDoV=-2 UseB2=F ITyADJ=14
 ICtDFT= 12500011 ScaDFX=  1.000000  1.000000  1.000000  1.000000
 Largest valence mixing into a core orbital is  8.54D-05
 Largest core mixing into a valence orbital is  1.53D-06
 Range of M.O.s used for correlation:     4   111
 NBasis=   111 NAE=    13 NBE=    13 NFC=     3 NFV=     0
 NROrb=    108 NOA=    10 NOB=    10 NVA=    98 NVB=    98

 **** Warning!!: The largest alpha MO coefficient is  0.15573175D+02

 Leave Link  801 at Mon Mar 21 20:09:01 2022, MaxMem=  8589934592 cpu:               0.6 elap:               0.1
 (Enter /home/sabyasachi/g16/l914.exe)
 RHF ground state
 Keep J ints in memory in symmetry-blocked form, NReq=1089032124.
 FoFCou: FMM=F IPFlag=           0 FMFlag=           0 FMFlg1=           0
         NFxFlg=           0 DoJE=F BraDBF=F KetDBF=F FulRan=T
         wScrn=  0.000000 ICntrl=       600 IOpCl=  0 I1Cent=           0 NGrid=           0
         NMat0=    1 NMatS0=   6216 NMatT0=    0 NMatD0=    1 NMtDS0=    0 NMtDT0=    0
 Petite list used in FoFCou.
 MDV=  8589934592 DFT=T DoStab=F Mixed=F DoRPA=T DoScal=T NonHer=F
 Making orbital integer symmetry assigments:
 Orbital symmetries:
       Occupied  (A1) (B2) (A1) (A1) (B2) (A1) (B2) (A1) (B1) (A2)
                 (B2) (A1) (B1)
       Virtual   (A1) (B2) (A1) (B1) (A1) (B2) (A1) (B1) (A2) (B2)
                 (A1) (A2) (B2) (B1) (B2) (A1) (A1) (B2) (A1) (B1)
                 (A1) (A1) (B1) (B1) (A2) (B2) (A2) (B2) (A2) (B2)
                 (A1) (B1) (B2) (A1) (A1) (A2) (B2) (B1) (A1) (B2)
                 (A2) (B2) (A1) (B1) (B2) (A1) (A2) (A1) (A1) (B1)
                 (B2) (B2) (A1) (A2) (A1) (B1) (B2) (A1) (A2) (B2)
                 (B2) (A1) (B1) (A2) (B2) (B1) (B1) (A2) (A1) (B2)
                 (A1) (B1) (A1) (A2) (B2) (A1) (B2) (A2) (B1) (A1)
                 (B2) (B2) (A1) (B1) (A2) (A1) (B2) (A1) (B2) (A1)
                 (A2) (B1) (B2) (B1) (A2) (A1) (A1) (B2)
   980 initial guesses have been made.
 Convergence on wavefunction:    0.001000000000000
 Davidson Disk Diagonalization:  ConvIn= 1.00D-03 SkipCon=T Conv= 1.00D-03.
 Max sub-space:  3920 roots to seek:  1960 dimension of matrix:         1960
 *** WARNING: Number of orthogonal guesses is          980
 Iteration     1 Dimension   980 NMult     0 NNew    980
 CISAX will form   980 AO SS matrices at one time.
 NMat=   980 NSing=   980 JSym2X=-1.
 New state      5 was old state      6
 New state      6 was old state      5
 New state     26 was old state     27
 New state     27 was old state     26
 New state     29 was old state     30
 New state     30 was old state     29
 New state     32 was old state     33
 New state     33 was old state     32
 New state     37 was old state     38
 New state     38 was old state     39
 New state     39 was old state     41
 New state     41 was old state     42
 New state     42 was old state     37
 New state     44 was old state     45
 New state     45 was old state     44
 New state     47 was old state     48
 New state     48 was old state     47
 New state     51 was old state     54
 New state     53 was old state     51
 New state     54 was old state     53
 New state     56 was old state     57
 New state     57 was old state     58
 New state     58 was old state     56
 New state     59 was old state     61
 New state     61 was old state     64
 New state     62 was old state     59
 New state     63 was old state     65
 New state     64 was old state     62
 New state     65 was old state     63
 New state     66 was old state     68
 New state     67 was old state     70
 New state     68 was old state     71
 New state     69 was old state     74
 New state     70 was old state     75
 New state     71 was old state     73
 New state     73 was old state     66
 New state     74 was old state     67
 New state     75 was old state     69
 New state     76 was old state     77
 New state     77 was old state     76
 New state     78 was old state     80
 New state     79 was old state     78
 New state     80 was old state     79
 New state     83 was old state     86
 New state     84 was old state     88
 New state     85 was old state     87
 New state     86 was old state     83
 New state     87 was old state     89
 New state     88 was old state     91
 New state     89 was old state     84
 New state     90 was old state     92
 New state     91 was old state     93
 New state     92 was old state     85
 New state     93 was old state     94
 New state     94 was old state     90
 New state     95 was old state     96
 New state     96 was old state     95
 New state     97 was old state     99
 New state     98 was old state    101
 New state     99 was old state     97
 New state    100 was old state    102
 New state    101 was old state    100
 New state    102 was old state    107
 New state    103 was old state    104
 New state    104 was old state    106
 New state    105 was old state    109
 New state    106 was old state     98
 New state    107 was old state    108
 New state    108 was old state    110
 New state    109 was old state    111
 New state    110 was old state    103
 New state    111 was old state    105
 New state    113 was old state    114
 New state    114 was old state    113
 New state    115 was old state    116
 New state    116 was old state    117
 New state    117 was old state    115
 New state    122 was old state    123
 New state    123 was old state    122
 New state    124 was old state    127
 New state    125 was old state    126
 New state    126 was old state    129
 New state    127 was old state    128
 New state    128 was old state    125
 New state    129 was old state    130
 New state    130 was old state    131
 New state    131 was old state    133
 New state    132 was old state    136
 New state    133 was old state    135
 New state    135 was old state    132
 New state    136 was old state    124
 New state    138 was old state    140
 New state    139 was old state    138
 New state    140 was old state    141
 New state    141 was old state    144
 New state    142 was old state    145
 New state    144 was old state    146
 New state    145 was old state    142
 New state    146 was old state    139
 New state    148 was old state    149
 New state    149 was old state    148
 New state    151 was old state    152
 New state    152 was old state    153
 New state    153 was old state    151
 New state    154 was old state    155
 New state    155 was old state    157
 New state    157 was old state    160
 New state    158 was old state    162
 New state    159 was old state    164
 New state    160 was old state    165
 New state    162 was old state    158
 New state    163 was old state    169
 New state    164 was old state    163
 New state    165 was old state    166
 New state    166 was old state    167
 New state    167 was old state    168
 New state    168 was old state    170
 New state    169 was old state    159
 New state    170 was old state    175
 New state    171 was old state    172
 New state    172 was old state    173
 New state    173 was old state    154
 New state    175 was old state    176
 New state    176 was old state    178
 New state    178 was old state    181
 New state    179 was old state    180
 New state    180 was old state    171
 New state    181 was old state    183
 New state    182 was old state    179
 New state    183 was old state    186
 New state    185 was old state    182
 New state    186 was old state    185
 New state    187 was old state    188
 New state    188 was old state    191
 New state    189 was old state    197
 New state    190 was old state    193
 New state    191 was old state    194
 New state    192 was old state    196
 New state    193 was old state    198
 New state    194 was old state    200
 New state    195 was old state    192
 New state    196 was old state    190
 New state    197 was old state    203
 New state    198 was old state    207
 New state    199 was old state    206
 New state    200 was old state    205
 New state    202 was old state    199
 New state    203 was old state    195
 New state    204 was old state    202
 New state    205 was old state    208
 New state    206 was old state    211
 New state    207 was old state    209
 New state    208 was old state    204
 New state    209 was old state    210
 New state    210 was old state    212
 New state    211 was old state    213
 New state    212 was old state    214
 New state    213 was old state    217
 New state    214 was old state    216
 New state    215 was old state    218
 New state    216 was old state    221
 New state    217 was old state    244
 New state    218 was old state    219
 New state    219 was old state    215
 New state    220 was old state    222
 New state    221 was old state    220
 New state    222 was old state    224
 New state    223 was old state    225
 New state    224 was old state    226
 New state    225 was old state    227
 New state    226 was old state    228
 New state    227 was old state    237
 New state    228 was old state    223
 New state    229 was old state    231
 New state    230 was old state    232
 New state    231 was old state    230
 New state    232 was old state    229
 New state    234 was old state    235
 New state    235 was old state    234
 New state    236 was old state    238
 New state    237 was old state    236
 New state    238 was old state    242
 New state    239 was old state    241
 New state    241 was old state    243
 New state    242 was old state    239
 New state    243 was old state    246
 New state    244 was old state    245
 New state    245 was old state    259
 New state    246 was old state    247
 New state    247 was old state    252
 New state    248 was old state    249
 New state    249 was old state    250
 New state    250 was old state    251
 New state    251 was old state    255
 New state    252 was old state    254
 New state    253 was old state    257
 New state    254 was old state    248
 New state    255 was old state    260
 New state    256 was old state    263
 New state    257 was old state    261
 New state    258 was old state    253
 New state    259 was old state    256
 New state    260 was old state    258
 New state    261 was old state    262
 New state    262 was old state    265
 New state    263 was old state    264
 New state    264 was old state    266
 New state    265 was old state    268
 New state    266 was old state    287
 New state    267 was old state    269
 New state    268 was old state    270
 New state    269 was old state    267
 New state    270 was old state    271
 New state    271 was old state    273
 New state    273 was old state    274
 New state    274 was old state    276
 New state    276 was old state    277
 New state    277 was old state    279
 New state    278 was old state    281
 New state    279 was old state    278
 New state    281 was old state    283
 New state    282 was old state    286
 New state    283 was old state    282
 New state    284 was old state    285
 New state    285 was old state    289
 New state    286 was old state    288
 New state    287 was old state    290
 New state    288 was old state    291
 New state    289 was old state    295
 New state    290 was old state    292
 New state    291 was old state    294
 New state    292 was old state    293
 New state    293 was old state    297
 New state    294 was old state    296
 New state    295 was old state    301
 New state    296 was old state    299
 New state    297 was old state    298
 New state    298 was old state    300
 New state    299 was old state    305
 New state    300 was old state    306
 New state    301 was old state    302
 New state    302 was old state    304
 New state    303 was old state    307
 New state    304 was old state    323
 New state    305 was old state    312
 New state    306 was old state    308
 New state    307 was old state    303
 New state    308 was old state    310
 New state    310 was old state    311
 New state    311 was old state    319
 New state    312 was old state    315
 New state    313 was old state    316
 New state    314 was old state    317
 New state    315 was old state    325
 New state    316 was old state    321
 New state    317 was old state    318
 New state    318 was old state    320
 New state    319 was old state    326
 New state    320 was old state    328
 New state    321 was old state    322
 New state    322 was old state    327
 New state    323 was old state    324
 New state    324 was old state    329
 New state    325 was old state    333
 New state    326 was old state    332
 New state    327 was old state    334
 New state    328 was old state    330
 New state    329 was old state    313
 New state    330 was old state    337
 New state    331 was old state    336
 New state    332 was old state    335
 New state    333 was old state    331
 New state    334 was old state    339
 New state    335 was old state    338
 New state    336 was old state    341
 New state    337 was old state    344
 New state    338 was old state    340
 New state    339 was old state    348
 New state    340 was old state    342
 New state    341 was old state    343
 New state    342 was old state    345
 New state    343 was old state    346
 New state    344 was old state    347
 New state    345 was old state    350
 New state    346 was old state    351
 New state    347 was old state    349
 New state    348 was old state    353
 New state    349 was old state    354
 New state    350 was old state    352
 New state    351 was old state    372
 New state    352 was old state    364
 New state    353 was old state    356
 New state    354 was old state    357
 New state    355 was old state    358
 New state    356 was old state    360
 New state    357 was old state    367
 New state    358 was old state    361
 New state    359 was old state    355
 New state    360 was old state    359
 New state    361 was old state    362
 New state    362 was old state    366
 New state    363 was old state    369
 New state    364 was old state    365
 New state    365 was old state    363
 New state    366 was old state    368
 New state    367 was old state    370
 New state    368 was old state    373
 New state    369 was old state    375
 New state    370 was old state    371
 New state    371 was old state    374
 No map to state    372
 New state    373 was old state    380
 New state    374 was old state    377
 New state    375 was old state    379
 New state    376 was old state    378
 New state    377 was old state    376
 New state    378 was old state    385
 New state    379 was old state    395
 New state    380 was old state    381
 New state    381 was old state    384
 New state    383 was old state    391
 New state    384 was old state    383
 New state    385 was old state    386
 New state    386 was old state    387
 New state    387 was old state    389
 New state    388 was old state    390
 New state    389 was old state    393
 New state    390 was old state    392
 New state    391 was old state    394
 New state    392 was old state    400
 New state    393 was old state    396
 New state    394 was old state    398
 New state    395 was old state    405
 New state    396 was old state    388
 New state    398 was old state    399
 New state    399 was old state    401
 New state    400 was old state    402
 New state    401 was old state    404
 New state    402 was old state    411
 New state    404 was old state    406
 New state    405 was old state    407
 New state    406 was old state    409
 New state    407 was old state    410
 New state    408 was old state    413
 New state    409 was old state    412
 New state    410 was old state    408
 New state    411 was old state    414
 New state    412 was old state    416
 New state    413 was old state    415
 New state    414 was old state    417
 No map to state    415
 No map to state    416
 New state    417 was old state    418
 New state    418 was old state    442
 New state    423 was old state    425
 New state    424 was old state    429
 New state    425 was old state    426
 New state    426 was old state    428
 New state    427 was old state    424
 New state    428 was old state    431
 New state    429 was old state    430
 New state    430 was old state    427
 New state    431 was old state    432
 New state    432 was old state    434
 New state    433 was old state    436
 New state    434 was old state    433
 New state    435 was old state    439
 New state    436 was old state    437
 New state    437 was old state    438
 New state    438 was old state    435
 New state    439 was old state    443
 New state    440 was old state    441
 New state    441 was old state    444
 New state    442 was old state    423
 New state    443 was old state    440
 New state    444 was old state    446
 New state    445 was old state    447
 New state    446 was old state    445
 New state    447 was old state    449
 New state    448 was old state    450
 New state    449 was old state    451
 New state    450 was old state    448
 New state    451 was old state    455
 New state    453 was old state    456
 New state    455 was old state    464
 New state    456 was old state    458
 New state    457 was old state    459
 New state    458 was old state    462
 New state    459 was old state    460
 New state    460 was old state    457
 New state    461 was old state    466
 New state    462 was old state    465
 New state    463 was old state    467
 New state    464 was old state    453
 New state    465 was old state    468
 New state    466 was old state    463
 New state    467 was old state    470
 New state    468 was old state    471
 New state    470 was old state    474
 New state    471 was old state    475
 New state    472 was old state    476
 New state    474 was old state    504
 New state    475 was old state    478
 New state    476 was old state    472
 New state    477 was old state    461
 New state    478 was old state    481
 New state    479 was old state    480
 New state    480 was old state    484
 New state    481 was old state    482
 New state    482 was old state    477
 New state    484 was old state    485
 New state    485 was old state    487
 New state    486 was old state    489
 New state    487 was old state    490
 New state    489 was old state    479
 New state    490 was old state    486
 New state    491 was old state    493
 New state    492 was old state    494
 New state    493 was old state    495
 New state    494 was old state    496
 New state    495 was old state    492
 New state    496 was old state    499
 New state    499 was old state    501
 New state    500 was old state    502
 New state    501 was old state    500
 New state    502 was old state    505
 New state    503 was old state    515
 New state    504 was old state    503
 New state    505 was old state    506
 New state    506 was old state    507
 New state    507 was old state    509
 New state    508 was old state    511
 New state    509 was old state    512
 New state    510 was old state    513
 New state    511 was old state    508
 New state    512 was old state    510
 New state    513 was old state    514
 New state    514 was old state    516
 New state    515 was old state    518
 New state    516 was old state    527
 New state    517 was old state    522
 New state    518 was old state    519
 New state    519 was old state    521
 New state    521 was old state    524
 New state    522 was old state    523
 New state    523 was old state    528
 New state    524 was old state    525
 New state    525 was old state    526
 New state    526 was old state    541
 New state    527 was old state    529
 New state    528 was old state    530
 New state    529 was old state    531
 New state    530 was old state    535
 New state    531 was old state    532
 New state    532 was old state    534
 New state    534 was old state    491
 New state    535 was old state    537
 New state    537 was old state    539
 New state    539 was old state    543
 New state    541 was old state    542
 New state    542 was old state    544
 New state    543 was old state    553
 New state    544 was old state    548
 New state    548 was old state    550
 New state    549 was old state    551
 New state    550 was old state    552
 New state    551 was old state    554
 New state    552 was old state    555
 New state    553 was old state    549
 New state    554 was old state    556
 New state    555 was old state    557
 New state    556 was old state    561
 New state    557 was old state    560
 New state    558 was old state    562
 New state    560 was old state    558
 New state    561 was old state    563
 New state    562 was old state    567
 New state    563 was old state    565
 New state    565 was old state    566
 New state    566 was old state    569
 New state    567 was old state    568
 New state    568 was old state    570
 New state    569 was old state    571
 New state    570 was old state    573
 New state    571 was old state    575
 New state    573 was old state    576
 New state    575 was old state    577
 New state    576 was old state    579
 New state    577 was old state    578
 New state    578 was old state    581
 New state    579 was old state    586
 New state    581 was old state    585
 New state    583 was old state    584
 New state    584 was old state    589
 New state    585 was old state    587
 New state    586 was old state    588
 New state    587 was old state    590
 New state    588 was old state    591
 New state    589 was old state    583
 New state    590 was old state    593
 No map to state    591
 New state    592 was old state    594
 New state    593 was old state    592
 New state    594 was old state    595
 New state    595 was old state    596
 New state    596 was old state    597
 New state    597 was old state    598
 New state    598 was old state    599
 New state    599 was old state    600
 New state    600 was old state    602
 New state    602 was old state    603
 New state    603 was old state    605
 New state    605 was old state    608
 New state    606 was old state    607
 New state    607 was old state    606
 New state    608 was old state    618
 New state    609 was old state    610
 New state    610 was old state    609
 New state    614 was old state    615
 New state    615 was old state    614
 New state    616 was old state    620
 New state    617 was old state    619
 New state    618 was old state    617
 New state    619 was old state    623
 New state    620 was old state    621
 New state    621 was old state    616
 New state    622 was old state    624
 New state    623 was old state    625
 New state    624 was old state    622
 New state    625 was old state    626
 New state    626 was old state    627
 New state    627 was old state    628
 New state    628 was old state    630
 New state    630 was old state    632
 New state    631 was old state    633
 New state    632 was old state    631
 New state    633 was old state    634
 New state    634 was old state    635
 New state    635 was old state    636
 New state    636 was old state    637
 New state    637 was old state    640
 New state    638 was old state    643
 New state    640 was old state    641
 New state    641 was old state    642
 New state    642 was old state    638
 New state    643 was old state    649
 New state    649 was old state    654
 New state    650 was old state    652
 New state    651 was old state    653
 New state    652 was old state    651
 New state    653 was old state    655
 No map to state    654
 New state    655 was old state    650
 New state    658 was old state    659
 New state    659 was old state    661
 New state    660 was old state    658
 New state    661 was old state    660
 New state    664 was old state    665
 New state    665 was old state    670
 New state    666 was old state    668
 New state    667 was old state    666
 New state    668 was old state    671
 New state    669 was old state    667
 New state    670 was old state    669
 New state    671 was old state    664
 New state    672 was old state    674
 New state    673 was old state    675
 New state    674 was old state    672
 New state    675 was old state    677
 New state    676 was old state    673
 New state    677 was old state    676
 New state    678 was old state    679
 New state    679 was old state    678
 New state    682 was old state    683
 New state    683 was old state    682
 New state    684 was old state    685
 New state    685 was old state    684
 New state    688 was old state    690
 New state    689 was old state    692
 New state    690 was old state    689
 New state    691 was old state    688
 New state    692 was old state    694
 New state    694 was old state    691
 New state    697 was old state    699
 New state    698 was old state    697
 New state    699 was old state    701
 New state    701 was old state    698
 New state    702 was old state    703
 New state    703 was old state    702
 New state    707 was old state    708
 New state    708 was old state    707
 New state    709 was old state    710
 New state    710 was old state    712
 New state    711 was old state    714
 New state    712 was old state    711
 New state    714 was old state    715
 New state    715 was old state    716
 New state    716 was old state    717
 New state    717 was old state    709
 New state    727 was old state    728
 New state    728 was old state    727
 New state    729 was old state    730
 New state    730 was old state    729
 New state    731 was old state    732
 New state    732 was old state    731
 New state    733 was old state    734
 New state    734 was old state    735
 New state    735 was old state    736
 New state    736 was old state    733
 New state    737 was old state    738
 New state    738 was old state    737
 New state    739 was old state    740
 New state    740 was old state    739
 New state    742 was old state    744
 New state    744 was old state    747
 New state    746 was old state    742
 New state    747 was old state    750
 New state    748 was old state    749
 New state    749 was old state    751
 New state    750 was old state    746
 New state    751 was old state    753
 New state    752 was old state    748
 New state    753 was old state    756
 New state    755 was old state    752
 New state    756 was old state    757
 New state    757 was old state    758
 New state    758 was old state    759
 New state    759 was old state    755
 New state    760 was old state    762
 New state    761 was old state    764
 New state    762 was old state    763
 New state    763 was old state    761
 New state    764 was old state    766
 New state    765 was old state    767
 New state    766 was old state    760
 New state    767 was old state    765
 New state    770 was old state    772
 New state    771 was old state    770
 New state    772 was old state    773
 New state    773 was old state    771
 New state    778 was old state    779
 New state    779 was old state    778
 New state    790 was old state    791
 New state    791 was old state    790
 New state    794 was old state    796
 New state    795 was old state    794
 New state    796 was old state    795
 New state    798 was old state    802
 New state    799 was old state    801
 New state    801 was old state    798
 New state    802 was old state    799
 New state    806 was old state    807
 New state    807 was old state    808
 New state    808 was old state    806
 New state    809 was old state    810
 New state    810 was old state    811
 New state    811 was old state    812
 New state    812 was old state    809
 New state    813 was old state    814
 New state    814 was old state    813
 New state    816 was old state    817
 New state    817 was old state    818
 New state    818 was old state    819
 New state    819 was old state    820
 New state    820 was old state    821
 New state    821 was old state    823
 New state    823 was old state    824
 New state    824 was old state    825
 New state    825 was old state    826
 New state    826 was old state    827
 New state    827 was old state    816
 New state    829 was old state    830
 New state    830 was old state    831
 New state    831 was old state    832
 New state    832 was old state    829
 New state    833 was old state    835
 New state    834 was old state    837
 New state    835 was old state    833
 New state    837 was old state    839
 New state    838 was old state    841
 New state    839 was old state    842
 New state    840 was old state    838
 New state    841 was old state    834
 New state    842 was old state    840
 New state    847 was old state    849
 New state    848 was old state    847
 New state    849 was old state    848
 New state    850 was old state    851
 New state    851 was old state    850
 New state    852 was old state    853
 New state    853 was old state    852
 New state    856 was old state    858
 New state    858 was old state    856
 New state    862 was old state    863
 New state    863 was old state    862
 New state    866 was old state    867
 New state    867 was old state    866
 New state    872 was old state    873
 New state    873 was old state    872
 New state    874 was old state    875
 New state    875 was old state    877
 New state    876 was old state    878
 New state    877 was old state    874
 New state    878 was old state    879
 New state    879 was old state    880
 New state    880 was old state    876
 New state    882 was old state    883
 New state    883 was old state    882
 New state    884 was old state    885
 New state    885 was old state    884
 New state    887 was old state    888
 New state    888 was old state    890
 New state    890 was old state    891
 New state    891 was old state    892
 New state    892 was old state    893
 New state    893 was old state    895
 New state    895 was old state    896
 New state    896 was old state    887
 New state    897 was old state    898
 New state    898 was old state    897
 New state    900 was old state    901
 New state    901 was old state    902
 New state    902 was old state    903
 New state    903 was old state    908
 New state    905 was old state    900
 New state    906 was old state    907
 New state    907 was old state    905
 New state    908 was old state    906
 New state    909 was old state    911
 New state    910 was old state    909
 New state    911 was old state    914
 New state    912 was old state    910
 New state    913 was old state    917
 New state    914 was old state    912
 New state    915 was old state    918
 New state    916 was old state    915
 New state    917 was old state    923
 New state    918 was old state    916
 New state    922 was old state    924
 New state    923 was old state    922
 New state    924 was old state    925
 New state    925 was old state    927
 New state    926 was old state    936
 New state    927 was old state    928
 New state    928 was old state    929
 New state    929 was old state    930
 New state    930 was old state    931
 New state    931 was old state    932
 New state    932 was old state    926
 New state    933 was old state    934
 New state    934 was old state    933
 New state    936 was old state    937
 New state    937 was old state    939
 New state    939 was old state    941
 New state    940 was old state    942
 New state    941 was old state    944
 New state    942 was old state    940
 New state    943 was old state    945
 New state    944 was old state    946
 New state    945 was old state    943
 New state    946 was old state    948
 New state    947 was old state    949
 New state    948 was old state    947
 New state    949 was old state    950
 New state    950 was old state    951
 New state    951 was old state    957
 New state    957 was old state    958
 New state    958 was old state    960
 New state    960 was old state    961
 No map to state    961
 New state    962 was old state    964
 New state    963 was old state    965
 New state    964 was old state    963
 New state    965 was old state    962
 New state    970 was old state    971
 New state    971 was old state    972
 New state    972 was old state    970
 New state    975 was old state    976
 New state    976 was old state    975
 Excitation Energies [eV] at current iteration:
 Root      1 :     6.063740220526854
 Root      2 :     6.955318129886899
 Root      3 :     7.243168896673342
 Root      4 :     7.712571023054196
 Root      5 :     7.738984951583631
 Root      6 :     7.860734819007310
 Root      7 :     8.423242845660500
 Root      8 :     8.665842570751479
 Root      9 :     8.704328431599766
 Root     10 :     8.854101406737373
 Root     11 :     9.037647455069708
 Root     12 :     9.113609798429595
 Root     13 :     9.303459889787328
 Root     14 :     9.414157751896733
 Root     15 :     9.481671530615948
 Root     16 :     9.726868331084786
 Root     17 :     9.901400187691635
 Root     18 :    10.049369517731880
 Root     19 :    10.121849037882730
 Root     20 :    10.199887451704460
 Root     21 :    10.225265629670750
 Root     22 :    10.390842231751340
 Root     23 :    10.472897244776330
 Root     24 :    10.500154393705860
 Root     25 :    10.642987941444040
 Root     26 :    10.723684346030060
 Root     27 :    10.800752203318640
 Root     28 :    10.936763704525510
 Root     29 :    10.956315994996530
 Root     30 :    11.045235072413590
 Root     31 :    11.217199817278650
 Root     32 :    11.407725635814630
 Root     33 :    11.556263935557920
 Root     34 :    11.608528440063430
 Root     35 :    11.766509407856250
 Root     36 :    11.809213607958370
 Root     37 :    11.819724436421560
 Root     38 :    11.829249886274190
 Root     39 :    11.975397118673850
 Root     40 :    12.033733285055340
 Root     41 :    12.061153227677060
 Root     42 :    12.079856094601210
 Root     43 :    12.084774248689230
 Root     44 :    12.275439890639500
 Root     45 :    12.364172168863600
 Root     46 :    12.488645694016470
 Root     47 :    12.552354879750200
 Root     48 :    12.562963516327780
 Root     49 :    12.665924906736240
 Root     50 :    12.717301007650190
 Root     51 :    12.741578555843840
 Root     52 :    12.795372124971490
 Root     53 :    12.869753796460650
 Root     54 :    12.912544096114240
 Root     55 :    12.993116483046650
 Root     56 :    13.098601909037350
 Root     57 :    13.135313738923750
 Root     58 :    13.237091806333390
 Root     59 :    13.312985554813920
 Root     60 :    13.318763475732590
 Root     61 :    13.406617180486680
 Root     62 :    13.446437390843550
 Root     63 :    13.479730245528890
 Root     64 :    13.483542523688120
 Root     65 :    13.489643267135310
 Root     66 :    13.560150355838490
 Root     67 :    13.622545284194160
 Root     68 :    13.686889167784760
 Root     69 :    13.834591206046500
 Root     70 :    13.864092334587990
 Root     71 :    13.865360619996460
 Root     72 :    13.895798270050890
 Root     73 :    13.910525689004260
 Root     74 :    14.012793186016700
 Root     75 :    14.064231410044360
 Root     76 :    14.125941890551910
 Root     77 :    14.196814113361710
 Root     78 :    14.255258427039410
 Root     79 :    14.281374482223020
 Root     80 :    14.353913853295400
 Root     81 :    14.437563262591570
 Root     82 :    14.503735461182660
 Root     83 :    14.587445960319990
 Root     84 :    14.590387760683880
 Root     85 :    14.600756672740470
 Root     86 :    14.708649282616550
 Root     87 :    14.721005591790480
 Root     88 :    14.794943512831760
 Root     89 :    14.815681419901240
 Root     90 :    14.827133979191680
 Root     91 :    14.828240272322960
 Root     92 :    14.874693864026050
 Root     93 :    14.941779207740860
 Root     94 :    14.987807124621980
 Root     95 :    15.023785966826440
 Root     96 :    15.025254417495610
 Root     97 :    15.246587940224680
 Root     98 :    15.270840152407590
 Root     99 :    15.294077896616260
 Root    100 :    15.353668632216860
 Root    101 :    15.378364246999840
 Root    102 :    15.536277267266020
 Root    103 :    15.588146098429250
 Root    104 :    15.616333527518180
 Root    105 :    15.619880228611730
 Root    106 :    15.620110273760960
 Root    107 :    15.673382911621290
 Root    108 :    15.755350523629080
 Root    109 :    15.776866317412190
 Root    110 :    15.802316823751010
 Root    111 :    15.861463301542940
 Root    112 :    15.929902189725520
 Root    113 :    15.944058229647230
 Root    114 :    16.030728324113670
 Root    115 :    16.073656902698190
 Root    116 :    16.204938473125040
 Root    117 :    16.224430362799780
 Root    118 :    16.257548139610440
 Root    119 :    16.367910886173790
 Root    120 :    16.380806212917920
 Root    121 :    16.411449679161440
 Root    122 :    16.425073734696780
 Root    123 :    16.557985169767110
 Root    124 :    16.569188624317640
 Root    125 :    16.622953850600690
 Root    126 :    16.640896288020290
 Root    127 :    16.680017160950290
 Root    128 :    16.717385702795780
 Root    129 :    16.717935856705880
 Root    130 :    16.749473470704010
 Root    131 :    16.752819088225920
 Root    132 :    16.817712606593640
 Root    133 :    16.877007700211200
 Root    134 :    16.877181301944010
 Root    135 :    16.894179803249470
 Root    136 :    16.943624329586270
 Root    137 :    16.969489641952770
 Root    138 :    17.082649872626740
 Root    139 :    17.171854712771180
 Root    140 :    17.175408280543810
 Root    141 :    17.189394826609680
 Root    142 :    17.240766416192860
 Root    143 :    17.251521035422100
 Root    144 :    17.320627288654480
 Root    145 :    17.339116574493080
 Root    146 :    17.340343935050420
 Root    147 :    17.412316946730190
 Root    148 :    17.525333196986720
 Root    149 :    17.557267794704420
 Root    150 :    17.656421219322340
 Root    151 :    17.731750148046580
 Root    152 :    17.731867541556420
 Root    153 :    17.764185227650390
 Root    154 :    17.887861741560670
 Root    155 :    17.930728481081910
 Root    156 :    18.019903977167840
 Root    157 :    18.061367984430360
 Root    158 :    18.084906486099760
 Root    159 :    18.118463820054600
 Root    160 :    18.138614754724210
 Root    161 :    18.195928924879680
 Root    162 :    18.217863801622780
 Root    163 :    18.243405893202400
 Root    164 :    18.304478971348360
 Root    165 :    18.346216854927600
 Root    166 :    18.353431749290830
 Root    167 :    18.368751373336520
 Root    168 :    18.405683138600230
 Root    169 :    18.474290989357950
 Root    170 :    18.475886608002780
 Root    171 :    18.576354065335220
 Root    172 :    18.587642968996330
 Root    173 :    18.591757871627980
 Root    174 :    18.648158231865380
 Root    175 :    18.736923652146870
 Root    176 :    18.759112025122380
 Root    177 :    18.790864356038920
 Root    178 :    18.863738606956010
 Root    179 :    18.881485217055250
 Root    180 :    18.897542544184670
 Root    181 :    18.941628107439470
 Root    182 :    18.978867345962930
 Root    183 :    19.073219397087570
 Root    184 :    19.149691085713170
 Root    185 :    19.174114062138940
 Root    186 :    19.183906813014530
 Root    187 :    19.249550884461720
 Root    188 :    19.297182200459510
 Root    189 :    19.329081086166620
 Root    190 :    19.338877993926890
 Root    191 :    19.385686908447780
 Root    192 :    19.394232206471670
 Root    193 :    19.394979576759440
 Root    194 :    19.404366334257750
 Root    195 :    19.415372430432010
 Root    196 :    19.506628284227680
 Root    197 :    19.556435498928370
 Root    198 :    19.577952677603810
 Root    199 :    19.610686376702470
 Root    200 :    19.638812423143630
 Root    201 :    19.646440763336990
 Root    202 :    19.665603159996250
 Root    203 :    19.676268122597410
 Root    204 :    19.722425111967560
 Root    205 :    19.727008101496150
 Root    206 :    19.780929108065370
 Root    207 :    19.830896193191430
 Root    208 :    19.843091723455180
 Root    209 :    19.861248809257700
 Root    210 :    19.962601216658730
 Root    211 :    20.100091339528540
 Root    212 :    20.142142241957740
 Root    213 :    20.188376416777940
 Root    214 :    20.215334156271520
 Root    215 :    20.225869639234320
 Root    216 :    20.288474152828320
 Root    217 :    20.339904729414980
 Root    218 :    20.352145616122090
 Root    219 :    20.358377043904730
 Root    220 :    20.363490608877860
 Root    221 :    20.428822075522640
 Root    222 :    20.460634540042640
 Root    223 :    20.464322743615120
 Root    224 :    20.568179170025200
 Root    225 :    20.609592219168060
 Root    226 :    20.686524415012980
 Root    227 :    20.691787194408610
 Root    228 :    20.700043674014600
 Root    229 :    20.703330605588480
 Root    230 :    20.708637162541840
 Root    231 :    20.709137889831220
 Root    232 :    20.728599754061020
 Root    233 :    20.771875762556600
 Root    234 :    20.792364941101870
 Root    235 :    20.804962174733420
 Root    236 :    20.845918930336650
 Root    237 :    20.855759158614630
 Root    238 :    20.919848383650110
 Root    239 :    20.973741226371140
 Root    240 :    20.996853616448160
 Root    241 :    21.056861253996380
 Root    242 :    21.079796059106800
 Root    243 :    21.197651615362850
 Root    244 :    21.222254866181260
 Root    245 :    21.240220444205230
 Root    246 :    21.310906456542040
 Root    247 :    21.358040351144060
 Root    248 :    21.408708117352300
 Root    249 :    21.431737576202740
 Root    250 :    21.470413902359730
 Root    251 :    21.553691196207310
 Root    252 :    21.584539362757270
 Root    253 :    21.644552637468370
 Root    254 :    21.672388362117510
 Root    255 :    21.743496153113380
 Root    256 :    21.767644101011220
 Root    257 :    21.820675744738520
 Root    258 :    21.842121837855410
 Root    259 :    21.890139559742210
 Root    260 :    21.906459269890320
 Root    261 :    22.029310607567620
 Root    262 :    22.045373744817320
 Root    263 :    22.050246836515870
 Root    264 :    22.062511129724930
 Root    265 :    22.186206991134460
 Root    266 :    22.229726120707030
 Root    267 :    22.261743479892210
 Root    268 :    22.273295878775060
 Root    269 :    22.337331594485020
 Root    270 :    22.337544520761620
 Root    271 :    22.397743519803400
 Root    272 :    22.428557112585000
 Root    273 :    22.450005999565830
 Root    274 :    22.451758781584060
 Root    275 :    22.461134039268980
 Root    276 :    22.566327810977650
 Root    277 :    22.572784682453510
 Root    278 :    22.702391654876530
 Root    279 :    22.709350053774960
 Root    280 :    22.739765213369030
 Root    281 :    22.821116371049250
 Root    282 :    22.833282607220590
 Root    283 :    22.852369891025100
 Root    284 :    22.885125401012300
 Root    285 :    22.930339237686260
 Root    286 :    22.935280657541300
 Root    287 :    23.088461672201490
 Root    288 :    23.133587635135600
 Root    289 :    23.150992852966550
 Root    290 :    23.229480452636570
 Root    291 :    23.277967008040670
 Root    292 :    23.312101203444360
 Root    293 :    23.434038053066370
 Root    294 :    23.439800949428460
 Root    295 :    23.465431853388690
 Root    296 :    23.471008160375510
 Root    297 :    23.490537079746680
 Root    298 :    23.626487606071320
 Root    299 :    23.689548408101010
 Root    300 :    23.746335591579320
 Root    301 :    23.782790246459950
 Root    302 :    23.793621640763050
 Root    303 :    23.802289088614240
 Root    304 :    23.868353930171220
 Root    305 :    23.906706858459530
 Root    306 :    23.914476884815900
 Root    307 :    24.049201623243830
 Root    308 :    24.093254474238030
 Root    309 :    24.105629356982530
 Root    310 :    24.160911901594400
 Root    311 :    24.217687770177910
 Root    312 :    24.232260677037030
 Root    313 :    24.302080086863390
 Root    314 :    24.341677129080510
 Root    315 :    24.348357161920320
 Root    316 :    24.437725586579070
 Root    317 :    24.476066978831500
 Root    318 :    24.509890292554710
 Root    319 :    24.518864276375270
 Root    320 :    24.623120787832050
 Root    321 :    24.706736697935040
 Root    322 :    24.749224603549320
 Root    323 :    24.760818777479300
 Root    324 :    24.896712001946020
 Root    325 :    24.950494900244820
 Root    326 :    24.963112138154570
 Root    327 :    25.051500755129920
 Root    328 :    25.146988509498460
 Root    329 :    25.172986558853640
 Root    330 :    25.254764023559260
 Root    331 :    25.286299920731750
 Root    332 :    25.300394729146290
 Root    333 :    25.315110564294620
 Root    334 :    25.458737839346810
 Root    335 :    25.504005856981530
 Root    336 :    25.608132874062690
 Root    337 :    25.631439911765240
 Root    338 :    25.692765963638550
 Root    339 :    25.719715981185270
 Root    340 :    25.816548594588440
 Root    341 :    25.855446391536550
 Root    342 :    25.902891529631400
 Root    343 :    25.950253307578280
 Root    344 :    25.974549278126800
 Root    345 :    26.032998083362340
 Root    346 :    26.052534006333120
 Root    347 :    26.072141749297260
 Root    348 :    26.150912532180260
 Root    349 :    26.185444123374630
 Root    350 :    26.208940485252020
 Root    351 :    26.211476790259590
 Root    352 :    26.251434368656100
 Root    353 :    26.399044574711690
 Root    354 :    26.532633262150400
 Root    355 :    26.536759223279270
 Root    356 :    26.556733639752510
 Root    357 :    26.580471489866860
 Root    358 :    26.624825490895380
 Root    359 :    26.639755197595170
 Root    360 :    26.650092447154180
 Root    361 :    26.763408507845380
 Root    362 :    26.878444872604430
 Root    363 :    26.897580276149280
 Root    364 :    26.928531855346410
 Root    365 :    26.940705914433180
 Root    366 :    27.183410186882410
 Root    367 :    27.190002715696750
 Root    368 :    27.217804179379480
 Root    369 :    27.308481096060280
 Root    370 :    27.320992125799630
 Root    371 :    27.448396175566620
 Root    372 :    27.452085202145280
 Root    373 :    27.459081593353940
 Root    374 :    27.552274491805470
 Root    375 :    27.603209942290710
 Root    376 :    27.622834226870610
 Root    377 :    27.705887104179030
 Root    378 :    27.752579435937170
 Root    379 :    27.847910900407510
 Root    380 :    28.064599452065400
 Root    381 :    28.109745203668950
 Root    382 :    28.152824709778220
 Root    383 :    28.234250966972340
 Root    384 :    28.244640003275430
 Root    385 :    28.295781287120130
 Root    386 :    28.315143858628460
 Root    387 :    28.456329519238170
 Root    388 :    28.469867546328650
 Root    389 :    28.528461466412580
 Root    390 :    28.549623748701410
 Root    391 :    28.563654405775010
 Root    392 :    28.578277302573920
 Root    393 :    28.625234395643330
 Root    394 :    28.676004085424270
 Root    395 :    28.706844200530490
 Root    396 :    28.729138917722060
 Root    397 :    28.790222053243580
 Root    398 :    28.887206868395910
 Root    399 :    28.967555843399630
 Root    400 :    29.035021843097200
 Root    401 :    29.136728485223340
 Root    402 :    29.236640195742580
 Root    403 :    29.338307255232930
 Root    404 :    29.407790850942580
 Root    405 :    29.446596451859520
 Root    406 :    29.535112757176800
 Root    407 :    29.601701372038790
 Root    408 :    29.627611880622340
 Root    409 :    29.670910734163230
 Root    410 :    29.755701535167930
 Root    411 :    29.799837504600140
 Root    412 :    29.805633679502830
 Root    413 :    29.843952541988380
 Root    414 :    29.891446870690280
 Root    415 :    30.066040871717910
 Root    416 :    30.090203652000190
 Root    417 :    30.293951818592800
 Root    418 :    30.337659945552900
 Root    419 :    30.476815071924240
 Root    420 :    30.525641061250100
 Root    421 :    30.786490424802120
 Root    422 :    30.897217111133240
 Root    423 :    30.991834051928960
 Root    424 :    31.035405192826340
 Root    425 :    31.045980474847140
 Root    426 :    31.072274651029170
 Root    427 :    31.076092938771110
 Root    428 :    31.114755324405570
 Root    429 :    31.201603001680380
 Root    430 :    31.256550112998380
 Root    431 :    31.279717186928180
 Root    432 :    31.515334725133320
 Root    433 :    31.812688703317990
 Root    434 :    31.822443521633330
 Root    435 :    31.914195324577550
 Root    436 :    31.929595737155910
 Root    437 :    32.023049839551970
 Root    438 :    32.043560509345730
 Root    439 :    32.163282487850070
 Root    440 :    32.193088571585660
 Root    441 :    32.233227150721200
 Root    442 :    32.289850772309100
 Root    443 :    32.362861133463650
 Root    444 :    32.699472601774260
 Root    445 :    32.701289222723550
 Root    446 :    32.746719168556280
 Root    447 :    32.779966233039960
 Root    448 :    32.830363858582910
 Root    449 :    32.898854664341020
 Root    450 :    32.980910800802420
 Root    451 :    33.058612844133540
 Root    452 :    33.065462621713730
 Root    453 :    33.088764502893090
 Root    454 :    33.159182352632900
 Root    455 :    33.231084883557140
 Root    456 :    33.250646415690160
 Root    457 :    33.287397017239770
 Root    458 :    33.380104314621690
 Root    459 :    33.390928593728900
 Root    460 :    33.443195152526430
 Root    461 :    33.536622001348380
 Root    462 :    33.639958061539590
 Root    463 :    33.654652190099090
 Root    464 :    33.656412321144970
 Root    465 :    33.849281496324830
 Root    466 :    33.934426974394030
 Root    467 :    33.969272971119210
 Root    468 :    34.168812785572140
 Root    469 :    34.203780309922220
 Root    470 :    34.342945512205160
 Root    471 :    34.378484104925040
 Root    472 :    34.387538309004290
 Root    473 :    34.437031569406140
 Root    474 :    34.566016941692820
 Root    475 :    34.578888350554880
 Root    476 :    34.638315659579700
 Root    477 :    34.645919783476390
 Root    478 :    34.659000540720340
 Root    479 :    34.736248627121640
 Root    480 :    34.741148534239490
 Root    481 :    34.747007125961460
 Root    482 :    34.782878405410810
 Root    483 :    34.812497793976110
 Root    484 :    34.841799195004690
 Root    485 :    35.070073430655440
 Root    486 :    35.082967591080570
 Root    487 :    35.120666939519340
 Root    488 :    35.170577350490160
 Root    489 :    35.283574145234810
 Root    490 :    35.300009462087550
 Root    491 :    35.302900604563430
 Root    492 :    35.395717790814340
 Root    493 :    35.418499161339720
 Root    494 :    35.473862966924460
 Root    495 :    35.570999975857570
 Root    496 :    35.596339159665600
 Root    497 :    35.712516186177840
 Root    498 :    35.725553398045990
 Root    499 :    35.843493721769480
 Root    500 :    36.188563490975700
 Root    501 :    36.225091115615120
 Root    502 :    36.279039339246090
 Root    503 :    36.551224689936340
 Root    504 :    36.556487873362480
 Root    505 :    36.559543074633530
 Root    506 :    36.779387785859300
 Root    507 :    36.786984373603780
 Root    508 :    36.865936021875250
 Root    509 :    36.957003245584950
 Root    510 :    36.983653721416550
 Root    511 :    36.987700878988310
 Root    512 :    36.991379557413630
 Root    513 :    37.236412575609180
 Root    514 :    37.261174141222600
 Root    515 :    37.317245129128660
 Root    516 :    37.383187073652270
 Root    517 :    37.420050202636290
 Root    518 :    37.489827710532860
 Root    519 :    37.490964625327320
 Root    520 :    37.542374538077660
 Root    521 :    37.699608509149070
 Root    522 :    37.736356618082620
 Root    523 :    37.855127257427580
 Root    524 :    37.860865661897190
 Root    525 :    37.938686752431910
 Root    526 :    38.019599178026120
 Root    527 :    38.066525472252560
 Root    528 :    38.182993114906330
 Root    529 :    38.315172254505580
 Root    530 :    38.368894194959050
 Root    531 :    38.428729234847040
 Root    532 :    38.539102538973550
 Root    533 :    38.714299130858000
 Root    534 :    38.820104149252530
 Root    535 :    38.908845669049930
 Root    536 :    39.014163129464020
 Root    537 :    39.023044435510710
 Root    538 :    39.095899317829270
 Root    539 :    39.154139911134290
 Root    540 :    39.236523636492270
 Root    541 :    39.442471995939460
 Root    542 :    39.555449084014460
 Root    543 :    39.575752916092040
 Root    544 :    39.797150695856710
 Root    545 :    40.006535337576270
 Root    546 :    40.011692730896250
 Root    547 :    40.029219870095080
 Root    548 :    40.335596797091020
 Root    549 :    40.506531308758700
 Root    550 :    40.557451415541790
 Root    551 :    40.631739399143700
 Root    552 :    40.719253377672250
 Root    553 :    40.817805395119360
 Root    554 :    40.975902235858310
 Root    555 :    41.084575322047160
 Root    556 :    41.125174977535620
 Root    557 :    41.164103631564220
 Root    558 :    41.427971749287440
 Root    559 :    41.444510197285310
 Root    560 :    41.447142623842690
 Root    561 :    41.622656079235800
 Root    562 :    41.747111777366950
 Root    563 :    41.804133902690060
 Root    564 :    42.359226033716660
 Root    565 :    42.359748649646310
 Root    566 :    42.461056588693180
 Root    567 :    42.533570062333310
 Root    568 :    42.647670712005620
 Root    569 :    42.736709264771780
 Root    570 :    42.738569788768720
 Root    571 :    42.909188421889930
 Root    572 :    43.128088499313590
 Root    573 :    43.272989959626020
 Root    574 :    43.340113117823560
 Root    575 :    43.361517409706580
 Root    576 :    43.506336692477840
 Root    577 :    43.582886379014790
 Root    578 :    43.737330985290650
 Root    579 :    43.815573299080810
 Root    580 :    43.983543162524240
 Root    581 :    44.557790472560470
 Root    582 :    44.625697714474140
 Root    583 :    44.776838869560280
 Root    584 :    44.931339347898240
 Root    585 :    45.090060427345810
 Root    586 :    45.280941899617400
 Root    587 :    45.298974058208880
 Root    588 :    45.559423025385000
 Root    589 :    45.571652682765690
 Root    590 :    45.805133725539850
 Root    591 :    46.047800789958290
 Root    592 :    46.403615717653930
 Root    593 :    46.421578623412490
 Root    594 :    46.537559301567870
 Root    595 :    47.271598775365890
 Root    596 :    47.329655165019600
 Root    597 :    47.390401258784610
 Root    598 :    47.609930688099450
 Root    599 :    47.757925765556350
 Root    600 :    47.762972948808790
 Root    601 :    47.968102421045960
[...]
     15   0.000000D+00  0.000000D+00  0.000000D+00  0.000000D+00  0.000000D+00
     16   0.000000D+00  0.996683D-01  0.000000D+00 -0.948753D-02  0.000000D+00
               911           912           913           914           915 
      1  -0.150271D+03 -0.150270D+03 -0.150263D+03 -0.150256D+03 -0.150254D+03
      2   0.387885D-01  0.000000D+00 -0.864957D-01  0.000000D+00  0.000000D+00
      3   0.000000D+00  0.533650D-01  0.000000D+00  0.000000D+00  0.000000D+00
      4   0.000000D+00  0.000000D+00  0.000000D+00  0.229077D+00  0.000000D+00
      5  -0.787956D-01  0.000000D+00  0.217931D+00  0.000000D+00  0.000000D+00
      6   0.000000D+00 -0.169873D+00  0.000000D+00  0.000000D+00  0.000000D+00
      7   0.000000D+00  0.000000D+00  0.000000D+00 -0.617346D+00  0.000000D+00
      8   0.000000D+00 -0.325453D+00  0.000000D+00  0.000000D+00  0.000000D+00
      9   0.784017D-01  0.000000D+00  0.499480D-01  0.000000D+00  0.000000D+00
     10   0.000000D+00  0.000000D+00  0.000000D+00  0.000000D+00  0.496598D+00
     11   0.000000D+00  0.000000D+00  0.000000D+00 -0.296189D-01  0.000000D+00
     12   0.000000D+00  0.000000D+00  0.000000D+00 -0.560685D+00  0.000000D+00
     13   0.000000D+00  0.000000D+00  0.000000D+00 -0.248306D+00  0.000000D+00
     14   0.000000D+00  0.000000D+00  0.000000D+00  0.000000D+00 -0.737424D+00
     15   0.240808D-01  0.000000D+00 -0.109245D+00  0.000000D+00  0.000000D+00
     16   0.000000D+00 -0.300198D+00  0.000000D+00  0.000000D+00  0.000000D+00
               916           917           918           919           920 
      1  -0.150251D+03 -0.150229D+03 -0.150213D+03 -0.150212D+03 -0.150205D+03
      2   0.000000D+00  0.224108D+00  0.000000D+00  0.000000D+00  0.000000D+00
      3   0.000000D+00  0.000000D+00 -0.157661D+00  0.000000D+00  0.967912D-01
      4  -0.865344D-01  0.000000D+00  0.000000D+00  0.000000D+00  0.000000D+00
      5   0.000000D+00 -0.655220D+00  0.000000D+00  0.000000D+00  0.000000D+00
      6   0.000000D+00  0.000000D+00  0.512635D+00  0.000000D+00 -0.276532D+00
      7   0.228906D+00  0.000000D+00  0.000000D+00  0.000000D+00  0.000000D+00
      8   0.000000D+00  0.000000D+00 -0.198563D+00  0.000000D+00 -0.200104D+00
      9   0.000000D+00 -0.327615D+00  0.000000D+00  0.000000D+00  0.000000D+00
     10   0.000000D+00  0.000000D+00  0.000000D+00 -0.512595D+00  0.000000D+00
     11   0.167732D+00  0.000000D+00  0.000000D+00  0.000000D+00  0.000000D+00
     12   0.370877D+00  0.000000D+00  0.000000D+00  0.000000D+00  0.000000D+00
     13   0.371972D-01  0.000000D+00  0.000000D+00  0.000000D+00  0.000000D+00
     14   0.000000D+00  0.000000D+00  0.000000D+00  0.453556D+00  0.000000D+00
     15   0.000000D+00 -0.372805D+00  0.000000D+00  0.000000D+00  0.000000D+00
     16   0.000000D+00  0.000000D+00  0.118329D+01  0.000000D+00 -0.259828D+00
               921           922           923           924           925 
      1  -0.150200D+03 -0.150199D+03 -0.150196D+03 -0.150193D+03 -0.150185D+03
      2   0.000000D+00  0.000000D+00  0.000000D+00  0.000000D+00  0.000000D+00
      3  -0.854330D-01  0.000000D+00  0.000000D+00  0.000000D+00  0.000000D+00
      4   0.000000D+00 -0.181430D-01 -0.250584D-01  0.000000D+00  0.000000D+00
      5   0.000000D+00  0.000000D+00  0.000000D+00  0.000000D+00  0.000000D+00
      6   0.229302D+00  0.000000D+00  0.000000D+00  0.000000D+00  0.000000D+00
      7   0.000000D+00  0.494793D-01  0.587063D-01  0.000000D+00  0.000000D+00
      8   0.279851D+00  0.000000D+00  0.000000D+00  0.000000D+00  0.000000D+00
      9   0.000000D+00  0.000000D+00  0.000000D+00  0.000000D+00  0.000000D+00
     10   0.000000D+00  0.000000D+00  0.000000D+00 -0.586072D+00 -0.240216D+00
     11   0.000000D+00  0.100302D+00  0.129996D+00  0.000000D+00  0.000000D+00
     12   0.000000D+00 -0.843451D-01 -0.290209D+00  0.000000D+00  0.000000D+00
     13   0.000000D+00 -0.256221D+00  0.111429D-01  0.000000D+00  0.000000D+00
     14   0.000000D+00  0.000000D+00  0.000000D+00  0.735979D+00  0.230513D+00
     15   0.000000D+00  0.000000D+00  0.000000D+00  0.000000D+00  0.000000D+00
     16   0.432455D+00  0.000000D+00  0.000000D+00  0.000000D+00  0.000000D+00
               926           927           928           929           930 
      1  -0.150177D+03 -0.150152D+03 -0.150147D+03 -0.150139D+03 -0.150134D+03
      2  -0.131234D+00  0.000000D+00  0.000000D+00  0.821094D-01  0.000000D+00
      3   0.000000D+00  0.000000D+00  0.000000D+00  0.000000D+00  0.843259D-01
      4   0.000000D+00  0.562769D-01  0.000000D+00  0.000000D+00  0.000000D+00
      5   0.368533D+00  0.000000D+00  0.000000D+00 -0.256957D+00  0.000000D+00
      6   0.000000D+00  0.000000D+00  0.000000D+00  0.000000D+00 -0.254258D+00
      7   0.000000D+00 -0.192756D+00  0.000000D+00  0.000000D+00  0.000000D+00
      8   0.000000D+00  0.000000D+00  0.000000D+00  0.000000D+00 -0.358841D+00
      9   0.472407D+00  0.000000D+00  0.000000D+00 -0.182867D+00  0.000000D+00
     10   0.000000D+00  0.000000D+00  0.235415D+00  0.000000D+00  0.000000D+00
     11   0.000000D+00 -0.404250D-01  0.000000D+00  0.000000D+00  0.000000D+00
     12   0.000000D+00  0.472639D+00  0.000000D+00  0.000000D+00  0.000000D+00
     13   0.000000D+00 -0.680483D+00  0.000000D+00  0.000000D+00  0.000000D+00
     14   0.000000D+00  0.000000D+00  0.202179D-01  0.000000D+00  0.000000D+00
     15   0.627265D+00  0.000000D+00  0.000000D+00 -0.312885D+00  0.000000D+00
     16   0.000000D+00  0.000000D+00  0.000000D+00  0.000000D+00  0.173537D+00
               931           932           933           934           935 
      1  -0.150133D+03 -0.150131D+03 -0.150125D+03 -0.150118D+03 -0.150075D+03
      2   0.222696D-01  0.000000D+00  0.000000D+00  0.000000D+00  0.000000D+00
      3   0.000000D+00  0.000000D+00  0.000000D+00  0.000000D+00 -0.308756D-01
      4   0.000000D+00 -0.266222D+00  0.000000D+00 -0.174311D-01  0.000000D+00
      5  -0.598188D-01  0.000000D+00  0.000000D+00  0.000000D+00  0.000000D+00
      6   0.000000D+00  0.000000D+00  0.000000D+00  0.000000D+00  0.795015D-01
      7   0.000000D+00  0.807050D+00  0.000000D+00  0.470213D-01  0.000000D+00
      8   0.000000D+00  0.000000D+00  0.000000D+00  0.000000D+00  0.321031D+00
      9   0.645129D-01  0.000000D+00  0.000000D+00  0.000000D+00  0.000000D+00
     10   0.000000D+00  0.000000D+00 -0.462788D+00  0.000000D+00  0.000000D+00
     11   0.000000D+00 -0.195935D+00  0.000000D+00 -0.117985D+00  0.000000D+00
     12   0.000000D+00  0.619462D+00  0.000000D+00  0.844462D+00  0.000000D+00
     13   0.000000D+00  0.194430D+01  0.000000D+00  0.921511D+00  0.000000D+00
     14   0.000000D+00  0.000000D+00  0.369996D+00  0.000000D+00  0.000000D+00
     15  -0.418124D-01  0.000000D+00  0.000000D+00  0.000000D+00  0.000000D+00
     16   0.000000D+00  0.000000D+00  0.000000D+00  0.000000D+00  0.198000D+00
               936           937           938           939           940 
      1  -0.150062D+03 -0.150060D+03 -0.150057D+03 -0.150051D+03 -0.150048D+03
      2   0.000000D+00  0.504768D-01 -0.959629D-02 -0.111205D+00  0.000000D+00
      3  -0.618917D-01  0.000000D+00  0.000000D+00  0.000000D+00  0.000000D+00
      4   0.000000D+00  0.000000D+00  0.000000D+00  0.000000D+00  0.000000D+00
      5   0.000000D+00 -0.120050D+00  0.445801D-01  0.315213D+00  0.000000D+00
      6   0.166558D+00  0.000000D+00  0.000000D+00  0.000000D+00  0.000000D+00
      7   0.000000D+00  0.000000D+00  0.000000D+00  0.000000D+00  0.000000D+00
      8   0.428492D+00  0.000000D+00  0.000000D+00  0.000000D+00  0.000000D+00
      9   0.000000D+00  0.126729D+00  0.115063D+00 -0.588856D-01  0.000000D+00
     10   0.000000D+00  0.000000D+00  0.000000D+00  0.000000D+00  0.115723D+00
     11   0.000000D+00  0.000000D+00  0.000000D+00  0.000000D+00  0.000000D+00
     12   0.000000D+00  0.000000D+00  0.000000D+00  0.000000D+00  0.000000D+00
     13   0.000000D+00  0.000000D+00  0.000000D+00  0.000000D+00  0.000000D+00
     14   0.000000D+00  0.000000D+00  0.000000D+00  0.000000D+00  0.146949D+00
     15   0.000000D+00 -0.899551D-02 -0.132050D+00  0.316494D-02  0.000000D+00
     16   0.225309D+00  0.000000D+00  0.000000D+00  0.000000D+00  0.000000D+00
               941           942           943           944           945 
      1  -0.150042D+03 -0.150041D+03 -0.150041D+03 -0.150028D+03 -0.150028D+03
      2   0.000000D+00  0.000000D+00  0.122163D+00  0.000000D+00  0.000000D+00
      3   0.000000D+00 -0.938344D-01  0.000000D+00  0.646814D-01  0.000000D+00
      4   0.000000D+00  0.000000D+00  0.000000D+00  0.000000D+00 -0.139451D+00
      5   0.000000D+00  0.000000D+00 -0.363861D+00  0.000000D+00  0.000000D+00
      6   0.000000D+00  0.301071D+00  0.000000D+00 -0.228293D+00  0.000000D+00
      7   0.000000D+00  0.000000D+00  0.000000D+00  0.000000D+00  0.468296D+00
      8   0.000000D+00 -0.363415D+00  0.000000D+00  0.568246D+00  0.000000D+00
      9   0.000000D+00  0.000000D+00 -0.824792D-01  0.000000D+00  0.000000D+00
     10   0.735094D+00  0.000000D+00  0.000000D+00  0.000000D+00  0.000000D+00
     11   0.000000D+00  0.000000D+00  0.000000D+00  0.000000D+00 -0.164724D+00
     12   0.000000D+00  0.000000D+00  0.000000D+00  0.000000D+00 -0.912410D+00
     13   0.000000D+00  0.000000D+00  0.000000D+00  0.000000D+00  0.114896D+01
     14  -0.841907D+00  0.000000D+00  0.000000D+00  0.000000D+00  0.000000D+00
     15   0.000000D+00  0.000000D+00 -0.830325D-01  0.000000D+00  0.000000D+00
     16   0.000000D+00  0.116016D+00  0.000000D+00  0.162382D+00  0.000000D+00
               946           947           948           949           950 
      1  -0.149993D+03 -0.149985D+03 -0.149982D+03 -0.149975D+03 -0.149968D+03
      2   0.000000D+00  0.000000D+00  0.000000D+00  0.000000D+00  0.000000D+00
      3   0.000000D+00  0.000000D+00  0.000000D+00  0.000000D+00  0.398145D-01
      4   0.666763D-01 -0.693736D-01 -0.116537D+00  0.000000D+00  0.000000D+00
      5   0.000000D+00  0.000000D+00  0.000000D+00  0.000000D+00  0.000000D+00
      6   0.000000D+00  0.000000D+00  0.000000D+00  0.000000D+00 -0.131211D+00
      7  -0.205493D+00  0.197375D+00  0.369879D+00  0.000000D+00  0.000000D+00
      8   0.000000D+00  0.000000D+00  0.000000D+00  0.000000D+00  0.890167D-01
      9   0.000000D+00  0.000000D+00  0.000000D+00  0.000000D+00  0.000000D+00
     10   0.000000D+00  0.000000D+00  0.000000D+00  0.262803D+00  0.000000D+00
     11  -0.481580D-01  0.198282D+00  0.761759D-01  0.000000D+00  0.000000D+00
     12   0.104659D+00  0.369808D+00 -0.322068D-01  0.000000D+00  0.000000D+00
     13  -0.676887D+00 -0.336566D+00  0.103302D+01  0.000000D+00  0.000000D+00
     14   0.000000D+00  0.000000D+00  0.000000D+00 -0.122159D+00  0.000000D+00
     15   0.000000D+00  0.000000D+00  0.000000D+00  0.000000D+00  0.000000D+00
     16   0.000000D+00  0.000000D+00  0.000000D+00  0.000000D+00 -0.149265D+00
               951           952           953           954           955 
      1  -0.149955D+03 -0.149946D+03 -0.149934D+03 -0.149907D+03 -0.149906D+03
      2  -0.345488D+00  0.000000D+00  0.000000D+00  0.000000D+00  0.000000D+00
      3   0.000000D+00 -0.272514D-01  0.000000D+00  0.000000D+00  0.000000D+00
      4   0.000000D+00  0.000000D+00  0.000000D+00  0.000000D+00 -0.470528D-02
      5   0.108481D+01  0.000000D+00  0.000000D+00  0.000000D+00  0.000000D+00
      6   0.000000D+00  0.937605D-01  0.000000D+00  0.000000D+00  0.000000D+00
      7   0.000000D+00  0.000000D+00  0.000000D+00  0.000000D+00  0.901966D-03
      8   0.000000D+00 -0.384641D+00  0.000000D+00  0.000000D+00  0.000000D+00
      9   0.102513D+01  0.000000D+00  0.000000D+00  0.000000D+00  0.000000D+00
     10   0.000000D+00  0.000000D+00  0.284005D+00  0.792799D-01  0.000000D+00
     11   0.000000D+00  0.000000D+00  0.000000D+00  0.000000D+00  0.220216D+00
     12   0.000000D+00  0.000000D+00  0.000000D+00  0.000000D+00 -0.144361D+00
     13   0.000000D+00  0.000000D+00  0.000000D+00  0.000000D+00 -0.387282D+00
     14   0.000000D+00  0.000000D+00 -0.451410D+00 -0.173260D+00  0.000000D+00
     15   0.130173D+01  0.000000D+00  0.000000D+00  0.000000D+00  0.000000D+00
     16   0.000000D+00  0.160645D+00  0.000000D+00  0.000000D+00  0.000000D+00
               956           957           958           959           960 
      1  -0.149867D+03 -0.149852D+03 -0.149844D+03 -0.149825D+03 -0.149822D+03
      2   0.000000D+00  0.000000D+00 -0.127862D+00  0.000000D+00  0.000000D+00
      3   0.000000D+00  0.000000D+00  0.000000D+00  0.724265D-01  0.210112D-01
      4   0.000000D+00 -0.120779D-01  0.000000D+00  0.000000D+00  0.000000D+00
      5   0.000000D+00  0.000000D+00  0.408106D+00  0.000000D+00  0.000000D+00
      6   0.000000D+00  0.000000D+00  0.000000D+00 -0.256379D+00 -0.631489D-01
      7   0.000000D+00  0.607322D-01  0.000000D+00  0.000000D+00  0.000000D+00
      8   0.000000D+00  0.000000D+00  0.000000D+00  0.324204D+00  0.577010D+00
      9   0.000000D+00  0.000000D+00  0.355809D+00  0.000000D+00  0.000000D+00
     10   0.115167D+00  0.000000D+00  0.000000D+00  0.000000D+00  0.000000D+00
     11   0.000000D+00 -0.219685D-01  0.000000D+00  0.000000D+00  0.000000D+00
     12   0.000000D+00 -0.229673D+00  0.000000D+00  0.000000D+00  0.000000D+00
     13   0.000000D+00  0.618646D+00  0.000000D+00  0.000000D+00  0.000000D+00
     14  -0.276161D-02  0.000000D+00  0.000000D+00  0.000000D+00  0.000000D+00
     15   0.000000D+00  0.000000D+00  0.557563D+00  0.000000D+00  0.000000D+00
     16   0.000000D+00  0.000000D+00  0.000000D+00  0.117269D-01  0.384152D+00
               961           962           963           964           965 
      1  -0.149789D+03 -0.149754D+03 -0.149754D+03 -0.149753D+03 -0.149750D+03
      2  -0.221442D+00  0.000000D+00  0.463292D-01  0.000000D+00  0.000000D+00
      3   0.000000D+00  0.000000D+00  0.000000D+00  0.000000D+00  0.235727D+00
      4   0.000000D+00  0.000000D+00  0.000000D+00 -0.409091D-01  0.000000D+00
      5   0.735227D+00  0.000000D+00 -0.134448D+00  0.000000D+00  0.000000D+00
      6   0.000000D+00  0.000000D+00  0.000000D+00  0.000000D+00 -0.829787D+00
      7   0.000000D+00  0.000000D+00  0.000000D+00  0.119597D+00  0.000000D+00
      8   0.000000D+00  0.000000D+00  0.000000D+00  0.000000D+00  0.684321D+00
      9   0.100737D+01  0.000000D+00  0.156694D+00  0.000000D+00  0.000000D+00
     10   0.000000D+00  0.326612D+00  0.000000D+00  0.000000D+00  0.000000D+00
     11   0.000000D+00  0.000000D+00  0.000000D+00  0.315347D+00  0.000000D+00
     12   0.000000D+00  0.000000D+00  0.000000D+00  0.238337D+00  0.000000D+00
     13   0.000000D+00  0.000000D+00  0.000000D+00 -0.240356D+00  0.000000D+00
     14   0.000000D+00 -0.592741D+00  0.000000D+00  0.000000D+00  0.000000D+00
     15   0.120350D+01  0.000000D+00 -0.379180D-01  0.000000D+00  0.000000D+00
     16   0.000000D+00  0.000000D+00  0.000000D+00  0.000000D+00 -0.800486D+00
               966           967           968           969           970 
      1  -0.149745D+03 -0.149736D+03 -0.149712D+03 -0.149698D+03 -0.149660D+03
      2   0.000000D+00 -0.398346D-01  0.000000D+00  0.000000D+00  0.000000D+00
      3   0.000000D+00  0.000000D+00  0.000000D+00 -0.383732D-01  0.000000D+00
      4  -0.119331D+00  0.000000D+00  0.466944D-01  0.000000D+00  0.000000D+00
      5   0.000000D+00  0.130066D+00  0.000000D+00  0.000000D+00  0.000000D+00
      6   0.000000D+00  0.000000D+00  0.000000D+00  0.126859D+00  0.000000D+00
      7   0.410488D+00  0.000000D+00 -0.136607D+00  0.000000D+00  0.000000D+00
      8   0.000000D+00  0.000000D+00  0.000000D+00  0.362411D+00  0.000000D+00
      9   0.000000D+00 -0.906352D-02  0.000000D+00  0.000000D+00  0.000000D+00
     10   0.000000D+00  0.000000D+00  0.000000D+00  0.000000D+00 -0.177832D+00
     11   0.178958D+00  0.000000D+00 -0.158907D+00  0.000000D+00  0.000000D+00
     12   0.562895D+00  0.000000D+00  0.941561D+00  0.000000D+00  0.000000D+00
     13   0.187570D+00  0.000000D+00  0.385393D-02  0.000000D+00  0.000000D+00
     14   0.000000D+00  0.000000D+00  0.000000D+00  0.000000D+00  0.367180D+00
     15   0.000000D+00  0.280784D-01  0.000000D+00  0.000000D+00  0.000000D+00
     16   0.000000D+00  0.000000D+00  0.000000D+00  0.246909D+00  0.000000D+00
               971           972           973           974           975 
      1  -0.149646D+03 -0.149645D+03 -0.149606D+03 -0.149577D+03 -0.149515D+03
      2   0.000000D+00  0.109853D+00  0.000000D+00  0.000000D+00  0.000000D+00
      3   0.870087D-01  0.000000D+00  0.000000D+00  0.235496D+00  0.000000D+00
      4   0.000000D+00  0.000000D+00  0.205252D+00  0.000000D+00  0.241201D-01
      5   0.000000D+00 -0.371681D+00  0.000000D+00  0.000000D+00  0.000000D+00
      6  -0.287887D+00  0.000000D+00  0.000000D+00 -0.905724D+00  0.000000D+00
      7   0.000000D+00  0.000000D+00 -0.733472D+00  0.000000D+00 -0.114338D+00
      8   0.540678D+00  0.000000D+00  0.000000D+00  0.985269D+00  0.000000D+00
      9   0.000000D+00 -0.359162D+00  0.000000D+00  0.000000D+00  0.000000D+00
     10   0.000000D+00  0.000000D+00  0.000000D+00  0.000000D+00  0.000000D+00
     11   0.000000D+00  0.000000D+00  0.509464D-01  0.000000D+00 -0.143771D+00
     12   0.000000D+00  0.000000D+00  0.909518D+00  0.000000D+00  0.340937D+00
     13   0.000000D+00  0.000000D+00 -0.148335D+01  0.000000D+00 -0.338773D+00
     14   0.000000D+00  0.000000D+00  0.000000D+00  0.000000D+00  0.000000D+00
     15   0.000000D+00 -0.651466D-02  0.000000D+00  0.000000D+00  0.000000D+00
     16   0.182110D+00  0.000000D+00  0.000000D+00 -0.114495D+01  0.000000D+00
               976           977           978           979           980 
      1  -0.149513D+03 -0.149512D+03 -0.149410D+03 -0.149309D+03 -0.149110D+03
      2   0.000000D+00  0.000000D+00  0.000000D+00  0.000000D+00  0.000000D+00
      3   0.000000D+00  0.610560D-02  0.000000D+00  0.000000D+00 -0.906325D-02
      4   0.000000D+00  0.000000D+00  0.110323D+00  0.418351D-01  0.000000D+00
      5   0.000000D+00  0.000000D+00  0.000000D+00  0.000000D+00  0.000000D+00
      6   0.000000D+00  0.297418D-01  0.000000D+00  0.000000D+00  0.123566D+00
      7   0.000000D+00  0.000000D+00 -0.452455D+00 -0.121001D+00  0.000000D+00
      8   0.000000D+00 -0.115311D+00  0.000000D+00  0.000000D+00 -0.167512D+00
      9   0.000000D+00  0.000000D+00  0.000000D+00  0.000000D+00  0.000000D+00
     10   0.229208D+00  0.000000D+00  0.000000D+00  0.000000D+00  0.000000D+00
     11   0.000000D+00  0.000000D+00  0.717640D-01  0.295319D+00  0.000000D+00
     12   0.000000D+00  0.000000D+00 -0.659113D+00 -0.168374D+00  0.000000D+00
     13   0.000000D+00  0.000000D+00 -0.138591D+01 -0.247939D+00  0.000000D+00
     14  -0.543179D-02  0.000000D+00  0.000000D+00  0.000000D+00  0.000000D+00
     15   0.000000D+00  0.000000D+00  0.000000D+00  0.000000D+00  0.000000D+00
     16   0.000000D+00  0.850865D+00  0.000000D+00  0.000000D+00 -0.235501D-01
 Unable to Open any file for archive entry.
 1\1\GINC-HEL10\SP\RSVWN5 TD-FC\Gen\C2H6O1\SABYASACHI\21-Mar-2022\0\\#P
  TD(Nstates=10000) svwn5/Gen SCF(maxcycles=100) Int(Grid=ultrafine)\\x
 GDB7_00001_tier4.com\\0,1\C,0,0.,1.163894,-0.193136\O,0,0.,0.,0.585449
 \C,0,0.,-1.163894,-0.193136\H,0,0.,2.015478,0.485827\H,0,-0.89039,1.21
 9204,-0.834404\H,0,0.89039,1.219204,-0.834404\H,0,0.,-2.015478,0.48582
 7\H,0,0.89039,-1.219204,-0.834404\H,0,-0.89039,-1.219204,-0.834404\\Ve
 rsion=EM64L-G16RevC.01\State=1-A1\HF=-153.6155015\RMSD=4.391e-09\PG=C0
 2V [C2(O1),SGV(C2H2),X(H4)]\\@
 The archive entry for this job was punched.


 SLITHERY-DITHERY
 FRIEDRICH A. KEKULE
 DREAMT ON A BUS OF THINGS
 FREUD WOULD THINK KEEN.
 MOST OF THE TIME THEY WERE
 HERPETOLOGICAL
 BITING THEIR TAILS IN THE
 SHAPE OF BENZENE.
 Job cpu time:       0 days  0 hours  3 minutes 35.6 seconds.
 Elapsed time:       0 days  0 hours  0 minutes 27.3 seconds.
 File lengths (MBytes):  RWF=    480 Int=      0 D2E=      0 Chk=    291 Scr=      1
 Normal termination of Gaussian 16 at Mon Mar 21 20:09:27 2022.
