 Entering Gaussian System, Link 0=g16
 Input=000004.com
 Output=000004.log
 Initial command:
 /home/sabyasachi/g16/l1.exe "/scratch/sabyasachi/PBS_7975841.helios/Gau-105112.inp" -scrdir="/scratch/sabyasachi/PBS_7975841.helios/"
 Entering Link 1 = /home/sabyasachi/g16/l1.exe PID=    105114.
  
 Copyright (c) 1988-2019, Gaussian, Inc.  All Rights Reserved.
  
 This is part of the Gaussian(R) 16 program.  It is based on
 the Gaussian(R) 09 system (copyright 2009, Gaussian, Inc.),
 the Gaussian(R) 03 system (copyright 2003, Gaussian, Inc.),
 the Gaussian(R) 98 system (copyright 1998, Gaussian, Inc.),
 the Gaussian(R) 94 system (copyright 1995, Gaussian, Inc.),
 the Gaussian 92(TM) system (copyright 1992, Gaussian, Inc.),
 the Gaussian 90(TM) system (copyright 1990, Gaussian, Inc.),
 the Gaussian 88(TM) system (copyright 1988, Gaussian, Inc.),
 the Gaussian 86(TM) system (copyright 1986, Carnegie Mellon
 University), and the Gaussian 82(TM) system (copyright 1983,
 Carnegie Mellon University). Gaussian is a federally registered
 trademark of Gaussian, Inc.
  
 This software contains proprietary and confidential information,
 including trade secrets, belonging to Gaussian, Inc.
  
 This software is provided under written license and may be
 used, copied, transmitted, or stored only in accord with that
 written license.
  
 The following legend is applicable only to US Government
 contracts under FAR:
  
                    RESTRICTED RIGHTS LEGEND
  
 Use, reproduction and disclosure by the US Government is
 subject to restrictions as set forth in subparagraphs (a)
 and (c) of the Commercial Computer Software - Restricted
 Rights clause in FAR 52.227-19.
  
 Gaussian, Inc.
 340 Quinnipiac St., Bldg. 40, Wallingford CT 06492
  
  
 ---------------------------------------------------------------
 Warning -- This program may not be used in any manner that
 competes with the business of Gaussian, Inc. or will provide
 assistance to any competitor of Gaussian, Inc.  The licensee
 of this program is prohibited from giving any competitor of
 Gaussian, Inc. access to this program.  By using this program,
 the user acknowledges that Gaussian, Inc. is engaged in the
 business of creating and licensing software in the field of
 computational chemistry and represents and warrants to the
 licensee that it is not a competitor of Gaussian, Inc. and that
 it will not use this program in any manner prohibited above.
 ---------------------------------------------------------------
  

 Cite this work as:
 Gaussian 16, Revision C.01,
 M. J. Frisch, G. W. Trucks, H. B. Schlegel, G. E. Scuseria, 
 M. A. Robb, J. R. Cheeseman, G. Scalmani, V. Barone, 
 G. A. Petersson, H. Nakatsuji, X. Li, M. Caricato, A. V. Marenich, 
 J. Bloino, B. G. Janesko, R. Gomperts, B. Mennucci, H. P. Hratchian, 
 J. V. Ortiz, A. F. Izmaylov, J. L. Sonnenberg, D. Williams-Young, 
 F. Ding, F. Lipparini, F. Egidi, J. Goings, B. Peng, A. Petrone, 
 T. Henderson, D. Ranasinghe, V. G. Zakrzewski, J. Gao, N. Rega, 
 G. Zheng, W. Liang, M. Hada, M. Ehara, K. Toyota, R. Fukuda, 
 J. Hasegawa, M. Ishida, T. Nakajima, Y. Honda, O. Kitao, H. Nakai, 
 T. Vreven, K. Throssell, J. A. Montgomery, Jr., J. E. Peralta, 
 F. Ogliaro, M. J. Bearpark, J. J. Heyd, E. N. Brothers, K. N. Kudin, 
 V. N. Staroverov, T. A. Keith, R. Kobayashi, J. Normand, 
 K. Raghavachari, A. P. Rendell, J. C. Burant, S. S. Iyengar, 
 J. Tomasi, M. Cossi, J. M. Millam, M. Klene, C. Adamo, R. Cammi, 
 J. W. Ochterski, R. L. Martin, K. Morokuma, O. Farkas, 
 J. B. Foresman, and D. J. Fox, Gaussian, Inc., Wallingford CT, 2019.
 
 ******************************************
 Gaussian 16:  EM64L-G16RevC.01  3-Jul-2019
                21-Mar-2022 
 ******************************************
 %mem=64gb
 %nproc=8
 Will use up to    8 processors via shared memory.
 ---------------------------------------------------------------------
 #P TD(Nstates=10000) svwn5/Gen SCF(maxcycles=100) Int(Grid=ultrafine)
 ---------------------------------------------------------------------
 1/38=1,172=1/1;
 2/12=2,17=6,18=5,40=1/2;
 3/5=7,11=9,25=1,30=1,74=201,75=-5/1,2,3,8;
 4//1;
 5/5=2,7=100,38=5/2;
 8/6=1,10=1,108=10000/1;
 9/41=10000,42=1,70=2/14;
 6/7=2,8=2,9=2,10=2/1;
 99/5=1,9=1/99;
 Leave Link    1 at Mon Mar 21 19:57:55 2022, MaxMem=  8589934592 cpu:               0.4 elap:               0.1
 (Enter /home/sabyasachi/g16/l101.exe)
 ---------------------
 xGDB7_00001_tier4.com
 ---------------------
 Symbolic Z-matrix:
 Charge =  0 Multiplicity = 1
 9                     0.        0.        0.0918 
 1                     0.        0.       -0.82621 
 
 ITRead=  0  0
 MicOpt= -1 -1
 NAtoms=      2 NQM=        2 NQMF=       0 NMMI=      0 NMMIF=      0
                NMic=       0 NMicF=      0.
                    Isotopes and Nuclear Properties:
 (Nuclear quadrupole moments (NQMom) in fm**2, nuclear magnetic moments (NMagM)
  in nuclear magnetons)

  Atom         1           2
 IAtWgt=          19           1
 AtmWgt=  18.9984033   1.0078250
 NucSpn=           1           1
 AtZEff=  -0.0000000  -0.0000000
 NQMom=    0.0000000   0.0000000
 NMagM=    2.6288670   2.7928460
 AtZNuc=   9.0000000   1.0000000
 Leave Link  101 at Mon Mar 21 19:57:55 2022, MaxMem=  8589934592 cpu:               0.7 elap:               0.1
 (Enter /home/sabyasachi/g16/l202.exe)
                          Input orientation:                          
 ---------------------------------------------------------------------
 Center     Atomic      Atomic             Coordinates (Angstroms)
 Number     Number       Type             X           Y           Z
 ---------------------------------------------------------------------
      1          9           0        0.000000    0.000000    0.091801
      2          1           0        0.000000    0.000000   -0.826212
 ---------------------------------------------------------------------
 Stoichiometry    FH
 Framework group  C*V[C*(HF)]
 Deg. of freedom     1
 Full point group                 C*V     NOp   4
 Largest Abelian subgroup         C2V     NOp   4
 Largest concise Abelian subgroup C1      NOp   1
                         Standard orientation:                         
 ---------------------------------------------------------------------
 Center     Atomic      Atomic             Coordinates (Angstroms)
 Number     Number       Type             X           Y           Z
 ---------------------------------------------------------------------
      1          9           0        0.000000    0.000000    0.091801
      2          1           0        0.000000    0.000000   -0.826212
 ---------------------------------------------------------------------
 Rotational constants (GHZ):           0.0000000         626.5886337         626.5886337
 Leave Link  202 at Mon Mar 21 19:57:55 2022, MaxMem=  8589934592 cpu:               0.1 elap:               0.0
 (Enter /home/sabyasachi/g16/l301.exe)
 General basis read from cards:  (5D, 7F)
 Centers:       2
 S 3 1.00
     Exponent=  1.3010701000D+01 Coefficients=  1.9682158000D-02
     Exponent=  1.9622572000D+00 Coefficients=  1.3796524000D-01
     Exponent=  4.4453796000D-01 Coefficients=  4.7831935000D-01
 S 1 1.00
     Exponent=  1.2194962000D-01 Coefficients=  1.0000000000D+00
 P 1 1.00
     Exponent=  8.0000000000D-01 Coefficients=  1.0000000000D+00
 P 1 1.00
     Exponent=  1.1704099050D-01 Coefficients=  1.0000000000D+00
 ****
 Centers:       1
 S 5 1.00
     Exponent=  2.8948325990D+03 Coefficients= -5.3408255515D-03
     Exponent=  4.3541939120D+02 Coefficients= -3.9904258866D-02
     Exponent=  9.8843328866D+01 Coefficients= -1.7912768038D-01
     Exponent=  2.7485198001D+01 Coefficients= -4.6758090825D-01
     Exponent=  8.5405498171D+00 Coefficients= -4.4653131020D-01
 S 1 1.00
     Exponent=  1.0654578038D+00 Coefficients=  1.0000000000D+00
 S 1 1.00
     Exponent=  3.3247346748D-01 Coefficients=  1.0000000000D+00
 S 1 1.00
     Exponent=  9.8097752264D-02 Coefficients=  1.0000000000D+00
 P 3 1.00
     Exponent=  2.2696633924D+01 Coefficients= -4.5212874436D-02
     Exponent=  4.9872339257D+00 Coefficients= -2.3754317067D-01
     Exponent=  1.3491613954D+00 Coefficients= -5.1287353587D-01
 P 1 1.00
     Exponent=  3.4829881977D-01 Coefficients=  1.0000000000D+00
 P 1 1.00
     Exponent=  8.3372148304D-02 Coefficients=  1.0000000000D+00
 D 1 1.00
     Exponent=  1.4000000000D+00 Coefficients=  1.0000000000D+00
 D 1 1.00
     Exponent=  2.2301361948D-01 Coefficients=  1.0000000000D+00
 ****
 Ernie: Thresh=  0.10000D-02 Tol=  0.10000D-05 Strict=F.
 There are    17 symmetry adapted cartesian basis functions of A1  symmetry.
 There are     2 symmetry adapted cartesian basis functions of A2  symmetry.
 There are     7 symmetry adapted cartesian basis functions of B1  symmetry.
 There are     7 symmetry adapted cartesian basis functions of B2  symmetry.
 There are    15 symmetry adapted basis functions of A1  symmetry.
 There are     2 symmetry adapted basis functions of A2  symmetry.
 There are     7 symmetry adapted basis functions of B1  symmetry.
 There are     7 symmetry adapted basis functions of B2  symmetry.
    31 basis functions,    45 primitive gaussians,    33 cartesian basis functions
     5 alpha electrons        5 beta electrons
       nuclear repulsion energy         5.1879384042 Hartrees.
 IExCor=  201 DFT=T Ex=S Corr=VWN5 ExCW=0 ScaHFX=  0.000000
 ScaDFX=  1.000000  1.000000  1.000000  1.000000 ScalE2=  1.000000  1.000000
 IRadAn=      5 IRanWt=     -1 IRanGd=            0 ICorTp=0 IEmpDi=  4
 NAtoms=    2 NActive=    2 NUniq=    2 SFac= 1.00D+00 NAtFMM=   60 NAOKFM=F Big=F
 Integral buffers will be    131072 words long.
 Regular integral format.
 Two-electron integral symmetry is turned on.
 Leave Link  301 at Mon Mar 21 19:57:55 2022, MaxMem=  8589934592 cpu:               0.6 elap:               0.1
 (Enter /home/sabyasachi/g16/l302.exe)
 NPDir=0 NMtPBC=     1 NCelOv=     1 NCel=       1 NClECP=     1 NCelD=      1
         NCelK=      1 NCelE2=     1 NClLst=     1 CellRange=     0.0.
 One-electron integrals computed using PRISM.
 One-electron integral symmetry used in STVInt
 NBasis=    31 RedAO= T EigKep=  3.31D-03  NBF=    15     2     7     7
 NBsUse=    31 1.00D-06 EigRej= -1.00D+00 NBFU=    15     2     7     7
 Precomputing XC quadrature grid using
 IXCGrd= 4 IRadAn=           5 IRanWt=          -1 IRanGd=           0 AccXCQ= 0.00D+00.
 Generated NRdTot=       0 NPtTot=           0 NUsed=           0 NTot=          32
 NSgBfM=    33    33    33    33    33 MxSgAt=     2 MxSgA2=     2.
 Leave Link  302 at Mon Mar 21 19:57:55 2022, MaxMem=  8589934592 cpu:               0.9 elap:               0.1
 (Enter /home/sabyasachi/g16/l303.exe)
 DipDrv:  MaxL=1.
 Leave Link  303 at Mon Mar 21 19:57:55 2022, MaxMem=  8589934592 cpu:               0.2 elap:               0.0
 (Enter /home/sabyasachi/g16/l308.exe)
 Leave Link  308 at Mon Mar 21 19:57:55 2022, MaxMem=  8589934592 cpu:               0.2 elap:               0.1
 (Enter /home/sabyasachi/g16/l401.exe)
 ExpMin= 8.34D-02 ExpMax= 2.89D+03 ExpMxC= 4.35D+02 IAcc=3 IRadAn=         5 AccDes= 0.00D+00
 Harris functional with IExCor=  201 and IRadAn=       5 diagonalized for initial guess.
 HarFok:  IExCor=  201 AccDes= 0.00D+00 IRadAn=         5 IDoV= 1 UseB2=F ITyADJ=14
 ICtDFT=  3500011 ScaDFX=  1.000000  1.000000  1.000000  1.000000
 FoFCou: FMM=F IPFlag=           0 FMFlag=      100000 FMFlg1=           0
         NFxFlg=           0 DoJE=T BraDBF=F KetDBF=T FulRan=T
         wScrn=  0.000000 ICntrl=       500 IOpCl=  0 I1Cent=   200000004 NGrid=           0
         NMat0=    1 NMatS0=      1 NMatT0=    0 NMatD0=    1 NMtDS0=    0 NMtDT0=    0
 Petite list used in FoFCou.
 Harris En= -99.7458807278186    
 JPrj=0 DoOrth=F DoCkMO=F.
 Initial guess orbital symmetries:
       Occupied  (SG) (SG) (SG) (PI) (PI)
       Virtual   (SG) (SG) (PI) (PI) (SG) (PI) (PI) (SG) (DLTA)
                 (DLTA) (SG) (PI) (PI) (SG) (PI) (PI) (SG) (PI)
                 (PI) (SG) (SG) (DLTA) (DLTA) (PI) (PI) (SG)
 The electronic state of the initial guess is 1-SG.
 Leave Link  401 at Mon Mar 21 19:57:55 2022, MaxMem=  8589934592 cpu:               1.1 elap:               0.2
 (Enter /home/sabyasachi/g16/l502.exe)
 Keep J ints in memory in symmetry-blocked form, NReq=7030808.
 FoFCou: FMM=F IPFlag=           0 FMFlag=           0 FMFlg1=           0
         NFxFlg=           0 DoJE=F BraDBF=F KetDBF=F FulRan=T
         wScrn=  0.000000 ICntrl=       600 IOpCl=  0 I1Cent=           0 NGrid=           0
         NMat0=    1 NMatS0=    496 NMatT0=    0 NMatD0=    1 NMtDS0=    0 NMtDT0=    0
 Petite list used in FoFCou.
 Closed shell SCF:
 Using DIIS extrapolation, IDIIS=  1040.
 NGot=  8589934592 LenX=  8589895776 LenY=  8589894246
 Requested convergence on RMS density matrix=1.00D-08 within 100 cycles.
 Requested convergence on MAX density matrix=1.00D-06.
 Requested convergence on             energy=1.00D-06.
 No special actions if energy rises.
 Integral accuracy reduced to 1.0D-05 until final iterations.

 Cycle   1  Pass 0  IDiag  1:
 E= -99.7069999446345    
 DIIS: error= 2.59D-02 at cycle   1 NSaved=   1.
 NSaved= 1 IEnMin= 1 EnMin= -99.7069999446345     IErMin= 1 ErrMin= 2.59D-02
 ErrMax= 2.59D-02  0.00D+00 EMaxC= 1.00D-01 BMatC= 2.76D-02 BMatP= 2.76D-02
 IDIUse=3 WtCom= 7.41D-01 WtEn= 2.59D-01
 Coeff-Com:  0.100D+01
 Coeff-En:   0.100D+01
 Coeff:      0.100D+01
 Gap=     0.260 Goal=   None    Shift=    0.000
 GapD=    0.260 DampG=1.000 DampE=0.500 DampFc=0.5000 IDamp=-1.
 Damping current iteration by 5.00D-01
 RMSDP=9.05D-03 MaxDP=9.57D-02              OVMax= 1.31D-01

 Cycle   2  Pass 0  IDiag  1:
 E= -99.7073454695220     Delta-E=       -0.000345524888 Rises=F Damp=T
 DIIS: error= 1.40D-02 at cycle   2 NSaved=   2.
 NSaved= 2 IEnMin= 2 EnMin= -99.7073454695220     IErMin= 2 ErrMin= 1.40D-02
 ErrMax= 1.40D-02  0.00D+00 EMaxC= 1.00D-01 BMatC= 8.13D-03 BMatP= 2.76D-02
 IDIUse=3 WtCom= 8.60D-01 WtEn= 1.40D-01
 Coeff-Com:  0.348D+00 0.652D+00
 Coeff-En:   0.494D+00 0.506D+00
 Coeff:      0.368D+00 0.632D+00
 Gap=     0.341 Goal=   None    Shift=    0.000
 RMSDP=1.23D-03 MaxDP=1.47D-02 DE=-3.46D-04 OVMax= 7.69D-02

 Cycle   3  Pass 0  IDiag  1:
 E= -99.7273628440093     Delta-E=       -0.020017374487 Rises=F Damp=F
 DIIS: error= 2.42D-03 at cycle   3 NSaved=   3.
 NSaved= 3 IEnMin= 3 EnMin= -99.7273628440093     IErMin= 3 ErrMin= 2.42D-03
 ErrMax= 2.42D-03  0.00D+00 EMaxC= 1.00D-01 BMatC= 2.15D-04 BMatP= 8.13D-03
 IDIUse=3 WtCom= 9.76D-01 WtEn= 2.42D-02
 Coeff-Com:  0.119D+00 0.112D+00 0.769D+00
 Coeff-En:   0.000D+00 0.000D+00 0.100D+01
 Coeff:      0.117D+00 0.109D+00 0.775D+00
 Gap=     0.349 Goal=   None    Shift=    0.000
 RMSDP=3.14D-04 MaxDP=4.50D-03 DE=-2.00D-02 OVMax= 5.27D-03

 Cycle   4  Pass 0  IDiag  1:
 E= -99.7275177854919     Delta-E=       -0.000154941483 Rises=F Damp=F
 DIIS: error= 2.07D-04 at cycle   4 NSaved=   4.
 NSaved= 4 IEnMin= 4 EnMin= -99.7275177854919     IErMin= 4 ErrMin= 2.07D-04
 ErrMax= 2.07D-04  0.00D+00 EMaxC= 1.00D-01 BMatC= 2.26D-06 BMatP= 2.15D-04
 IDIUse=3 WtCom= 9.98D-01 WtEn= 2.07D-03
 Coeff-Com:  0.137D-01-0.540D-02 0.160D+00 0.832D+00
 Coeff-En:   0.000D+00 0.000D+00 0.000D+00 0.100D+01
 Coeff:      0.137D-01-0.539D-02 0.160D+00 0.832D+00
 Gap=     0.349 Goal=   None    Shift=    0.000
 RMSDP=2.34D-05 MaxDP=1.81D-04 DE=-1.55D-04 OVMax= 2.61D-04

 Cycle   5  Pass 0  IDiag  1:
 E= -99.7275191308685     Delta-E=       -0.000001345377 Rises=F Damp=F
 DIIS: error= 2.60D-05 at cycle   5 NSaved=   5.
 NSaved= 5 IEnMin= 5 EnMin= -99.7275191308685     IErMin= 5 ErrMin= 2.60D-05
 ErrMax= 2.60D-05  0.00D+00 EMaxC= 1.00D-01 BMatC= 3.09D-08 BMatP= 2.26D-06
 IDIUse=1 WtCom= 1.00D+00 WtEn= 0.00D+00
 Coeff-Com:  0.176D-02-0.254D-02 0.215D-01 0.126D+00 0.854D+00
 Coeff:      0.176D-02-0.254D-02 0.215D-01 0.126D+00 0.854D+00
 Gap=     0.349 Goal=   None    Shift=    0.000
 RMSDP=3.35D-06 MaxDP=3.09D-05 DE=-1.35D-06 OVMax= 3.69D-05

 Initial convergence to 1.0D-05 achieved.  Increase integral accuracy.
 Cycle   6  Pass 1  IDiag  1:
 E= -99.7275191899390     Delta-E=       -0.000000059070 Rises=F Damp=F
 DIIS: error= 4.54D-06 at cycle   1 NSaved=   1.
 NSaved= 1 IEnMin= 1 EnMin= -99.7275191899390     IErMin= 1 ErrMin= 4.54D-06
 ErrMax= 4.54D-06  0.00D+00 EMaxC= 1.00D-01 BMatC= 8.48D-10 BMatP= 8.48D-10
 IDIUse=1 WtCom= 1.00D+00 WtEn= 0.00D+00
 Coeff-Com:  0.100D+01
 Coeff:      0.100D+01
 Gap=     0.349 Goal=   None    Shift=    0.000
 RMSDP=3.35D-06 MaxDP=3.09D-05 DE=-5.91D-08 OVMax= 2.18D-05

 Cycle   7  Pass 1  IDiag  1:
 E= -99.7275191885241     Delta-E=        0.000000001415 Rises=F Damp=F
 DIIS: error= 8.76D-06 at cycle   2 NSaved=   2.
 NSaved= 2 IEnMin= 1 EnMin= -99.7275191899390     IErMin= 1 ErrMin= 4.54D-06
 ErrMax= 8.76D-06  0.00D+00 EMaxC= 1.00D-01 BMatC= 3.17D-09 BMatP= 8.48D-10
 IDIUse=1 WtCom= 1.00D+00 WtEn= 0.00D+00
 Coeff-Com:  0.660D+00 0.340D+00
 Coeff:      0.660D+00 0.340D+00
 Gap=     0.349 Goal=   None    Shift=    0.000
 RMSDP=9.13D-07 MaxDP=1.05D-05 DE= 1.41D-09 OVMax= 1.27D-05

 Cycle   8  Pass 1  IDiag  1:
 E= -99.7275191905226     Delta-E=       -0.000000001998 Rises=F Damp=F
 DIIS: error= 2.57D-07 at cycle   3 NSaved=   3.
 NSaved= 3 IEnMin= 3 EnMin= -99.7275191905226     IErMin= 3 ErrMin= 2.57D-07
 ErrMax= 2.57D-07  0.00D+00 EMaxC= 1.00D-01 BMatC= 1.71D-12 BMatP= 8.48D-10
 IDIUse=1 WtCom= 1.00D+00 WtEn= 0.00D+00
 Coeff-Com:  0.168D+00 0.739D-01 0.758D+00
 Coeff:      0.168D+00 0.739D-01 0.758D+00
 Gap=     0.349 Goal=   None    Shift=    0.000
 RMSDP=3.41D-08 MaxDP=5.01D-07 DE=-2.00D-09 OVMax= 6.16D-07

 Cycle   9  Pass 1  IDiag  1:
 E= -99.7275191905239     Delta-E=       -0.000000000001 Rises=F Damp=F
 DIIS: error= 3.06D-08 at cycle   4 NSaved=   4.
 NSaved= 4 IEnMin= 4 EnMin= -99.7275191905239     IErMin= 4 ErrMin= 3.06D-08
 ErrMax= 3.06D-08  0.00D+00 EMaxC= 1.00D-01 BMatC= 5.14D-14 BMatP= 1.71D-12
 IDIUse=1 WtCom= 1.00D+00 WtEn= 0.00D+00
 Coeff-Com:  0.275D-01 0.868D-02 0.196D+00 0.768D+00
 Coeff:      0.275D-01 0.868D-02 0.196D+00 0.768D+00
 Gap=     0.349 Goal=   None    Shift=    0.000
 RMSDP=4.00D-09 MaxDP=3.65D-08 DE=-1.32D-12 OVMax= 4.26D-08

 SCF Done:  E(RS-VWN5) =  -99.7275191905     A.U. after    9 cycles
            NFock=  9  Conv=0.40D-08     -V/T= 2.0026
 KE= 9.947165172236D+01 PE=-2.495853458601D+02 EE= 4.519823654300D+01
 Leave Link  502 at Mon Mar 21 19:57:56 2022, MaxMem=  8589934592 cpu:               1.3 elap:               0.2
 (Enter /home/sabyasachi/g16/l801.exe)
 DoSCS=F DFT=T ScalE2(SS,OS)=  1.000000  1.000000
 ExpMin= 8.34D-02 ExpMax= 2.89D+03 ExpMxC= 4.35D+02 IAcc=3 IRadAn=         5 AccDes= 0.00D+00
 HarFok:  IExCor=  205 AccDes= 0.00D+00 IRadAn=         5 IDoV=-2 UseB2=F ITyADJ=14
 ICtDFT= 12500011 ScaDFX=  1.000000  1.000000  1.000000  1.000000
 Largest valence mixing into a core orbital is  1.00D-05
 Largest core mixing into a valence orbital is  5.72D-07
 Range of M.O.s used for correlation:     2    31
 NBasis=    31 NAE=     5 NBE=     5 NFC=     1 NFV=     0
 NROrb=     30 NOA=     4 NOB=     4 NVA=    26 NVB=    26
 Leave Link  801 at Mon Mar 21 19:57:56 2022, MaxMem=  8589934592 cpu:               0.3 elap:               0.1
 (Enter /home/sabyasachi/g16/l914.exe)
 RHF ground state
 Keep J ints in memory in symmetry-blocked form, NReq=23996452.
 FoFCou: FMM=F IPFlag=           0 FMFlag=           0 FMFlg1=           0
         NFxFlg=           0 DoJE=F BraDBF=F KetDBF=F FulRan=T
         wScrn=  0.000000 ICntrl=       600 IOpCl=  0 I1Cent=           0 NGrid=           0
         NMat0=    1 NMatS0=    496 NMatT0=    0 NMatD0=    1 NMtDS0=    0 NMtDT0=    0
 Petite list used in FoFCou.
 MDV=  8589934592 DFT=T DoStab=F Mixed=F DoRPA=T DoScal=T NonHer=F
 Making orbital integer symmetry assigments:
 Orbital symmetries:
       Occupied  (SG) (SG) (SG) (PI) (PI)
       Virtual   (SG) (PI) (PI) (SG) (SG) (PI) (PI) (SG) (DLTA)
                 (DLTA) (SG) (PI) (PI) (SG) (PI) (PI) (SG) (PI)
                 (PI) (SG) (SG) (DLTA) (DLTA) (PI) (PI) (SG)
   104 initial guesses have been made.
 Convergence on wavefunction:    0.001000000000000
 Davidson Disk Diagonalization:  ConvIn= 1.00D-03 SkipCon=T Conv= 1.00D-03.
 Max sub-space:   416 roots to seek:   208 dimension of matrix:          208
 *** WARNING: Number of orthogonal guesses is          104
 Iteration     1 Dimension   104 NMult     0 NNew    104
 CISAX will form   104 AO SS matrices at one time.
 NMat=   104 NSing=   104 JSym2X=-1.
 New state      1 was old state      2
 New state      2 was old state      1
 New state      6 was old state      7
 New state      7 was old state      9
 New state      9 was old state      6
 New state     10 was old state     11
 New state     11 was old state     10
 New state     12 was old state     15
 New state     15 was old state     12
 New state     19 was old state     20
 New state     20 was old state     19
 New state     21 was old state     23
 New state     23 was old state     21
 New state     25 was old state     26
 New state     26 was old state     25
 New state     27 was old state     28
 New state     28 was old state     27
 New state     29 was old state     30
 New state     30 was old state     29
 New state     33 was old state     34
 New state     34 was old state     36
 New state     36 was old state     33
 New state     39 was old state     40
 New state     40 was old state     39
 New state     41 was old state     43
 New state     42 was old state     41
 New state     43 was old state     42
 New state     47 was old state     48
 New state     48 was old state     47
 New state     54 was old state     56
 New state     56 was old state     57
 New state     57 was old state     58
 New state     58 was old state     59
 New state     59 was old state     60
 New state     60 was old state     61
 New state     61 was old state     63
 New state     63 was old state     64
 New state     64 was old state     65
 New state     65 was old state     66
 New state     66 was old state     67
 New state     67 was old state     68
 New state     68 was old state     69
 New state     69 was old state     54
 New state     70 was old state     71
 New state     71 was old state     70
 New state     74 was old state     75
 New state     75 was old state     74
 New state     85 was old state     86
 New state     86 was old state     85
 New state     87 was old state     89
 New state     88 was old state     90
 New state     89 was old state     87
 New state     90 was old state     88
 New state     93 was old state     94
 New state     94 was old state     93
 New state     95 was old state     96
 New state     96 was old state     95
 New state     99 was old state    100
 New state    100 was old state     99
 New state    101 was old state    102
 New state    102 was old state    101
 Excitation Energies [eV] at current iteration:
 Root      1 :     9.670983532818505
 Root      2 :     9.670983532819033
 Root      3 :    13.564291001020370
 Root      4 :    13.674584581345010
 Root      5 :    13.674584584142440
 Root      6 :    13.692729761249340
 Root      7 :    13.728584471712160
 Root      8 :    13.728584471712600
 Root      9 :    15.177128381605860
 Root     10 :    15.480556725709220
 Root     11 :    15.480556725709840
 Root     12 :    16.216149332164390
 Root     13 :    16.216149341022330
 Root     14 :    16.353748877105870
 Root     15 :    16.387763410956450
 Root     16 :    17.453954711951130
 Root     17 :    17.453954711951290
 Root     18 :    17.869705137388150
 Root     19 :    18.709353742681040
 Root     20 :    18.709353742681860
 Root     21 :    20.019510718184870
 Root     22 :    20.019510718185040
 Root     23 :    20.174757824702400
 Root     24 :    23.092585115532470
 Root     25 :    24.071175710338800
 Root     26 :    24.071175710338840
 Root     27 :    25.110883526787180
 Root     28 :    25.110883526787210
 Root     29 :    26.739478598055470
 Root     30 :    26.739478598055700
 Root     31 :    27.963189377086040
 Root     32 :    27.963189386057300
 Root     33 :    28.627793585942290
 Root     34 :    28.627793586326140
 Root     35 :    28.727257700197300
 Root     36 :    29.200049958487920
 Root     37 :    29.973702444775220
 Root     38 :    31.756818827212140
 Root     39 :    32.854290828690300
 Root     40 :    32.854290828690420
 Root     41 :    33.455982605887420
 Root     42 :    33.666131796575630
 Root     43 :    33.666131796575690
 Root     44 :    35.285261993935890
 Root     45 :    35.908781488308630
 Root     46 :    35.908781488308670
 Root     47 :    36.880161469730630
 Root     48 :    36.880161469730680
 Root     49 :    38.808688993622360
 Root     50 :    41.305407786811650
 Root     51 :    43.981124976595680
 Root     52 :    43.981124988568960
 Root     53 :    44.044978355067840
 Root     54 :    44.448609259185710
 Root     55 :    44.448609306981030
 Root     56 :    46.432227734064060
 Root     57 :    48.008075623970550
 Root     58 :    48.008075623970580
 Root     59 :    48.560636277923480
 Root     60 :    48.560636277923530
 Root     61 :    50.028363325999690
 Root     62 :    50.028363325999700
 Root     63 :    50.518781355381750
 Root     64 :    56.829084491382830
 Root     65 :    58.028562294306030
 Root     66 :    58.028562296070550
 Root     67 :    58.136027292410160
 Root     68 :    58.170693842877980
 Root     69 :    59.599739266174550
 Root     70 :    61.295240370937480
 Root     71 :    61.295240370937690
 Root     72 :    62.374688075943630
 Root     73 :    62.374688075943690
 Root     74 :    64.713356292818200
 Root     75 :    64.713356292818230
 Root     76 :    65.702374833871220
 Root     77 :    71.832501166091690
 Root     78 :    72.343521229241160
 Root     79 :    72.343521229241180
 Root     80 :    77.305836189041810
 Root     81 :    78.028911834395200
 Root     82 :    78.028911834395390
 Root     83 :    83.904835879807050
 Root     84 :    93.043436004671050
 Root     85 :    97.657095225632120
 Root     86 :    97.657095225632160
 Root     87 :   101.099894323144200
 Root     88 :   101.099894445809000
 Root     89 :   101.634961093850400
 Root     90 :   101.634961093850400
 Root     91 :   101.784053860934900
 Root     92 :   102.164309087908300
 Root     93 :   102.164309099547200
 Root     94 :   108.109008051348800
 Root     95 :   110.499714588374400
 Root     96 :   110.499714588374500
 Root     97 :   118.685134258172500
 Root     98 :   118.685134358443500
 Root     99 :   123.332453704530500
 Root    100 :   123.332453704530600
 Root    101 :   127.887752964056400
 Root    102 :   127.887752964056400
 Root    103 :   133.343275277967900
 Root    104 :   147.522683376955000
 Vector   6 has DEMin= 5.55D-16 removing all elements with DE> 1.00D-12.
 Vector  14 has DEMin= 9.99D-16 removing all elements with DE> 1.00D-12.
 Vector  35 has DEMin= 2.22D-16 removing all elements with DE> 1.00D-12.
 Vector  53 has DEMin= 4.44D-16 removing all elements with DE> 1.00D-12.
 Vector  67 has DEMin= 2.66D-15 removing all elements with DE> 1.00D-12.
 Vector  91 has DEMin= 8.88D-16 removing all elements with DE> 1.00D-12.
 Convergence achieved for final wavefunctions.
 ***********************************************************************
 Excited states from <AA,BB:AA,BB> singles matrix:
 ***********************************************************************
 
 1PDM for each excited state written to RWF  633
 Ground to excited state transition densities written to RWF  633
 Ground to excited state transition electric dipole moments (Au):
       state          X           Y           Z        Dip. S.      Osc.
         1         0.3791     -0.0007     -0.0000      0.1437      0.0341
         2         0.0007      0.3791     -0.0000      0.1437      0.0341
         3        -0.0000     -0.0000      0.6401      0.4097      0.1361
         4        -0.0000     -0.0000     -0.0000      0.0000      0.0000
         5        -0.0000     -0.0000      0.0000      0.0000      0.0000
         6        -0.0000     -0.0000     -0.0000      0.0000      0.0000
         7         0.2518      0.0550     -0.0000      0.0664      0.0223
         8        -0.0550      0.2518     -0.0000      0.0664      0.0223
         9        -0.0000     -0.0000     -0.1767      0.0312      0.0116
        10        -0.4368     -0.1292     -0.0000      0.2074      0.0787
        11         0.1292     -0.4368     -0.0000      0.2074      0.0787
        12        -0.0000     -0.0000      0.0000      0.0000      0.0000
        13        -0.0000     -0.0000     -0.0000      0.0000      0.0000
        14        -0.0000     -0.0000     -0.0000      0.0000      0.0000
        15        -0.0000     -0.0000     -0.7105      0.5049      0.2027
        16        -0.0021     -0.0002     -0.0000      0.0000      0.0000
        17         0.0002     -0.0021     -0.0000      0.0000      0.0000
        18        -0.0000     -0.0000      0.3232      0.1044      0.0457
        19         0.1668      0.0617     -0.0000      0.0316      0.0145
        20        -0.0617      0.1668     -0.0000      0.0316      0.0145
        21        -0.3899     -0.0492     -0.0000      0.1545      0.0758
        22         0.0492     -0.3899     -0.0000      0.1545      0.0758
        23        -0.0000     -0.0000      0.4422      0.1956      0.0967
        24        -0.0000     -0.0000      0.3347      0.1120      0.0634
        25        -0.0000      0.0000     -0.0000      0.0000      0.0000
        26         0.0000      0.0000     -0.0000      0.0000      0.0000
        27         0.6860     -0.4780     -0.0000      0.6991      0.4301
        28         0.4780      0.6860     -0.0000      0.6991      0.4301
        29         0.4153     -0.2944     -0.0000      0.2592      0.1698
        30         0.2944      0.4153     -0.0000      0.2592      0.1698
        31        -0.0000     -0.0000     -0.0000      0.0000      0.0000
        32        -0.0000     -0.0000      0.0000      0.0000      0.0000
        33        -0.0000     -0.0000     -0.0000      0.0000      0.0000
        34        -0.0000     -0.0000     -0.0000      0.0000      0.0000
        35        -0.0000     -0.0000     -0.0000      0.0000      0.0000
        36        -0.0000     -0.0000      0.4860      0.2362      0.1690
        37        -0.0000     -0.0000      0.2380      0.0567      0.0416
        38        -0.0000     -0.0000     -0.8385      0.7030      0.5470
        39         0.5251      0.2614     -0.0000      0.3440      0.2769
        40        -0.2614      0.5251     -0.0000      0.3440      0.2769
        41        -0.0000     -0.0000      0.1096      0.0120      0.0098
        42         0.1194      0.0731     -0.0000      0.0196      0.0162
        43        -0.0731      0.1194     -0.0000      0.0196      0.0162
        44        -0.0000     -0.0000      0.1195      0.0143      0.0124
        45         0.0446     -0.0482     -0.0000      0.0043      0.0038
        46        -0.0482     -0.0446     -0.0000      0.0043      0.0038
        47        -0.0571      0.0417     -0.0000      0.0050      0.0045
        48        -0.0417     -0.0571     -0.0000      0.0050      0.0045
        49        -0.0000     -0.0000      0.1661      0.0276      0.0262
        50        -0.0000     -0.0000     -0.0445      0.0020      0.0020
        51        -0.0000     -0.0000     -0.0000      0.0000      0.0000
        52        -0.0000     -0.0000     -0.0000      0.0000      0.0000
        53        -0.0000     -0.0000     -0.0000      0.0000      0.0000
        54        -0.0000     -0.0000     -0.0000      0.0000      0.0000
        55        -0.0000     -0.0000     -0.0000      0.0000      0.0000
        56        -0.0000     -0.0000     -0.0247      0.0006      0.0007
        57         0.0077      0.0065     -0.0000      0.0001      0.0001
        58        -0.0065      0.0077     -0.0000      0.0001      0.0001
        59        -0.0081      0.0614     -0.0000      0.0038      0.0046
        60         0.0614      0.0081     -0.0000      0.0038      0.0046
        61         0.1449      0.1077     -0.0000      0.0326      0.0400
        62        -0.1077      0.1449     -0.0000      0.0326      0.0400
        63        -0.0000     -0.0000      0.2443      0.0597      0.0739
        64        -0.0000     -0.0000     -0.1883      0.0354      0.0494
        65        -0.0000     -0.0000     -0.0000      0.0000      0.0000
        66        -0.0000     -0.0000     -0.0000      0.0000      0.0000
        67        -0.0000     -0.0000     -0.0000      0.0000      0.0000
        68        -0.0000     -0.0000     -0.2442      0.0596      0.0850
        69        -0.0000     -0.0000     -0.1633      0.0267      0.0389
        70        -0.0405      0.0022     -0.0000      0.0016      0.0025
        71        -0.0022     -0.0405     -0.0000      0.0016      0.0025
        72         0.0828     -0.2537     -0.0000      0.0712      0.1089
        73        -0.2537     -0.0828     -0.0000      0.0712      0.1089
        74         0.1497     -0.3843     -0.0000      0.1701      0.2697
        75        -0.3843     -0.1497     -0.0000      0.1701      0.2697
        76        -0.0000     -0.0000      0.1080      0.0117      0.0188
        77        -0.0000     -0.0000     -0.2186      0.0478      0.0841
        78        -0.0366     -0.0950     -0.0000      0.0104      0.0184
        79        -0.0950      0.0366     -0.0000      0.0104      0.0184
        80        -0.0000     -0.0000      0.1032      0.0107      0.0202
        81         0.0051     -0.0382     -0.0000      0.0015      0.0028
        82        -0.0382     -0.0051     -0.0000      0.0015      0.0028
        83        -0.0000     -0.0000     -0.1285      0.0165      0.0339
        84        -0.0000     -0.0000      0.1057      0.0112      0.0255
        85        -0.0000      0.0000     -0.0000      0.0000      0.0000
        86         0.0000      0.0000     -0.0000      0.0000      0.0000
        87        -0.0000     -0.0000     -0.0000      0.0000      0.0000
        88        -0.0000     -0.0000      0.0000      0.0000      0.0000
        89        -0.1723      0.2750     -0.0000      0.1053      0.2622
        90         0.2750      0.1723     -0.0000      0.1053      0.2622
        91        -0.0000     -0.0000     -0.0000      0.0000      0.0000
        92        -0.0000     -0.0000      0.0000      0.0000      0.0000
        93        -0.0000     -0.0000     -0.0000      0.0000      0.0000
        94        -0.0000     -0.0000      0.4588      0.2105      0.5575
        95        -0.2437      0.4249     -0.0000      0.2400      0.6497
        96         0.4249      0.2437     -0.0000      0.2400      0.6497
        97        -0.0000     -0.0000     -0.0000      0.0000      0.0000
        98        -0.0000     -0.0000     -0.0000      0.0000      0.0000
        99         0.0345      0.0583     -0.0000      0.0046      0.0139
       100         0.0583     -0.0345     -0.0000      0.0046      0.0139
       101        -0.1676     -0.0908     -0.0000      0.0363      0.1139
       102         0.0908     -0.1676     -0.0000      0.0363      0.1139
       103        -0.0000     -0.0000      0.2666      0.0711      0.2321
       104        -0.0000     -0.0000     -0.0020      0.0000      0.0000
 Ground to excited state transition velocity dipole moments (Au):
       state          X           Y           Z        Dip. S.      Osc.
         1        -0.1327      0.0002      0.0000      0.0176      0.0330
         2        -0.0002     -0.1327      0.0000      0.0176      0.0330
         3         0.0000      0.0000     -0.3239      0.1049      0.1403
         4         0.0000      0.0000      0.0000      0.0000      0.0000
         5         0.0000      0.0000     -0.0000      0.0000      0.0000
         6         0.0000      0.0000      0.0000      0.0000      0.0000
         7        -0.1341     -0.0293      0.0000      0.0189      0.0249
         8         0.0293     -0.1341      0.0000      0.0189      0.0249
         9         0.0000      0.0000      0.1002      0.0100      0.0120
        10         0.2349      0.0695      0.0000      0.0600      0.0703
        11        -0.0695      0.2349      0.0000      0.0600      0.0703
        12         0.0000      0.0000     -0.0000      0.0000      0.0000
        13         0.0000      0.0000      0.0000      0.0000      0.0000
        14         0.0000      0.0000      0.0000      0.0000      0.0000
        15         0.0000      0.0000      0.3995      0.1596      0.1767
        16         0.0115      0.0002      0.0000      0.0001      0.0001
        17        -0.0002      0.0115      0.0000      0.0001      0.0001
        18         0.0000      0.0000     -0.2054      0.0422      0.0428
        19        -0.1280     -0.0474      0.0000      0.0186      0.0180
        20         0.0474     -0.1280      0.0000      0.0186      0.0180
        21         0.2907      0.0367      0.0000      0.0859      0.0778
        22        -0.0367      0.2907      0.0000      0.0859      0.0778
        23         0.0000      0.0000     -0.3042      0.0925      0.0832
        24         0.0000      0.0000     -0.2987      0.0892      0.0701
        25         0.0000     -0.0000      0.0000      0.0000      0.0000
        26        -0.0000     -0.0000      0.0000      0.0000      0.0000
        27        -0.6278      0.4374      0.0000      0.5855      0.4230
        28        -0.4374     -0.6278      0.0000      0.5855      0.4230
        29        -0.4154      0.2944      0.0000      0.2593      0.1759
        30        -0.2944     -0.4154      0.0000      0.2593      0.1759
        31         0.0000      0.0000      0.0000      0.0000      0.0000
        32         0.0000      0.0000     -0.0000      0.0000      0.0000
        33         0.0000      0.0000      0.0000      0.0000      0.0000
        34         0.0000      0.0000      0.0000      0.0000      0.0000
        35         0.0000      0.0000      0.0000      0.0000      0.0000
        36         0.0000      0.0000     -0.5729      0.3283      0.2039
        37         0.0000      0.0000     -0.2452      0.0601      0.0364
        38         0.0000      0.0000      1.0035      1.0071      0.5753
        39        -0.6470     -0.3221      0.0000      0.5224      0.2884
        40         0.3221     -0.6470      0.0000      0.5224      0.2884
        41         0.0000      0.0000     -0.1373      0.0189      0.0102
        42        -0.1750     -0.1072      0.0000      0.0421      0.0227
        43         0.1072     -0.1750      0.0000      0.0421      0.0227
        44         0.0000      0.0000     -0.1207      0.0146      0.0075
        45        -0.0673      0.0728      0.0000      0.0098      0.0050
        46         0.0728      0.0673      0.0000      0.0098      0.0050
        47         0.0709     -0.0518      0.0000      0.0077      0.0038
        48         0.0518      0.0709      0.0000      0.0077      0.0038
        49         0.0000      0.0000     -0.2289      0.0524      0.0245
        50         0.0000      0.0000      0.0520      0.0027      0.0012
        51         0.0000      0.0000      0.0000      0.0000      0.0000
        52         0.0000      0.0000      0.0000      0.0000      0.0000
        53         0.0000      0.0000      0.0000      0.0000      0.0000
        54         0.0000      0.0000      0.0000      0.0000      0.0000
        55         0.0000      0.0000      0.0000      0.0000      0.0000
        56         0.0000      0.0000      0.0231      0.0005      0.0002
        57        -0.0321     -0.0273      0.0000      0.0018      0.0007
        58         0.0273     -0.0321      0.0000      0.0018      0.0007
        59         0.0157     -0.1199      0.0000      0.0146      0.0055
        60        -0.1199     -0.0157      0.0000      0.0146      0.0055
        61        -0.3139     -0.2332      0.0000      0.1529      0.0554
        62         0.2332     -0.3139      0.0000      0.1529      0.0554
        63         0.0000      0.0000     -0.4784      0.2288      0.0822
        64         0.0000      0.0000      0.4427      0.1960      0.0626
        65         0.0000      0.0000      0.0000      0.0000      0.0000
        66         0.0000      0.0000      0.0000      0.0000      0.0000
        67         0.0000      0.0000      0.0000      0.0000      0.0000
        68         0.0000      0.0000      0.4549      0.2070      0.0645
        69         0.0000      0.0000      0.3021      0.0912      0.0278
        70         0.1173     -0.0063      0.0000      0.0138      0.0041
        71         0.0063      0.1173      0.0000      0.0138      0.0041
        72        -0.1694      0.5192      0.0000      0.2983      0.0868
        73         0.5192      0.1694      0.0000      0.2983      0.0868
        74        -0.3751      0.9627      0.0000      1.0676      0.2993
        75         0.9627      0.3751      0.0000      1.0676      0.2993
        76         0.0000      0.0000     -0.2526      0.0638      0.0176
        77         0.0000      0.0000      0.6041      0.3650      0.0922
        78         0.0723      0.1878      0.0000      0.0405      0.0102
        79         0.1878     -0.0723      0.0000      0.0405      0.0102
        80         0.0000      0.0000     -0.2769      0.0767      0.0180
        81        -0.0056      0.0424      0.0000      0.0018      0.0004
        82         0.0424      0.0056      0.0000      0.0018      0.0004
        83         0.0000      0.0000      0.3949      0.1559      0.0337
        84         0.0000      0.0000     -0.4058      0.1646      0.0321
        85         0.0000     -0.0000      0.0000      0.0000      0.0000
        86        -0.0000     -0.0000      0.0000      0.0000      0.0000
        87         0.0000      0.0000      0.0000      0.0000      0.0000
        88         0.0000      0.0000     -0.0000      0.0000      0.0000
        89         0.5682     -0.9071      0.0000      1.1457      0.2045
        90        -0.9071     -0.5682      0.0000      1.1457      0.2045
        91         0.0000      0.0000      0.0000      0.0000      0.0000
        92         0.0000      0.0000     -0.0000      0.0000      0.0000
        93         0.0000      0.0000      0.0000      0.0000      0.0000
        94         0.0000      0.0000     -1.6446      2.7047      0.4539
        95         0.8785     -1.5317      0.0000      3.1180      0.5119
        96        -1.5317     -0.8785      0.0000      3.1180      0.5119
        97         0.0000      0.0000      0.0000      0.0000      0.0000
        98         0.0000      0.0000      0.0000      0.0000      0.0000
        99        -0.1398     -0.2363      0.0000      0.0754      0.0111
       100        -0.2363      0.1398      0.0000      0.0754      0.0111
       101         0.7347      0.3979      0.0000      0.6981      0.0990
       102        -0.3979      0.7347      0.0000      0.6981      0.0990
       103         0.0000      0.0000     -1.2096      1.4631      0.1991
       104         0.0000      0.0000     -0.0199      0.0004      0.0000
 Ground to excited state transition magnetic dipole moments (Au):
       state          X           Y           Z
         1         0.0002      0.1064      0.0000
         2        -0.1064      0.0002      0.0000
         3         0.0000      0.0000      0.0000
         4         0.0000      0.0000      0.0000
         5         0.0000      0.0000      0.0000
         6         0.0000      0.0000     -0.0000
         7        -0.0063      0.0290      0.0000
         8        -0.0290     -0.0063      0.0000
         9         0.0000      0.0000      0.0000
        10        -0.0411      0.1390      0.0000
        11        -0.1390     -0.0411      0.0000
        12         0.0000      0.0000      0.0000
        13         0.0000      0.0000     -0.0000
        14         0.0000      0.0000      0.0000
        15         0.0000      0.0000      0.0000
        16         0.0007     -0.0553      0.0000
        17         0.0553      0.0007      0.0000
        18         0.0000      0.0000      0.0000
        19        -0.0292      0.0789      0.0000
        20        -0.0789     -0.0292      0.0000
        21         0.0221     -0.1753      0.0000
        22         0.1753      0.0221      0.0000
        23         0.0000      0.0000      0.0000
        24         0.0000      0.0000      0.0000
        25         0.0000      0.0000      0.0000
        26         0.0000     -0.0000      0.0000
        27        -0.0186     -0.0268      0.0000
        28         0.0268     -0.0186      0.0000
        29        -0.0935     -0.1319      0.0000
        30         0.1319     -0.0935      0.0000
        31         0.0000      0.0000      0.0000
        32         0.0000      0.0000      0.0000
        33         0.0000      0.0000     -0.0000
        34         0.0000      0.0000      0.0000
        35         0.0000      0.0000      0.0000
        36         0.0000      0.0000      0.0000
        37         0.0000      0.0000      0.0000
        38         0.0000      0.0000      0.0000
        39        -0.0325      0.0653      0.0000
        40        -0.0653     -0.0325      0.0000
        41         0.0000      0.0000      0.0000
        42        -0.0174      0.0284      0.0000
        43        -0.0284     -0.0174      0.0000
        44         0.0000      0.0000      0.0000
        45         0.0523      0.0483      0.0000
        46         0.0483     -0.0523      0.0000
        47        -0.0478     -0.0655      0.0000
        48         0.0655     -0.0478      0.0000
        49         0.0000      0.0000      0.0000
        50         0.0000      0.0000      0.0000
        51         0.0000      0.0000      0.0000
        52         0.0000      0.0000      0.0000
        53         0.0000      0.0000      0.0000
        54         0.0000      0.0000      0.0000
        55         0.0000      0.0000      0.0000
        56         0.0000      0.0000      0.0000
        57         0.0999     -0.1177      0.0000
        58         0.1177      0.0999      0.0000
        59        -0.1020     -0.0134      0.0000
        60        -0.0134      0.1020      0.0000
        61         0.0474     -0.0638      0.0000
        62         0.0638      0.0474      0.0000
        63         0.0000      0.0000      0.0000
        64         0.0000      0.0000      0.0000
        65         0.0000      0.0000      0.0000
        66         0.0000      0.0000     -0.0000
        67         0.0000      0.0000      0.0000
        68         0.0000      0.0000      0.0000
        69         0.0000      0.0000      0.0000
        70         0.0092      0.1681      0.0000
        71        -0.1681      0.0092      0.0000
        72         0.2520      0.0822      0.0000
        73         0.0822     -0.2520      0.0000
        74        -0.0465     -0.0181      0.0000
        75        -0.0181      0.0465      0.0000
        76         0.0000      0.0000      0.0000
        77         0.0000      0.0000      0.0000
        78        -0.0982      0.0379      0.0000
        79         0.0379      0.0982      0.0000
        80         0.0000      0.0000      0.0000
        81         0.2229      0.0294      0.0000
        82         0.0294     -0.2229      0.0000
        83         0.0000      0.0000      0.0000
        84         0.0000      0.0000      0.0000
        85         0.0000      0.0000      0.0000
        86         0.0000     -0.0000      0.0000
        87         0.0000      0.0000      0.0000
        88         0.0000      0.0000      0.0000
        89         0.1172      0.0734      0.0000
        90         0.0734     -0.1172      0.0000
        91         0.0000      0.0000     -0.0000
        92         0.0000      0.0000      0.0000
        93         0.0000      0.0000     -0.0000
        94         0.0000      0.0000      0.0000
        95         0.2484      0.1425      0.0000
        96         0.1425     -0.2484      0.0000
        97         0.0000      0.0000      0.0000
        98         0.0000      0.0000      0.0000
        99         0.0187     -0.0111      0.0000
       100        -0.0111     -0.0187      0.0000
       101        -0.0491      0.0906      0.0000
       102        -0.0906     -0.0491      0.0000
       103         0.0000      0.0000      0.0000
       104         0.0000      0.0000      0.0000
 Ground to excited state transition velocity quadrupole moments (Au):
       state          XX          YY          ZZ          XY          XZ          YZ
         1         0.0000      0.0000      0.0000      0.0000      0.0823     -0.0001
         2         0.0000      0.0000      0.0000      0.0000      0.0001      0.0823
         3        -0.2684     -0.2684      0.4820      0.0000      0.0000      0.0000
         4         0.0000      0.0000      0.0000     -0.4601      0.0000      0.0000
         5         0.4601     -0.4601      0.0000      0.0000      0.0000      0.0000
         6         0.0000      0.0000      0.0000      0.0000      0.0000      0.0000
         7         0.0000      0.0000      0.0000      0.0000     -0.2901     -0.0632
         8         0.0000      0.0000      0.0000      0.0000      0.0632     -0.2901
         9        -0.7166     -0.7166     -0.2264      0.0000      0.0000      0.0000
        10         0.0000      0.0000      0.0000      0.0000     -0.0054     -0.0016
        11         0.0000      0.0000      0.0000      0.0000      0.0016     -0.0054
        12        -0.0355      0.0355      0.0000      0.0000      0.0000      0.0000
        13         0.0000      0.0000      0.0000      0.0355      0.0000      0.0000
        14         0.0000      0.0000      0.0000     -0.0000      0.0000      0.0000
        15        -0.0325     -0.0325     -0.2539      0.0000      0.0000      0.0000
        16         0.0000      0.0000      0.0000      0.0000     -0.3670     -0.0046
        17         0.0000      0.0000      0.0000      0.0000      0.0046     -0.3670
        18        -0.4433     -0.4433     -0.6977      0.0000      0.0000      0.0000
        19         0.0000      0.0000      0.0000      0.0000      0.1365      0.0505
        20         0.0000      0.0000      0.0000      0.0000     -0.0505      0.1365
        21         0.0000      0.0000      0.0000      0.0000     -0.3078     -0.0388
        22         0.0000      0.0000      0.0000      0.0000      0.0388     -0.3078
        23         0.2368      0.2368      0.8059      0.0000      0.0000      0.0000
        24         0.2631      0.2631      0.3620      0.0000      0.0000      0.0000
        25         0.0000      0.0000      0.0000      0.0000      0.0000     -0.0000
        26         0.0000      0.0000      0.0000      0.0000     -0.0000     -0.0000
        27         0.0000      0.0000      0.0000      0.0000     -0.0913      0.0636
        28         0.0000      0.0000      0.0000      0.0000     -0.0636     -0.0913
        29         0.0000      0.0000      0.0000      0.0000      0.0972     -0.0689
        30         0.0000      0.0000      0.0000      0.0000      0.0689      0.0972
        31         0.0000      0.0000      0.0000     -0.2045      0.0000      0.0000
        32        -0.2045      0.2045     -0.0000      0.0000      0.0000      0.0000
        33         0.0000      0.0000      0.0000      0.0204      0.0000      0.0000
        34        -0.0204      0.0204      0.0000      0.0000      0.0000      0.0000
        35         0.0000      0.0000      0.0000     -0.0000      0.0000      0.0000
        36         0.1417      0.1417      0.0281      0.0000      0.0000      0.0000
        37         0.3243      0.3243      0.7259      0.0000      0.0000      0.0000
        38         0.0694      0.0694      1.1240      0.0000      0.0000      0.0000
        39         0.0000      0.0000      0.0000      0.0000     -0.3855     -0.1919
        40         0.0000      0.0000      0.0000      0.0000      0.1919     -0.3855
        41         0.2291      0.2291      0.1844      0.0000      0.0000      0.0000
        42         0.0000      0.0000      0.0000      0.0000     -0.2748     -0.1683
        43         0.0000      0.0000      0.0000      0.0000      0.1683     -0.2748
        44        -0.4239     -0.4239      0.6650      0.0000      0.0000      0.0000
        45         0.0000      0.0000      0.0000      0.0000      0.3754     -0.4057
        46         0.0000      0.0000      0.0000      0.0000     -0.4057     -0.3754
        47         0.0000      0.0000      0.0000      0.0000      0.2229     -0.1628
        48         0.0000      0.0000      0.0000      0.0000      0.1628      0.2229
        49         0.3122      0.3122      0.4186      0.0000      0.0000      0.0000
        50         0.4642      0.4642     -1.1245      0.0000      0.0000      0.0000
        51         0.0000      0.0000      0.0000      0.9648      0.0000      0.0000
        52         0.9648     -0.9648     -0.0000      0.0000      0.0000      0.0000
        53         0.0000      0.0000      0.0000      0.0000      0.0000      0.0000
        54         0.0000      0.0000      0.0000     -0.3891      0.0000      0.0000
        55         0.3891     -0.3891      0.0000      0.0000      0.0000      0.0000
        56         0.5816      0.5816     -0.8086      0.0000      0.0000      0.0000
        57         0.0000      0.0000      0.0000      0.0000     -0.2063     -0.1750
        58         0.0000      0.0000      0.0000      0.0000      0.1750     -0.2063
        59         0.0000      0.0000      0.0000      0.0000     -0.1128      0.8593
        60         0.0000      0.0000      0.0000      0.0000      0.8593      0.1128
        61         0.0000      0.0000      0.0000      0.0000     -0.4443     -0.3302
        62         0.0000      0.0000      0.0000      0.0000      0.3302     -0.4443
        63         0.2979      0.2979      0.7779      0.0000      0.0000      0.0000
        64         0.2515      0.2515      0.6560      0.0000      0.0000      0.0000
        65        -0.4099      0.4099     -0.0000      0.0000      0.0000      0.0000
        66         0.0000      0.0000      0.0000      0.4099      0.0000      0.0000
        67         0.0000      0.0000      0.0000     -0.0000      0.0000      0.0000
        68        -0.0106     -0.0106     -1.5488      0.0000      0.0000      0.0000
        69         1.0954      1.0954      0.0965      0.0000      0.0000      0.0000
        70         0.0000      0.0000      0.0000      0.0000     -0.0214      0.0012
        71         0.0000      0.0000      0.0000      0.0000     -0.0012     -0.0214
        72         0.0000      0.0000      0.0000      0.0000      0.3211     -0.9845
        73         0.0000      0.0000      0.0000      0.0000     -0.9845     -0.3211
        74         0.0000      0.0000      0.0000      0.0000      0.0787     -0.2022
        75         0.0000      0.0000      0.0000      0.0000     -0.2022     -0.0787
        76        -0.5176     -0.5176      0.4853      0.0000      0.0000      0.0000
        77         0.9183      0.9183      1.2190      0.0000      0.0000      0.0000
        78         0.0000      0.0000      0.0000      0.0000      0.0188      0.0486
        79         0.0000      0.0000      0.0000      0.0000      0.0486     -0.0188
        80         0.1462      0.1462     -0.5105      0.0000      0.0000      0.0000
        81         0.0000      0.0000      0.0000      0.0000      0.0912     -0.6915
        82         0.0000      0.0000      0.0000      0.0000     -0.6915     -0.0912
        83        -1.2585     -1.2585     -0.1240      0.0000      0.0000      0.0000
        84        -0.0795     -0.0795      0.3522      0.0000      0.0000      0.0000
        85         0.0000      0.0000      0.0000      0.0000      0.0000     -0.0000
        86         0.0000      0.0000      0.0000      0.0000     -0.0000     -0.0000
        87         0.0000      0.0000      0.0000     -0.2147      0.0000      0.0000
        88        -0.2147      0.2147      0.0000      0.0000      0.0000      0.0000
        89         0.0000      0.0000      0.0000      0.0000     -0.0682      0.1088
        90         0.0000      0.0000      0.0000      0.0000      0.1088      0.0682
        91         0.0000      0.0000      0.0000     -0.0000      0.0000      0.0000
        92        -0.0231      0.0231      0.0000      0.0000      0.0000      0.0000
        93         0.0000      0.0000      0.0000      0.0231      0.0000      0.0000
        94         0.0927      0.0927     -0.8855      0.0000      0.0000      0.0000
        95         0.0000      0.0000      0.0000      0.0000      0.3820     -0.6661
        96         0.0000      0.0000      0.0000      0.0000     -0.6661     -0.3820
        97         0.0000      0.0000      0.0000      0.8098      0.0000      0.0000
        98         0.8098     -0.8098     -0.0000      0.0000      0.0000      0.0000
        99         0.0000      0.0000      0.0000      0.0000      0.2621      0.4428
       100         0.0000      0.0000      0.0000      0.0000      0.4428     -0.2621
       101         0.0000      0.0000      0.0000      0.0000      0.3464      0.1874
       102         0.0000      0.0000      0.0000      0.0000     -0.1874      0.3464
       103         0.2040      0.2040     -1.0883      0.0000      0.0000      0.0000
       104        -0.2064     -0.2064      0.3407      0.0000      0.0000      0.0000
 <0|del|b> * <b|rxdel|0> + <0|del|b> * <b|delr+rdel|0>
 Rotatory Strengths (R) in cgs (10**-40 erg-esu-cm/Gauss)
       state          XX          YY          ZZ    R(velocity)    E-M Angle
         1         0.0059     -0.0082     -0.0005     -0.0009       90.00
         2        -0.0082      0.0059     -0.0005     -0.0009       90.00
         3         0.0000      0.0000      0.0000      0.0000       90.00
         4         0.0000      0.0000      0.0000      0.0000       90.00
         5         0.0000      0.0000      0.0000      0.0000       90.00
         6         0.0000      0.0000      0.0000      0.0000       90.00
         7        -6.5516      6.5400      0.0122      0.0002       90.00
         8         6.5400     -6.5516      0.0122      0.0002       90.00
         9         0.0000      0.0000      0.0000      0.0000       90.00
        10         6.2337     -6.2300      0.0011      0.0016       90.00
        11        -6.2300      6.2337      0.0011      0.0016       90.00
        12         0.0000      0.0000      0.0000      0.0000       90.00
        13         0.0000      0.0000      0.0000      0.0000       90.00
        14         0.0000      0.0000      0.0000      0.0000       90.00
        15         0.0000      0.0000      0.0000      0.0000       90.00
        16         0.0416     -0.0245     -0.0229     -0.0020       90.00
        17        -0.0245      0.0416     -0.0229     -0.0020       90.00
        18         0.0000      0.0000      0.0000      0.0000       90.00
        19         1.4029     -1.4031     -0.0001     -0.0001       90.00
        20        -1.4031      1.4029     -0.0001     -0.0001       90.00
        21         2.3341     -2.3299     -0.0090     -0.0016       90.00
        22        -2.3299      2.3341     -0.0090     -0.0016       90.00
        23         0.0000      0.0000      0.0000      0.0000       90.00
        24         0.0000      0.0000      0.0000      0.0000       90.00
        25         0.0000     -0.0000     -0.0000     -0.0000       90.00
        26        -0.0000      0.0000     -0.0000     -0.0000       90.00
        27        10.8272    -10.8241     -0.0039     -0.0002       90.00
        28       -10.8241     10.8272     -0.0039     -0.0002       90.00
        29       -24.2692     24.2664      0.0046      0.0006       90.00
        30        24.2664    -24.2692      0.0046      0.0006       90.00
        31         0.0000      0.0000      0.0000      0.0000       90.00
        32         0.0000      0.0000      0.0000      0.0000       90.00
        33         0.0000      0.0000      0.0000      0.0000       90.00
        34         0.0000      0.0000      0.0000      0.0000       90.00
        35         0.0000      0.0000      0.0000      0.0000       90.00
        36         0.0000      0.0000      0.0000      0.0000       90.00
        37         0.0000      0.0000      0.0000      0.0000       90.00
        38         0.0000      0.0000      0.0000      0.0000       90.00
        39       -42.5258     42.5176      0.0106      0.0008       90.00
        40        42.5176    -42.5258      0.0106      0.0008       90.00
        41         0.0000      0.0000      0.0000      0.0000       90.00
        42        -9.2865      9.2835      0.0041      0.0004       90.00
        43         9.2835     -9.2865      0.0041      0.0004       90.00
        44         0.0000      0.0000      0.0000      0.0000       90.00
        45        -6.3757      6.3711      0.0047      0.0000       90.00
        46         6.3711     -6.3757      0.0047      0.0000       90.00
        47         3.8958     -3.8964      0.0008      0.0001       90.00
        48        -3.8964      3.8958      0.0008      0.0001       90.00
        49         0.0000      0.0000      0.0000      0.0000       90.00
        50         0.0000      0.0000      0.0000      0.0000       90.00
        51         0.0000      0.0000      0.0000      0.0000       90.00
        52         0.0000      0.0000      0.0000      0.0000       90.00
        53         0.0000      0.0000      0.0000      0.0000       90.00
        54         0.0000      0.0000      0.0000      0.0000       90.00
        55         0.0000      0.0000      0.0000      0.0000       90.00
        56         0.0000      0.0000      0.0000      0.0000       90.00
        57        -0.4839      0.4841     -0.0003     -0.0000       90.00
        58         0.4841     -0.4839     -0.0003     -0.0000       90.00
        59        -2.3602      2.3593      0.0012      0.0001       90.00
        60         2.3593     -2.3602      0.0012      0.0001       90.00
        61       -17.0698     17.0723     -0.0036     -0.0004       90.00
        62        17.0723    -17.0698     -0.0036     -0.0004       90.00
        63         0.0000      0.0000      0.0000      0.0000       90.00
        64         0.0000      0.0000      0.0000      0.0000       90.00
        65         0.0000      0.0000      0.0000      0.0000       90.00
        66         0.0000      0.0000      0.0000      0.0000       90.00
        67         0.0000      0.0000      0.0000      0.0000       90.00
        68         0.0000      0.0000      0.0000      0.0000       90.00
        69         0.0000      0.0000      0.0000      0.0000       90.00
        70        -0.1875      0.1902      0.0022      0.0016       90.00
        71         0.1902     -0.1875      0.0022      0.0016       90.00
        72       -19.1310     19.1391     -0.0092     -0.0003       90.00
        73        19.1391    -19.1310     -0.0092     -0.0003       90.00
        74       -13.8647     13.8675     -0.0042     -0.0005       90.00
        75        13.8675    -13.8647     -0.0042     -0.0005       90.00
        76         0.0000      0.0000      0.0000      0.0000       90.00
        77         0.0000      0.0000      0.0000      0.0000       90.00
        78         0.4765     -0.4772      0.0046      0.0013       90.00
        79        -0.4772      0.4765      0.0046      0.0013       90.00
        80         0.0000      0.0000      0.0000      0.0000       90.00
        81        -0.3225      0.3257     -0.0059     -0.0009       90.00
        82         0.3257     -0.3225     -0.0059     -0.0009       90.00
        83         0.0000      0.0000      0.0000      0.0000       90.00
        84         0.0000      0.0000      0.0000      0.0000       90.00
        85        -0.0000     -0.0000      0.0000     -0.0000       90.00
        86        -0.0000     -0.0000      0.0000     -0.0000       90.00
        87         0.0000      0.0000      0.0000      0.0000       90.00
        88         0.0000      0.0000      0.0000      0.0000       90.00
        89       -12.1622     12.1572      0.0047     -0.0001       90.00
        90        12.1572    -12.1622      0.0047     -0.0001       90.00
        91         0.0000      0.0000      0.0000      0.0000       90.00
        92         0.0000      0.0000      0.0000      0.0000       90.00
        93         0.0000      0.0000      0.0000      0.0000       90.00
        94         0.0000      0.0000      0.0000      0.0000       90.00
        95        31.9484    -31.9502      0.0022      0.0001       90.00
        96       -31.9502     31.9484      0.0022      0.0001       90.00
        97         0.0000      0.0000      0.0000      0.0000       90.00
        98         0.0000      0.0000      0.0000      0.0000       90.00
        99         5.0359     -5.0312     -0.0047      0.0000       90.00
       100        -5.0312      5.0359     -0.0047      0.0000       90.00
       101        -7.6583      7.6477      0.0114      0.0003       90.00
       102         7.6477     -7.6583      0.0114      0.0003       90.00
       103         0.0000      0.0000      0.0000      0.0000       90.00
       104         0.0000      0.0000      0.0000      0.0000       90.00
 1/2[<0|r|b>*<b|rxdel|0> + (<0|rxdel|b>*<b|r|0>)*]
 Rotatory Strengths (R) in cgs (10**-40 erg-esu-cm/Gauss)
       state          XX          YY          ZZ     R(length)
         1        -0.0560      0.0527      0.0000     -0.0011
         2         0.0527     -0.0560      0.0000     -0.0011
         3         0.0000      0.0000     -0.0000     -0.0000
         4         0.0000      0.0000      0.0000      0.0000
         5         0.0000      0.0000     -0.0000     -0.0000
         6         0.0000      0.0000     -0.0000     -0.0000
         7         1.1281     -1.1278      0.0000      0.0001
         8        -1.1278      1.1281      0.0000      0.0001
         9         0.0000      0.0000      0.0000      0.0000
        10       -12.6920     12.6969      0.0000      0.0017
        11        12.6969    -12.6920      0.0000      0.0017
        12         0.0000      0.0000     -0.0000     -0.0000
        13         0.0000      0.0000     -0.0000     -0.0000
        14         0.0000      0.0000      0.0000      0.0000
        15         0.0000      0.0000      0.0000      0.0000
        16         0.0010     -0.0074      0.0000     -0.0021
        17        -0.0074      0.0010      0.0000     -0.0021
        18         0.0000      0.0000     -0.0000     -0.0000
        19         3.4425     -3.4427      0.0000     -0.0001
        20        -3.4427      3.4425      0.0000     -0.0001
        21         6.0904     -6.0969      0.0000     -0.0022
        22        -6.0969      6.0904      0.0000     -0.0022
        23         0.0000      0.0000     -0.0000     -0.0000
        24         0.0000      0.0000     -0.0000     -0.0000
        25         0.0000     -0.0000      0.0000     -0.0000
        26        -0.0000      0.0000      0.0000     -0.0000
        27         9.0428     -9.0435      0.0000     -0.0002
        28        -9.0435      9.0428      0.0000     -0.0002
        29        27.4557    -27.4541      0.0000      0.0006
        30       -27.4541     27.4557      0.0000      0.0006
        31         0.0000      0.0000      0.0000      0.0000
        32         0.0000      0.0000     -0.0000     -0.0000
        33         0.0000      0.0000     -0.0000     -0.0000
        34         0.0000      0.0000      0.0000      0.0000
        35         0.0000      0.0000      0.0000      0.0000
        36         0.0000      0.0000     -0.0000     -0.0000
        37         0.0000      0.0000     -0.0000     -0.0000
        38         0.0000      0.0000      0.0000      0.0000
        39        12.0778    -12.0753      0.0000      0.0008
        40       -12.0753     12.0778      0.0000      0.0008
        41         0.0000      0.0000     -0.0000     -0.0000
        42         1.4684     -1.4675      0.0000      0.0003
        43        -1.4675      1.4684      0.0000      0.0003
        44         0.0000      0.0000     -0.0000     -0.0000
        45        -1.6483      1.6486      0.0000      0.0001
        46         1.6486     -1.6483      0.0000      0.0001
        47        -1.9306      1.9309      0.0000      0.0001
        48         1.9309     -1.9306      0.0000      0.0001
        49         0.0000      0.0000     -0.0000     -0.0000
        50         0.0000      0.0000      0.0000      0.0000
        51         0.0000      0.0000      0.0000      0.0000
        52         0.0000      0.0000      0.0000      0.0000
        53         0.0000      0.0000      0.0000      0.0000
        54         0.0000      0.0000      0.0000      0.0000
        55         0.0000      0.0000      0.0000      0.0000
        56         0.0000      0.0000      0.0000      0.0000
        57        -0.5417      0.5417      0.0000      0.0000
        58         0.5417     -0.5417      0.0000      0.0000
        59        -0.5816      0.5819      0.0000      0.0001
        60         0.5819     -0.5816      0.0000      0.0001
        61        -4.8586      4.8576      0.0000     -0.0003
        62         4.8576     -4.8586      0.0000     -0.0003
        63         0.0000      0.0000     -0.0000     -0.0000
        64         0.0000      0.0000      0.0000      0.0000
        65         0.0000      0.0000      0.0000      0.0000
        66         0.0000      0.0000     -0.0000     -0.0000
        67         0.0000      0.0000      0.0000      0.0000
        68         0.0000      0.0000      0.0000      0.0000
        69         0.0000      0.0000      0.0000      0.0000
        70         0.2626     -0.2566      0.0000      0.0020
        71        -0.2566      0.2626      0.0000      0.0020
        72       -14.7541     14.7533      0.0000     -0.0003
        73        14.7533    -14.7541      0.0000     -0.0003
        74         4.9220     -4.9233      0.0000     -0.0004
        75        -4.9233      4.9220      0.0000     -0.0004
        76         0.0000      0.0000     -0.0000     -0.0000
        77         0.0000      0.0000      0.0000      0.0000
        78        -2.5403      2.5447      0.0000      0.0015
        79         2.5447     -2.5403      0.0000      0.0015
        80         0.0000      0.0000     -0.0000     -0.0000
        81        -0.7959      0.7940      0.0000     -0.0006
        82         0.7940     -0.7959      0.0000     -0.0006
        83         0.0000      0.0000      0.0000      0.0000
        84         0.0000      0.0000     -0.0000     -0.0000
        85         0.0000     -0.0000      0.0000     -0.0000
        86        -0.0000      0.0000      0.0000     -0.0000
        87         0.0000      0.0000      0.0000      0.0000
        88         0.0000      0.0000     -0.0000     -0.0000
        89        14.2760    -14.2766      0.0000     -0.0002
        90       -14.2766     14.2760      0.0000     -0.0002
        91         0.0000      0.0000     -0.0000     -0.0000
        92         0.0000      0.0000     -0.0000     -0.0000
        93         0.0000      0.0000     -0.0000     -0.0000
        94         0.0000      0.0000     -0.0000     -0.0000
        95        42.8142    -42.8139      0.0000      0.0001
        96       -42.8139     42.8142      0.0000      0.0001
        97         0.0000      0.0000      0.0000      0.0000
        98         0.0000      0.0000      0.0000      0.0000
        99        -0.4555      0.4555      0.0000     -0.0000
       100         0.4555     -0.4555      0.0000     -0.0000
       101        -5.8156      5.8163      0.0000      0.0002
       102         5.8163     -5.8156      0.0000      0.0002
       103         0.0000      0.0000     -0.0000     -0.0000
       104         0.0000      0.0000      0.0000      0.0000
  1/2[<0|del|b>*<b|r|0> + (<0|r|b>*<b|del|0>)*] (Au)
       state          X           Y           Z        Dip. S.   Osc.(frdel)
         1        -0.0503     -0.0000     -0.0000      0.0503      0.0335
         2        -0.0000     -0.0503     -0.0000      0.0503      0.0335
         3        -0.0000     -0.0000     -0.2073      0.2073      0.1382
         4        -0.0000     -0.0000     -0.0000      0.0000      0.0000
         5        -0.0000     -0.0000     -0.0000      0.0000      0.0000
         6        -0.0000     -0.0000     -0.0000      0.0000      0.0000
         7        -0.0338     -0.0016     -0.0000      0.0354      0.0236
         8        -0.0016     -0.0338     -0.0000      0.0354      0.0236
         9        -0.0000     -0.0000     -0.0177      0.0177      0.0118
        10        -0.1026     -0.0090     -0.0000      0.1116      0.0744
        11        -0.0090     -0.1026     -0.0000      0.1116      0.0744
        12        -0.0000     -0.0000     -0.0000      0.0000      0.0000
        13        -0.0000     -0.0000     -0.0000      0.0000      0.0000
        14        -0.0000     -0.0000     -0.0000      0.0000      0.0000
        15        -0.0000     -0.0000     -0.2839      0.2839      0.1892
        16        -0.0000     -0.0000     -0.0000      0.0000      0.0000
        17        -0.0000     -0.0000     -0.0000      0.0000      0.0000
        18        -0.0000     -0.0000     -0.0664      0.0664      0.0442
        19        -0.0213     -0.0029     -0.0000      0.0243      0.0162
        20        -0.0029     -0.0213     -0.0000      0.0243      0.0162
        21        -0.1134     -0.0018     -0.0000      0.1152      0.0768
        22        -0.0018     -0.1134     -0.0000      0.1152      0.0768
        23        -0.0000     -0.0000     -0.1345      0.1345      0.0897
        24        -0.0000     -0.0000     -0.1000      0.1000      0.0667
        25        -0.0000     -0.0000     -0.0000      0.0000      0.0000
        26        -0.0000     -0.0000     -0.0000      0.0000      0.0000
        27        -0.4307     -0.2091     -0.0000      0.6398      0.4265
        28        -0.2091     -0.4307     -0.0000      0.6398      0.4265
        29        -0.1725     -0.0867     -0.0000      0.2592      0.1728
        30        -0.0867     -0.1725     -0.0000      0.2592      0.1728
        31        -0.0000     -0.0000     -0.0000      0.0000      0.0000
        32        -0.0000     -0.0000     -0.0000      0.0000      0.0000
        33        -0.0000     -0.0000     -0.0000      0.0000      0.0000
        34        -0.0000     -0.0000     -0.0000      0.0000      0.0000
        35        -0.0000     -0.0000     -0.0000      0.0000      0.0000
        36        -0.0000     -0.0000     -0.2785      0.2785      0.1856
        37        -0.0000     -0.0000     -0.0584      0.0584      0.0389
        38        -0.0000     -0.0000     -0.8414      0.8414      0.5609
        39        -0.3398     -0.0842     -0.0000      0.4239      0.2826
        40        -0.0842     -0.3398     -0.0000      0.4239      0.2826
        41        -0.0000     -0.0000     -0.0150      0.0150      0.0100
        42        -0.0209     -0.0078     -0.0000      0.0287      0.0191
        43        -0.0078     -0.0209     -0.0000      0.0287      0.0191
        44        -0.0000     -0.0000     -0.0144      0.0144      0.0096
        45        -0.0030     -0.0035     -0.0000      0.0065      0.0043
        46        -0.0035     -0.0030     -0.0000      0.0065      0.0043
        47        -0.0040     -0.0022     -0.0000      0.0062      0.0041
        48        -0.0022     -0.0040     -0.0000      0.0062      0.0041
        49        -0.0000     -0.0000     -0.0380      0.0380      0.0253
        50        -0.0000     -0.0000     -0.0023      0.0023      0.0015
        51        -0.0000     -0.0000     -0.0000      0.0000      0.0000
        52        -0.0000     -0.0000     -0.0000      0.0000      0.0000
        53        -0.0000     -0.0000     -0.0000      0.0000      0.0000
        54        -0.0000     -0.0000     -0.0000      0.0000      0.0000
        55        -0.0000     -0.0000     -0.0000      0.0000      0.0000
        56        -0.0000     -0.0000     -0.0006      0.0006      0.0004
        57        -0.0002     -0.0002     -0.0000      0.0004      0.0003
        58        -0.0002     -0.0002     -0.0000      0.0004      0.0003
        59        -0.0001     -0.0074     -0.0000      0.0075      0.0050
        60        -0.0074     -0.0001     -0.0000      0.0075      0.0050
        61        -0.0455     -0.0251     -0.0000      0.0706      0.0471
        62        -0.0251     -0.0455     -0.0000      0.0706      0.0471
        63        -0.0000     -0.0000     -0.1169      0.1169      0.0779
        64        -0.0000     -0.0000     -0.0833      0.0833      0.0556
        65        -0.0000     -0.0000     -0.0000      0.0000      0.0000
        66        -0.0000     -0.0000     -0.0000      0.0000      0.0000
        67        -0.0000     -0.0000     -0.0000      0.0000      0.0000
        68        -0.0000     -0.0000     -0.1111      0.1111      0.0740
        69        -0.0000     -0.0000     -0.0493      0.0493      0.0329
        70        -0.0048     -0.0000     -0.0000      0.0048      0.0032
        71        -0.0000     -0.0048     -0.0000      0.0048      0.0032
        72        -0.0140     -0.1318     -0.0000      0.1458      0.0972
        73        -0.1318     -0.0140     -0.0000      0.1458      0.0972
        74        -0.0562     -0.3700     -0.0000      0.4262      0.2841
        75        -0.3700     -0.0562     -0.0000      0.4262      0.2841
        76        -0.0000     -0.0000     -0.0273      0.0273      0.0182
        77        -0.0000     -0.0000     -0.1321      0.1321      0.0880
        78        -0.0026     -0.0178     -0.0000      0.0205      0.0137
        79        -0.0178     -0.0026     -0.0000      0.0205      0.0137
        80        -0.0000     -0.0000     -0.0286      0.0286      0.0191
        81        -0.0000     -0.0016     -0.0000      0.0016      0.0011
        82        -0.0016     -0.0000     -0.0000      0.0016      0.0011
        83        -0.0000     -0.0000     -0.0507      0.0507      0.0338
        84        -0.0000     -0.0000     -0.0429      0.0429      0.0286
        85        -0.0000     -0.0000     -0.0000      0.0000      0.0000
        86        -0.0000     -0.0000     -0.0000      0.0000      0.0000
        87        -0.0000     -0.0000     -0.0000      0.0000      0.0000
        88        -0.0000     -0.0000     -0.0000      0.0000      0.0000
        89        -0.0979     -0.2495     -0.0000      0.3473      0.2316
        90        -0.2495     -0.0979     -0.0000      0.3473      0.2316
        91        -0.0000     -0.0000     -0.0000      0.0000      0.0000
        92        -0.0000     -0.0000     -0.0000      0.0000      0.0000
        93        -0.0000     -0.0000     -0.0000      0.0000      0.0000
        94        -0.0000     -0.0000     -0.7545      0.7545      0.5030
        95        -0.2141     -0.6509     -0.0000      0.8650      0.5767
        96        -0.6509     -0.2141     -0.0000      0.8650      0.5767
        97        -0.0000     -0.0000     -0.0000      0.0000      0.0000
        98        -0.0000     -0.0000     -0.0000      0.0000      0.0000
        99        -0.0048     -0.0138     -0.0000      0.0186      0.0124
       100        -0.0138     -0.0048     -0.0000      0.0186      0.0124
       101        -0.1232     -0.0361     -0.0000      0.1593      0.1062
       102        -0.0361     -0.1232     -0.0000      0.1593      0.1062
       103        -0.0000     -0.0000     -0.3224      0.3224      0.2150
       104        -0.0000     -0.0000      0.0000     -0.0000     -0.0000

[...]
      9   0.000000D+00  0.000000D+00  0.000000D+00  0.000000D+00  0.000000D+00
     10   0.000000D+00  0.000000D+00  0.000000D+00  0.000000D+00  0.000000D+00
     11   0.000000D+00 -0.204530D+00  0.000000D+00 -0.203602D-01  0.000000D+00
     12   0.000000D+00  0.204530D+00  0.000000D+00  0.203602D-01  0.000000D+00
     13   0.000000D+00  0.000000D+00  0.000000D+00  0.000000D+00  0.000000D+00
     14  -0.204530D+00  0.000000D+00  0.203602D-01  0.000000D+00  0.000000D+00
     15   0.000000D+00  0.000000D+00  0.000000D+00  0.000000D+00  0.000000D+00
     16   0.000000D+00  0.000000D+00  0.000000D+00  0.000000D+00  0.000000D+00
                36            37            38            39            40 
      1  -0.986544D+02 -0.986260D+02 -0.985605D+02 -0.985201D+02 -0.985201D+02
      2   0.000000D+00  0.000000D+00  0.000000D+00  0.525092D+00 -0.261383D+00
      3   0.000000D+00  0.000000D+00  0.000000D+00  0.261383D+00  0.525092D+00
      4   0.486031D+00  0.238033D+00 -0.838455D+00  0.000000D+00  0.000000D+00
      5   0.000000D+00  0.000000D+00  0.000000D+00 -0.647038D+00  0.322088D+00
      6   0.000000D+00  0.000000D+00  0.000000D+00 -0.322088D+00 -0.647038D+00
      7  -0.572934D+00 -0.245229D+00  0.100353D+01  0.000000D+00  0.000000D+00
      8   0.000000D+00  0.000000D+00  0.000000D+00 -0.325260D-01 -0.653281D-01
      9   0.000000D+00  0.000000D+00  0.000000D+00  0.653281D-01 -0.325260D-01
     10   0.000000D+00  0.000000D+00  0.000000D+00  0.000000D+00  0.000000D+00
     11   0.141683D+00  0.324286D+00  0.693537D-01  0.000000D+00  0.000000D+00
     12   0.141683D+00  0.324286D+00  0.693537D-01  0.000000D+00  0.000000D+00
     13   0.281203D-01  0.725869D+00  0.112400D+01  0.000000D+00  0.000000D+00
     14   0.000000D+00  0.000000D+00  0.000000D+00  0.000000D+00  0.000000D+00
     15   0.000000D+00  0.000000D+00  0.000000D+00 -0.385519D+00  0.191857D+00
     16   0.000000D+00  0.000000D+00  0.000000D+00 -0.191857D+00 -0.385519D+00
                41            42            43            44            45 
      1  -0.984980D+02 -0.984903D+02 -0.984903D+02 -0.984308D+02 -0.984079D+02
      2   0.000000D+00  0.119354D+00 -0.731206D-01  0.000000D+00  0.445857D-01
      3   0.000000D+00  0.731206D-01  0.119354D+00  0.000000D+00 -0.482228D-01
      4   0.109591D+00  0.000000D+00  0.000000D+00  0.119545D+00  0.000000D+00
      5   0.000000D+00 -0.174952D+00  0.107184D+00  0.000000D+00 -0.672817D-01
      6   0.000000D+00 -0.107184D+00 -0.174952D+00  0.000000D+00  0.727631D-01
      7  -0.137299D+00  0.000000D+00  0.000000D+00 -0.120673D+00  0.000000D+00
      8   0.000000D+00 -0.173981D-01 -0.283803D-01  0.000000D+00  0.522782D-01
      9   0.000000D+00  0.283803D-01 -0.173981D-01  0.000000D+00  0.483428D-01
     10   0.000000D+00  0.000000D+00  0.000000D+00  0.000000D+00  0.000000D+00
     11   0.229081D+00  0.000000D+00  0.000000D+00 -0.423928D+00  0.000000D+00
     12   0.229081D+00  0.000000D+00  0.000000D+00 -0.423928D+00  0.000000D+00
     13   0.184393D+00  0.000000D+00  0.000000D+00  0.665007D+00  0.000000D+00
     14   0.000000D+00  0.000000D+00  0.000000D+00  0.000000D+00  0.000000D+00
     15   0.000000D+00 -0.274781D+00  0.168273D+00  0.000000D+00  0.375366D+00
     16   0.000000D+00 -0.168273D+00 -0.274781D+00  0.000000D+00 -0.405689D+00
                46            47            48            49            50 
      1  -0.984079D+02 -0.983722D+02 -0.983722D+02 -0.983013D+02 -0.982096D+02
      2  -0.482228D-01 -0.570672D-01 -0.416734D-01  0.000000D+00  0.000000D+00
      3  -0.445857D-01  0.416734D-01 -0.570672D-01  0.000000D+00  0.000000D+00
      4   0.000000D+00  0.000000D+00  0.000000D+00  0.166063D+00 -0.445332D-01
      5   0.727631D-01  0.709006D-01  0.517742D-01  0.000000D+00  0.000000D+00
      6   0.672817D-01 -0.517742D-01  0.709006D-01  0.000000D+00  0.000000D+00
      7   0.000000D+00  0.000000D+00  0.000000D+00 -0.228927D+00  0.520058D-01
      8   0.483428D-01 -0.478400D-01  0.655211D-01  0.000000D+00  0.000000D+00
      9  -0.522782D-01 -0.655211D-01 -0.478400D-01  0.000000D+00  0.000000D+00
     10   0.000000D+00  0.000000D+00  0.000000D+00  0.000000D+00  0.000000D+00
     11   0.000000D+00  0.000000D+00  0.000000D+00  0.312152D+00  0.464154D+00
     12   0.000000D+00  0.000000D+00  0.000000D+00  0.312152D+00  0.464154D+00
     13   0.000000D+00  0.000000D+00  0.000000D+00  0.418586D+00 -0.112449D+01
     14   0.000000D+00  0.000000D+00  0.000000D+00  0.000000D+00  0.000000D+00
     15  -0.405689D+00  0.222906D+00  0.162811D+00  0.000000D+00  0.000000D+00
     16  -0.375366D+00 -0.162811D+00  0.222906D+00  0.000000D+00  0.000000D+00
                51            52            53            54            55 
      1  -0.981112D+02 -0.981112D+02 -0.981089D+02 -0.980941D+02 -0.980941D+02
      2   0.000000D+00  0.000000D+00  0.000000D+00  0.000000D+00  0.000000D+00
      3   0.000000D+00  0.000000D+00  0.000000D+00  0.000000D+00  0.000000D+00
      4   0.000000D+00  0.000000D+00  0.000000D+00  0.000000D+00  0.000000D+00
      5   0.000000D+00  0.000000D+00  0.000000D+00  0.000000D+00  0.000000D+00
      6   0.000000D+00  0.000000D+00  0.000000D+00  0.000000D+00  0.000000D+00
      7   0.000000D+00  0.000000D+00  0.000000D+00  0.000000D+00  0.000000D+00
      8   0.000000D+00  0.000000D+00  0.000000D+00  0.000000D+00  0.000000D+00
      9   0.000000D+00  0.000000D+00  0.000000D+00  0.000000D+00  0.000000D+00
     10   0.000000D+00  0.000000D+00  0.000000D+00  0.000000D+00  0.000000D+00
     11   0.000000D+00  0.964792D+00  0.000000D+00  0.000000D+00  0.389051D+00
     12   0.000000D+00 -0.964792D+00  0.000000D+00  0.000000D+00 -0.389051D+00
     13   0.000000D+00  0.000000D+00  0.000000D+00  0.000000D+00  0.000000D+00
     14   0.964792D+00  0.000000D+00  0.000000D+00 -0.389051D+00  0.000000D+00
     15   0.000000D+00  0.000000D+00  0.000000D+00  0.000000D+00  0.000000D+00
     16   0.000000D+00  0.000000D+00  0.000000D+00  0.000000D+00  0.000000D+00
                56            57            58            59            60 
      1  -0.980212D+02 -0.979633D+02 -0.979633D+02 -0.979429D+02 -0.979429D+02
      2   0.000000D+00  0.767012D-02 -0.650581D-02 -0.805996D-02  0.614430D-01
      3   0.000000D+00  0.650581D-02  0.767012D-02  0.614430D-01  0.805996D-02
      4  -0.246566D-01  0.000000D+00  0.000000D+00  0.000000D+00  0.000000D+00
      5   0.000000D+00 -0.321465D-01  0.272637D-01  0.157239D-01 -0.119853D+00
      6   0.000000D+00 -0.272637D-01 -0.321465D-01 -0.119853D+00 -0.157239D-01
      7   0.230949D-01  0.000000D+00  0.000000D+00  0.000000D+00  0.000000D+00
      8   0.000000D+00  0.998655D-01  0.117744D+00 -0.102034D+00 -0.133924D-01
      9   0.000000D+00 -0.117744D+00  0.998655D-01 -0.133924D-01  0.102034D+00
     10   0.000000D+00  0.000000D+00  0.000000D+00  0.000000D+00  0.000000D+00
     11   0.581617D+00  0.000000D+00  0.000000D+00  0.000000D+00  0.000000D+00
     12   0.581617D+00  0.000000D+00  0.000000D+00  0.000000D+00  0.000000D+00
     13  -0.808588D+00  0.000000D+00  0.000000D+00  0.000000D+00  0.000000D+00
     14   0.000000D+00  0.000000D+00  0.000000D+00  0.000000D+00  0.000000D+00
     15   0.000000D+00 -0.206302D+00  0.175011D+00 -0.112784D+00  0.859338D+00
     16   0.000000D+00 -0.175011D+00 -0.206302D+00  0.859338D+00  0.112784D+00
                61            62            63            64            65 
      1  -0.978890D+02 -0.978890D+02 -0.978710D+02 -0.976391D+02 -0.975950D+02
      2   0.144934D+00 -0.107697D+00  0.000000D+00  0.000000D+00  0.000000D+00
      3   0.107697D+00  0.144934D+00  0.000000D+00  0.000000D+00  0.000000D+00
      4   0.000000D+00  0.000000D+00  0.244302D+00 -0.188275D+00  0.000000D+00
      5  -0.313870D+00  0.233229D+00  0.000000D+00  0.000000D+00  0.000000D+00
      6  -0.233229D+00 -0.313870D+00  0.000000D+00  0.000000D+00  0.000000D+00
      7   0.000000D+00  0.000000D+00 -0.478356D+00  0.442675D+00  0.000000D+00
      8   0.474045D-01  0.637822D-01  0.000000D+00  0.000000D+00  0.000000D+00
      9  -0.637822D-01  0.474045D-01  0.000000D+00  0.000000D+00  0.000000D+00
     10   0.000000D+00  0.000000D+00  0.000000D+00  0.000000D+00  0.000000D+00
     11   0.000000D+00  0.000000D+00  0.297858D+00  0.251517D+00 -0.409944D+00
     12   0.000000D+00  0.000000D+00  0.297858D+00  0.251517D+00  0.409944D+00
     13   0.000000D+00  0.000000D+00  0.777936D+00  0.656028D+00  0.000000D+00
     14   0.000000D+00  0.000000D+00  0.000000D+00  0.000000D+00  0.000000D+00
     15  -0.444341D+00  0.330229D+00  0.000000D+00  0.000000D+00  0.000000D+00
     16  -0.330229D+00 -0.444341D+00  0.000000D+00  0.000000D+00  0.000000D+00
                66            67            68            69            70 
      1  -0.975950D+02 -0.975911D+02 -0.975898D+02 -0.975373D+02 -0.974750D+02
      2   0.000000D+00  0.000000D+00  0.000000D+00  0.000000D+00 -0.405170D-01
      3   0.000000D+00  0.000000D+00  0.000000D+00  0.000000D+00  0.215809D-02
      4   0.000000D+00  0.000000D+00 -0.244157D+00 -0.163279D+00  0.000000D+00
      5   0.000000D+00  0.000000D+00  0.000000D+00  0.000000D+00  0.117332D+00
      6   0.000000D+00  0.000000D+00  0.000000D+00  0.000000D+00 -0.630292D-02
      7   0.000000D+00  0.000000D+00  0.454926D+00  0.302052D+00  0.000000D+00
      8   0.000000D+00  0.000000D+00  0.000000D+00  0.000000D+00  0.916494D-02
      9   0.000000D+00  0.000000D+00  0.000000D+00  0.000000D+00  0.168119D+00
     10   0.000000D+00  0.000000D+00  0.000000D+00  0.000000D+00  0.000000D+00
     11   0.000000D+00  0.000000D+00 -0.106188D-01  0.109543D+01  0.000000D+00
     12   0.000000D+00  0.000000D+00 -0.106188D-01  0.109543D+01  0.000000D+00
     13   0.000000D+00  0.000000D+00 -0.154884D+01  0.964805D-01  0.000000D+00
     14   0.409944D+00  0.000000D+00  0.000000D+00  0.000000D+00  0.000000D+00
     15   0.000000D+00  0.000000D+00  0.000000D+00  0.000000D+00 -0.213785D-01
     16   0.000000D+00  0.000000D+00  0.000000D+00  0.000000D+00  0.116261D-02
                71            72            73            74            75 
      1  -0.974750D+02 -0.974353D+02 -0.974353D+02 -0.973493D+02 -0.973493D+02
      2  -0.215809D-02  0.827790D-01 -0.253744D+00  0.149740D+00 -0.384304D+00
      3  -0.405170D-01 -0.253744D+00 -0.827790D-01 -0.384304D+00 -0.149740D+00
      4   0.000000D+00  0.000000D+00  0.000000D+00  0.000000D+00  0.000000D+00
      5   0.630292D-02 -0.169394D+00  0.519235D+00 -0.375123D+00  0.962746D+00
      6   0.117332D+00  0.519235D+00  0.169394D+00  0.962746D+00  0.375123D+00
      7   0.000000D+00  0.000000D+00  0.000000D+00  0.000000D+00  0.000000D+00
      8  -0.168119D+00  0.252041D+00  0.822189D-01 -0.464816D-01 -0.181159D-01
      9   0.916494D-02  0.822189D-01 -0.252041D+00 -0.181159D-01  0.464816D-01
     10   0.000000D+00  0.000000D+00  0.000000D+00  0.000000D+00  0.000000D+00
     11   0.000000D+00  0.000000D+00  0.000000D+00  0.000000D+00  0.000000D+00
     12   0.000000D+00  0.000000D+00  0.000000D+00  0.000000D+00  0.000000D+00
     13   0.000000D+00  0.000000D+00  0.000000D+00  0.000000D+00  0.000000D+00
     14   0.000000D+00  0.000000D+00  0.000000D+00  0.000000D+00  0.000000D+00
     15  -0.116261D-02  0.321077D+00 -0.984511D+00  0.787454D-01 -0.202162D+00
     16  -0.213785D-01 -0.984511D+00 -0.321077D+00 -0.202162D+00 -0.787454D-01
                76            77            78            79            80 
      1  -0.973130D+02 -0.970877D+02 -0.970689D+02 -0.970689D+02 -0.968866D+02
      2   0.000000D+00  0.000000D+00 -0.365699D-01 -0.949850D-01  0.000000D+00
      3   0.000000D+00  0.000000D+00 -0.949850D-01  0.365699D-01  0.000000D+00
      4   0.108027D+00 -0.218610D+00  0.000000D+00  0.000000D+00  0.103202D+00
      5   0.000000D+00  0.000000D+00  0.722750D-01  0.187781D+00  0.000000D+00
      6   0.000000D+00  0.000000D+00  0.187781D+00 -0.722750D-01  0.000000D+00
      7  -0.252632D+00  0.604118D+00  0.000000D+00  0.000000D+00 -0.276905D+00
      8   0.000000D+00  0.000000D+00 -0.982278D-01  0.378847D-01  0.000000D+00
      9   0.000000D+00  0.000000D+00  0.378847D-01  0.982278D-01  0.000000D+00
     10   0.000000D+00  0.000000D+00  0.000000D+00  0.000000D+00  0.000000D+00
     11  -0.517613D+00  0.918280D+00  0.000000D+00  0.000000D+00  0.146180D+00
     12  -0.517613D+00  0.918280D+00  0.000000D+00  0.000000D+00  0.146180D+00
     13   0.485253D+00  0.121904D+01  0.000000D+00  0.000000D+00 -0.510543D+00
     14   0.000000D+00  0.000000D+00  0.000000D+00  0.000000D+00  0.000000D+00
     15   0.000000D+00  0.000000D+00  0.188068D-01  0.485839D-01  0.000000D+00
     16   0.000000D+00  0.000000D+00  0.485839D-01 -0.188068D-01  0.000000D+00
                81            82            83            84            85 
      1  -0.968600D+02 -0.968600D+02 -0.966441D+02 -0.963082D+02 -0.961387D+02
      2   0.505021D-02 -0.381888D-01  0.000000D+00  0.000000D+00  0.000000D+00
      3  -0.381888D-01 -0.505021D-02  0.000000D+00  0.000000D+00  0.000000D+00
      4   0.000000D+00  0.000000D+00 -0.128456D+00  0.105724D+00  0.000000D+00
      5  -0.563569D-02  0.423531D-01  0.000000D+00  0.000000D+00  0.000000D+00
      6   0.423531D-01  0.563569D-02  0.000000D+00  0.000000D+00  0.000000D+00
      7   0.000000D+00  0.000000D+00  0.394875D+00 -0.405755D+00  0.000000D+00
      8   0.222869D+00  0.294017D-01  0.000000D+00  0.000000D+00  0.000000D+00
      9   0.294017D-01 -0.222869D+00  0.000000D+00  0.000000D+00  0.000000D+00
     10   0.000000D+00  0.000000D+00  0.000000D+00  0.000000D+00  0.000000D+00
     11   0.000000D+00  0.000000D+00 -0.125852D+01 -0.794809D-01  0.000000D+00
     12   0.000000D+00  0.000000D+00 -0.125852D+01 -0.794809D-01  0.000000D+00
     13   0.000000D+00  0.000000D+00 -0.123959D+00  0.352204D+00  0.000000D+00
     14   0.000000D+00  0.000000D+00  0.000000D+00  0.000000D+00  0.000000D+00
     15   0.911525D-01 -0.691542D+00  0.000000D+00  0.000000D+00  0.000000D+00
     16  -0.691542D+00 -0.911525D-01  0.000000D+00  0.000000D+00  0.000000D+00
                86            87            88            89            90 
      1  -0.961387D+02 -0.960122D+02 -0.960122D+02 -0.959925D+02 -0.959925D+02
      2   0.000000D+00  0.000000D+00  0.000000D+00 -0.172275D+00  0.275013D+00
      3   0.000000D+00  0.000000D+00  0.000000D+00  0.275013D+00  0.172275D+00
      4   0.000000D+00  0.000000D+00  0.000000D+00  0.000000D+00  0.000000D+00
      5   0.000000D+00  0.000000D+00  0.000000D+00  0.568219D+00 -0.907072D+00
      6   0.000000D+00  0.000000D+00  0.000000D+00 -0.907072D+00 -0.568219D+00
      7   0.000000D+00  0.000000D+00  0.000000D+00  0.000000D+00  0.000000D+00
      8   0.000000D+00  0.000000D+00  0.000000D+00  0.117182D+00  0.734090D-01
      9   0.000000D+00  0.000000D+00  0.000000D+00  0.734090D-01 -0.117182D+00
     10   0.000000D+00  0.000000D+00  0.000000D+00  0.000000D+00  0.000000D+00
     11   0.000000D+00  0.000000D+00 -0.214684D+00  0.000000D+00  0.000000D+00
     12   0.000000D+00  0.000000D+00  0.214684D+00  0.000000D+00  0.000000D+00
     13   0.000000D+00  0.000000D+00  0.000000D+00  0.000000D+00  0.000000D+00
     14   0.000000D+00 -0.214684D+00  0.000000D+00  0.000000D+00  0.000000D+00
     15   0.000000D+00  0.000000D+00  0.000000D+00 -0.682267D-01  0.108823D+00
     16   0.000000D+00  0.000000D+00  0.000000D+00  0.108823D+00  0.682267D-01
                91            92            93            94            95 
      1  -0.959870D+02 -0.959730D+02 -0.959730D+02 -0.957546D+02 -0.956667D+02
      2   0.000000D+00  0.000000D+00  0.000000D+00  0.000000D+00 -0.243720D+00
      3   0.000000D+00  0.000000D+00  0.000000D+00  0.000000D+00  0.424941D+00
      4   0.000000D+00  0.000000D+00  0.000000D+00  0.458770D+00  0.000000D+00
      5   0.000000D+00  0.000000D+00  0.000000D+00  0.000000D+00  0.878514D+00
      6   0.000000D+00  0.000000D+00  0.000000D+00  0.000000D+00 -0.153174D+01
      7   0.000000D+00  0.000000D+00  0.000000D+00 -0.164461D+01  0.000000D+00
      8   0.000000D+00  0.000000D+00  0.000000D+00  0.000000D+00  0.248414D+00
      9   0.000000D+00  0.000000D+00  0.000000D+00  0.000000D+00  0.142474D+00
     10   0.000000D+00  0.000000D+00  0.000000D+00  0.000000D+00  0.000000D+00
     11   0.000000D+00 -0.230893D-01  0.000000D+00  0.927056D-01  0.000000D+00
     12   0.000000D+00  0.230893D-01  0.000000D+00  0.927056D-01  0.000000D+00
     13   0.000000D+00  0.000000D+00  0.000000D+00 -0.885473D+00  0.000000D+00
     14   0.000000D+00  0.000000D+00  0.230894D-01  0.000000D+00  0.000000D+00
     15   0.000000D+00  0.000000D+00  0.000000D+00  0.000000D+00  0.382016D+00
     16   0.000000D+00  0.000000D+00  0.000000D+00  0.000000D+00 -0.666095D+00
                96            97            98            99           100 
      1  -0.956667D+02 -0.953659D+02 -0.953659D+02 -0.951951D+02 -0.951951D+02
      2   0.424941D+00  0.000000D+00  0.000000D+00  0.344766D-01  0.582818D-01
      3   0.243720D+00  0.000000D+00  0.000000D+00  0.582818D-01 -0.344766D-01
      4   0.000000D+00  0.000000D+00  0.000000D+00  0.000000D+00  0.000000D+00
      5  -0.153174D+01  0.000000D+00  0.000000D+00 -0.139762D+00 -0.236284D+00
      6  -0.878514D+00  0.000000D+00  0.000000D+00 -0.236284D+00  0.139762D+00
      7   0.000000D+00  0.000000D+00  0.000000D+00  0.000000D+00  0.000000D+00
      8   0.142474D+00  0.000000D+00  0.000000D+00  0.186849D-01 -0.110523D-01
      9  -0.248414D+00  0.000000D+00  0.000000D+00 -0.110523D-01 -0.186849D-01
     10   0.000000D+00  0.000000D+00  0.000000D+00  0.000000D+00  0.000000D+00
     11   0.000000D+00  0.000000D+00  0.809834D+00  0.000000D+00  0.000000D+00
     12   0.000000D+00  0.000000D+00 -0.809834D+00  0.000000D+00  0.000000D+00
     13   0.000000D+00  0.000000D+00  0.000000D+00  0.000000D+00  0.000000D+00
     14   0.000000D+00  0.809834D+00  0.000000D+00  0.000000D+00  0.000000D+00
     15  -0.666095D+00  0.000000D+00  0.000000D+00  0.262147D+00  0.442760D+00
     16  -0.382016D+00  0.000000D+00  0.000000D+00  0.442760D+00 -0.262147D+00
               101           102           103           104 
      1  -0.950277D+02 -0.950277D+02 -0.948272D+02 -0.943062D+02
      2  -0.167629D+00  0.907862D-01  0.000000D+00  0.000000D+00
      3  -0.907862D-01 -0.167629D+00  0.000000D+00  0.000000D+00
      4   0.000000D+00  0.000000D+00  0.266573D+00 -0.203647D-02
      5   0.734674D+00 -0.397898D+00  0.000000D+00  0.000000D+00
      6   0.397898D+00  0.734674D+00  0.000000D+00  0.000000D+00
      7   0.000000D+00  0.000000D+00 -0.120960D+01 -0.199133D-01
      8  -0.490595D-01 -0.905956D-01  0.000000D+00  0.000000D+00
      9   0.905956D-01 -0.490595D-01  0.000000D+00  0.000000D+00
     10   0.000000D+00  0.000000D+00  0.000000D+00  0.000000D+00
     11   0.000000D+00  0.000000D+00  0.204010D+00 -0.206446D+00
     12   0.000000D+00  0.000000D+00  0.204010D+00 -0.206446D+00
     13   0.000000D+00  0.000000D+00 -0.108833D+01  0.340670D+00
     14   0.000000D+00  0.000000D+00  0.000000D+00  0.000000D+00
     15   0.346426D+00 -0.187424D+00  0.000000D+00  0.000000D+00
     16   0.187424D+00  0.346426D+00  0.000000D+00  0.000000D+00
 Unable to Open any file for archive entry.
 1\1\GINC-HEL23\SP\RSVWN5 TD-FC\Gen\F1H1\SABYASACHI\21-Mar-2022\0\\#P T
 D(Nstates=10000) svwn5/Gen SCF(maxcycles=100) Int(Grid=ultrafine)\\xGD
 B7_00001_tier4.com\\0,1\F,0,0.,0.,0.091801\H,0,0.,0.,-0.826212\\Versio
 n=EM64L-G16RevC.01\State=1-SG\HF=-99.7275192\RMSD=4.003e-09\PG=C*V [C*
 (H1F1)]\\@
 The archive entry for this job was punched.


 My opinions may have changed, but not the fact that I am right.
                       -- Ashleigh Brilliant
 Job cpu time:       0 days  0 hours  0 minutes  9.0 seconds.
 Elapsed time:       0 days  0 hours  0 minutes  1.4 seconds.
 File lengths (MBytes):  RWF=      8 Int=      0 D2E=      0 Chk=      4 Scr=      1
 Normal termination of Gaussian 16 at Mon Mar 21 19:57:56 2022.
