 Entering Gaussian System, Link 0=g16
 Input=000005.com
 Output=000005.log
 Initial command:
 /home/sabyasachi/g16/l1.exe "/scratch/sabyasachi/PBS_7975842.helios/Gau-105113.inp" -scrdir="/scratch/sabyasachi/PBS_7975842.helios/"
 Entering Link 1 = /home/sabyasachi/g16/l1.exe PID=    105116.
  
 Copyright (c) 1988-2019, Gaussian, Inc.  All Rights Reserved.
  
 This is part of the Gaussian(R) 16 program.  It is based on
 the Gaussian(R) 09 system (copyright 2009, Gaussian, Inc.),
 the Gaussian(R) 03 system (copyright 2003, Gaussian, Inc.),
 the Gaussian(R) 98 system (copyright 1998, Gaussian, Inc.),
 the Gaussian(R) 94 system (copyright 1995, Gaussian, Inc.),
 the Gaussian 92(TM) system (copyright 1992, Gaussian, Inc.),
 the Gaussian 90(TM) system (copyright 1990, Gaussian, Inc.),
 the Gaussian 88(TM) system (copyright 1988, Gaussian, Inc.),
 the Gaussian 86(TM) system (copyright 1986, Carnegie Mellon
 University), and the Gaussian 82(TM) system (copyright 1983,
 Carnegie Mellon University). Gaussian is a federally registered
 trademark of Gaussian, Inc.
  
 This software contains proprietary and confidential information,
 including trade secrets, belonging to Gaussian, Inc.
  
 This software is provided under written license and may be
 used, copied, transmitted, or stored only in accord with that
 written license.
  
 The following legend is applicable only to US Government
 contracts under FAR:
  
                    RESTRICTED RIGHTS LEGEND
  
 Use, reproduction and disclosure by the US Government is
 subject to restrictions as set forth in subparagraphs (a)
 and (c) of the Commercial Computer Software - Restricted
 Rights clause in FAR 52.227-19.
  
 Gaussian, Inc.
 340 Quinnipiac St., Bldg. 40, Wallingford CT 06492
  
  
 ---------------------------------------------------------------
 Warning -- This program may not be used in any manner that
 competes with the business of Gaussian, Inc. or will provide
 assistance to any competitor of Gaussian, Inc.  The licensee
 of this program is prohibited from giving any competitor of
 Gaussian, Inc. access to this program.  By using this program,
 the user acknowledges that Gaussian, Inc. is engaged in the
 business of creating and licensing software in the field of
 computational chemistry and represents and warrants to the
 licensee that it is not a competitor of Gaussian, Inc. and that
 it will not use this program in any manner prohibited above.
 ---------------------------------------------------------------
  

 Cite this work as:
 Gaussian 16, Revision C.01,
 M. J. Frisch, G. W. Trucks, H. B. Schlegel, G. E. Scuseria, 
 M. A. Robb, J. R. Cheeseman, G. Scalmani, V. Barone, 
 G. A. Petersson, H. Nakatsuji, X. Li, M. Caricato, A. V. Marenich, 
 J. Bloino, B. G. Janesko, R. Gomperts, B. Mennucci, H. P. Hratchian, 
 J. V. Ortiz, A. F. Izmaylov, J. L. Sonnenberg, D. Williams-Young, 
 F. Ding, F. Lipparini, F. Egidi, J. Goings, B. Peng, A. Petrone, 
 T. Henderson, D. Ranasinghe, V. G. Zakrzewski, J. Gao, N. Rega, 
 G. Zheng, W. Liang, M. Hada, M. Ehara, K. Toyota, R. Fukuda, 
 J. Hasegawa, M. Ishida, T. Nakajima, Y. Honda, O. Kitao, H. Nakai, 
 T. Vreven, K. Throssell, J. A. Montgomery, Jr., J. E. Peralta, 
 F. Ogliaro, M. J. Bearpark, J. J. Heyd, E. N. Brothers, K. N. Kudin, 
 V. N. Staroverov, T. A. Keith, R. Kobayashi, J. Normand, 
 K. Raghavachari, A. P. Rendell, J. C. Burant, S. S. Iyengar, 
 J. Tomasi, M. Cossi, J. M. Millam, M. Klene, C. Adamo, R. Cammi, 
 J. W. Ochterski, R. L. Martin, K. Morokuma, O. Farkas, 
 J. B. Foresman, and D. J. Fox, Gaussian, Inc., Wallingford CT, 2019.
 
 ******************************************
 Gaussian 16:  EM64L-G16RevC.01  3-Jul-2019
                21-Mar-2022 
 ******************************************
 %mem=64gb
 %nproc=8
 Will use up to    8 processors via shared memory.
 ---------------------------------------------------------------------
 #P TD(Nstates=10000) svwn5/Gen SCF(maxcycles=100) Int(Grid=ultrafine)
 ---------------------------------------------------------------------
 1/38=1,172=1/1;
 2/12=2,17=6,18=5,40=1/2;
 3/5=7,11=9,25=1,30=1,74=201,75=-5/1,2,3,8;
 4//1;
 5/5=2,7=100,38=5/2;
 8/6=1,10=1,108=10000/1;
 9/41=10000,42=1,70=2/14;
 6/7=2,8=2,9=2,10=2/1;
 99/5=1,9=1/99;
 Leave Link    1 at Mon Mar 21 19:57:55 2022, MaxMem=  8589934592 cpu:               0.4 elap:               0.1
 (Enter /home/sabyasachi/g16/l101.exe)
 ---------------------
 xGDB7_00001_tier4.com
 ---------------------
 Symbolic Z-matrix:
 Charge =  0 Multiplicity = 1
 6                     0.        0.        0.7614 
 6                     0.        0.       -0.7614 
 1                     0.        1.01711   1.15725 
 1                     0.88084  -0.50856   1.15725 
 1                    -0.88084  -0.50856   1.15725 
 1                     0.88084   0.50856  -1.15725 
 1                    -0.88084   0.50856  -1.15725 
 1                     0.       -1.01711  -1.15725 
 
 ITRead=  0  0  0  0  0  0  0  0
 MicOpt= -1 -1 -1 -1 -1 -1 -1 -1
 NAtoms=      8 NQM=        8 NQMF=       0 NMMI=      0 NMMIF=      0
                NMic=       0 NMicF=      0.
                    Isotopes and Nuclear Properties:
 (Nuclear quadrupole moments (NQMom) in fm**2, nuclear magnetic moments (NMagM)
  in nuclear magnetons)

  Atom         1           2           3           4           5           6           7           8
 IAtWgt=          12          12           1           1           1           1           1           1
 AtmWgt=  12.0000000  12.0000000   1.0078250   1.0078250   1.0078250   1.0078250   1.0078250   1.0078250
 NucSpn=           0           0           1           1           1           1           1           1
 AtZEff=  -0.0000000  -0.0000000  -0.0000000  -0.0000000  -0.0000000  -0.0000000  -0.0000000  -0.0000000
 NQMom=    0.0000000   0.0000000   0.0000000   0.0000000   0.0000000   0.0000000   0.0000000   0.0000000
 NMagM=    0.0000000   0.0000000   2.7928460   2.7928460   2.7928460   2.7928460   2.7928460   2.7928460
 AtZNuc=   6.0000000   6.0000000   1.0000000   1.0000000   1.0000000   1.0000000   1.0000000   1.0000000
 Leave Link  101 at Mon Mar 21 19:57:55 2022, MaxMem=  8589934592 cpu:               0.8 elap:               0.1
 (Enter /home/sabyasachi/g16/l202.exe)
                          Input orientation:                          
 ---------------------------------------------------------------------
 Center     Atomic      Atomic             Coordinates (Angstroms)
 Number     Number       Type             X           Y           Z
 ---------------------------------------------------------------------
      1          6           0        0.000000    0.000000    0.761397
      2          6           0        0.000000    0.000000   -0.761397
      3          1           0        0.000000    1.017110    1.157248
      4          1           0        0.880843   -0.508555    1.157248
      5          1           0       -0.880843   -0.508555    1.157248
      6          1           0        0.880843    0.508555   -1.157248
      7          1           0       -0.880843    0.508555   -1.157248
      8          1           0        0.000000   -1.017110   -1.157248
 ---------------------------------------------------------------------
                    Distance matrix (angstroms):
                    1          2          3          4          5
     1  C    0.000000
     2  C    1.522794   0.000000
     3  H    1.091426   2.171569   0.000000
     4  H    1.091426   2.171569   1.761686   0.000000
     5  H    1.091426   2.171569   1.761686   1.761686   0.000000
     6  H    2.171569   1.091426   2.528123   2.528123   3.081386
     7  H    2.171569   1.091426   2.528123   3.081386   2.528123
     8  H    2.171569   1.091426   3.081386   2.528123   2.528123
                    6          7          8
     6  H    0.000000
     7  H    1.761686   0.000000
     8  H    1.761686   1.761686   0.000000
 Stoichiometry    C2H6
 Framework group  D3D[C3(C.C),3SGD(H2)]
 Deg. of freedom     3
 Full point group                 D3D     NOp  12
 Largest Abelian subgroup         C2H     NOp   4
 Largest concise Abelian subgroup C2H     NOp   4
                         Standard orientation:                         
 ---------------------------------------------------------------------
 Center     Atomic      Atomic             Coordinates (Angstroms)
 Number     Number       Type             X           Y           Z
 ---------------------------------------------------------------------
      1          6           0        0.000000    0.000000    0.761397
      2          6           0       -0.000000   -0.000000   -0.761397
      3          1           0        0.000000    1.017110    1.157248
      4          1           0        0.880843   -0.508555    1.157248
      5          1           0       -0.880843   -0.508555    1.157248
      6          1           0        0.880843    0.508555   -1.157248
      7          1           0       -0.880843    0.508555   -1.157248
      8          1           0       -0.000000   -1.017110   -1.157248
 ---------------------------------------------------------------------
 Rotational constants (GHZ):          80.7876467          20.1030278          20.1030278
 Leave Link  202 at Mon Mar 21 19:57:55 2022, MaxMem=  8589934592 cpu:               0.1 elap:               0.0
 (Enter /home/sabyasachi/g16/l301.exe)
 General basis read from cards:  (5D, 7F)
 Centers:       3      4      5      6      7      8
 S 3 1.00
     Exponent=  1.3010701000D+01 Coefficients=  1.9682158000D-02
     Exponent=  1.9622572000D+00 Coefficients=  1.3796524000D-01
     Exponent=  4.4453796000D-01 Coefficients=  4.7831935000D-01
 S 1 1.00
     Exponent=  1.2194962000D-01 Coefficients=  1.0000000000D+00
 P 1 1.00
     Exponent=  8.0000000000D-01 Coefficients=  1.0000000000D+00
 P 1 1.00
     Exponent=  1.1704099050D-01 Coefficients=  1.0000000000D+00
 ****
 Centers:       1      2
 S 5 1.00
     Exponent=  1.2384016938D+03 Coefficients=  5.4568832082D-03
     Exponent=  1.8629004992D+02 Coefficients=  4.0638409211D-02
     Exponent=  4.2251176346D+01 Coefficients=  1.8025593888D-01
     Exponent=  1.1676557932D+01 Coefficients=  4.6315121755D-01
     Exponent=  3.5930506482D+00 Coefficients=  4.4087173314D-01
 S 1 1.00
     Exponent=  4.0245147363D-01 Coefficients=  1.0000000000D+00
 S 1 1.00
     Exponent=  1.3090182668D-01 Coefficients=  1.0000000000D+00
 S 1 1.00
     Exponent=  6.7053540256D-02 Coefficients=  1.0000000000D+00
 P 3 1.00
     Exponent=  9.4680970621D+00 Coefficients=  3.8387871728D-02
     Exponent=  2.0103545142D+00 Coefficients=  2.1117025112D-01
     Exponent=  5.4771004707D-01 Coefficients=  5.1328172114D-01
 P 1 1.00
     Exponent=  1.5268613795D-01 Coefficients=  1.0000000000D+00
 D 1 1.00
     Exponent=  8.0000000000D-01 Coefficients=  1.0000000000D+00
 D 1 1.00
     Exponent=  1.1713185140D-01 Coefficients=  1.0000000000D+00
 ****
 Ernie: Thresh=  0.10000D-02 Tol=  0.10000D-05 Strict=F.
 There are    30 symmetry adapted cartesian basis functions of AG  symmetry.
 There are    16 symmetry adapted cartesian basis functions of BG  symmetry.
 There are    16 symmetry adapted cartesian basis functions of AU  symmetry.
 There are    30 symmetry adapted cartesian basis functions of BU  symmetry.
 There are    28 symmetry adapted basis functions of AG  symmetry.
 There are    16 symmetry adapted basis functions of BG  symmetry.
 There are    16 symmetry adapted basis functions of AU  symmetry.
 There are    28 symmetry adapted basis functions of BU  symmetry.
    88 basis functions,   124 primitive gaussians,    92 cartesian basis functions
     9 alpha electrons        9 beta electrons
       nuclear repulsion energy        42.3107446799 Hartrees.
 IExCor=  201 DFT=T Ex=S Corr=VWN5 ExCW=0 ScaHFX=  0.000000
 ScaDFX=  1.000000  1.000000  1.000000  1.000000 ScalE2=  1.000000  1.000000
 IRadAn=      5 IRanWt=     -1 IRanGd=            0 ICorTp=0 IEmpDi=  4
 NAtoms=    8 NActive=    8 NUniq=    2 SFac= 4.00D+00 NAtFMM=   60 NAOKFM=F Big=F
 Integral buffers will be    131072 words long.
 Regular integral format.
 Two-electron integral symmetry is turned on.
 Leave Link  301 at Mon Mar 21 19:57:55 2022, MaxMem=  8589934592 cpu:               0.6 elap:               0.1
 (Enter /home/sabyasachi/g16/l302.exe)
 NPDir=0 NMtPBC=     1 NCelOv=     1 NCel=       1 NClECP=     1 NCelD=      1
         NCelK=      1 NCelE2=     1 NClLst=     1 CellRange=     0.0.
 One-electron integrals computed using PRISM.
 One-electron integral symmetry used in STVInt
 NBasis=    88 RedAO= T EigKep=  3.75D-04  NBF=    28    16    16    28
 NBsUse=    88 1.00D-06 EigRej= -1.00D+00 NBFU=    28    16    16    28
 Precomputing XC quadrature grid using
 IXCGrd= 4 IRadAn=           5 IRanWt=          -1 IRanGd=           0 AccXCQ= 0.00D+00.
 Generated NRdTot=       0 NPtTot=           0 NUsed=           0 NTot=          32
 NSgBfM=    92    92    92    92    92 MxSgAt=     8 MxSgA2=     8.
 Leave Link  302 at Mon Mar 21 19:57:55 2022, MaxMem=  8589934592 cpu:               1.1 elap:               0.2
 (Enter /home/sabyasachi/g16/l303.exe)
 DipDrv:  MaxL=1.
 Leave Link  303 at Mon Mar 21 19:57:55 2022, MaxMem=  8589934592 cpu:               0.2 elap:               0.1
 (Enter /home/sabyasachi/g16/l308.exe)
 Leave Link  308 at Mon Mar 21 19:57:55 2022, MaxMem=  8589934592 cpu:               0.2 elap:               0.1
 (Enter /home/sabyasachi/g16/l401.exe)
 ExpMin= 6.71D-02 ExpMax= 1.24D+03 ExpMxC= 1.86D+02 IAcc=3 IRadAn=         5 AccDes= 0.00D+00
 Harris functional with IExCor=  201 and IRadAn=       5 diagonalized for initial guess.
 HarFok:  IExCor=  201 AccDes= 0.00D+00 IRadAn=         5 IDoV= 1 UseB2=F ITyADJ=14
 ICtDFT=  3500011 ScaDFX=  1.000000  1.000000  1.000000  1.000000
 FoFCou: FMM=F IPFlag=           0 FMFlag=      100000 FMFlg1=           0
         NFxFlg=           0 DoJE=T BraDBF=F KetDBF=T FulRan=T
         wScrn=  0.000000 ICntrl=       500 IOpCl=  0 I1Cent=   200000004 NGrid=           0
         NMat0=    1 NMatS0=      1 NMatT0=    0 NMatD0=    1 NMtDS0=    0 NMtDT0=    0
 Petite list used in FoFCou.
 Harris En= -79.1057551223575    
 JPrj=0 DoOrth=F DoCkMO=F.
 Initial guess orbital symmetries:
       Occupied  (A2U) (A1G) (A1G) (A2U) (EU) (EU) (A1G) (EG) (EG)
       Virtual   (A1G) (A2U) (EU) (EU) (EG) (EG) (A2U) (A1G) (EG)
                 (EG) (EU) (EU) (EU) (EU) (A2U) (A1G) (A1U) (EG)
                 (EG) (A2U) (EU) (EU) (A2U) (A1G) (EG) (EG) (A2G)
                 (EG) (EG) (A1G) (EU) (EU) (EG) (EG) (EU) (EU)
                 (A2U) (A1G) (A2U) (A1G) (EG) (EG) (EU) (EU) (A2U)
                 (EU) (EU) (A1G) (EG) (EG) (A2U) (EU) (EU) (EG)
                 (EG) (A1U) (A2G) (A1G) (EU) (EU) (EU) (EU) (EG)
                 (EG) (A2U) (EG) (EG) (A1G) (A2U) (EU) (EU) (EG)
                 (EG) (A1G) (A2U) (EG) (EG) (EU) (EU)
 The electronic state of the initial guess is 1-A1G.
 Leave Link  401 at Mon Mar 21 19:57:55 2022, MaxMem=  8589934592 cpu:               1.3 elap:               0.2
 (Enter /home/sabyasachi/g16/l502.exe)
 Keep J ints in memory in symmetry-blocked form, NReq=15021526.
 FoFCou: FMM=F IPFlag=           0 FMFlag=           0 FMFlg1=           0
         NFxFlg=           0 DoJE=F BraDBF=F KetDBF=F FulRan=T
         wScrn=  0.000000 ICntrl=       600 IOpCl=  0 I1Cent=           0 NGrid=           0
         NMat0=    1 NMatS0=   3916 NMatT0=    0 NMatD0=    1 NMtDS0=    0 NMtDT0=    0
 Petite list used in FoFCou.
 Closed shell SCF:
 Using DIIS extrapolation, IDIIS=  1040.
 NGot=  8589934592 LenX=  8587972308 LenY=  8587963403
 Requested convergence on RMS density matrix=1.00D-08 within 100 cycles.
 Requested convergence on MAX density matrix=1.00D-06.
 Requested convergence on             energy=1.00D-06.
 No special actions if energy rises.
 Integral accuracy reduced to 1.0D-05 until final iterations.

 Cycle   1  Pass 0  IDiag  1:
 E= -78.8529080329734    
 DIIS: error= 4.18D-02 at cycle   1 NSaved=   1.
 NSaved= 1 IEnMin= 1 EnMin= -78.8529080329734     IErMin= 1 ErrMin= 4.18D-02
 ErrMax= 4.18D-02  0.00D+00 EMaxC= 1.00D-01 BMatC= 1.16D-01 BMatP= 1.16D-01
 IDIUse=3 WtCom= 5.82D-01 WtEn= 4.18D-01
 Coeff-Com:  0.100D+01
 Coeff-En:   0.100D+01
 Coeff:      0.100D+01
 Gap=     0.220 Goal=   None    Shift=    0.000
 GapD=    0.220 DampG=1.000 DampE=0.500 DampFc=0.5000 IDamp=-1.
 Damping current iteration by 5.00D-01
 RMSDP=8.67D-03 MaxDP=1.75D-01              OVMax= 2.35D-01

 Cycle   2  Pass 0  IDiag  1:
 E= -78.8852225462683     Delta-E=       -0.032314513295 Rises=F Damp=T
 DIIS: error= 1.67D-02 at cycle   2 NSaved=   2.
 NSaved= 2 IEnMin= 2 EnMin= -78.8852225462683     IErMin= 2 ErrMin= 1.67D-02
 ErrMax= 1.67D-02  0.00D+00 EMaxC= 1.00D-01 BMatC= 1.24D-02 BMatP= 1.16D-01
 IDIUse=3 WtCom= 8.33D-01 WtEn= 1.67D-01
 Coeff-Com:  0.233D+00 0.767D+00
 Coeff-En:   0.380D+00 0.620D+00
 Coeff:      0.258D+00 0.742D+00
 Gap=     0.296 Goal=   None    Shift=    0.000
 RMSDP=1.88D-03 MaxDP=2.71D-02 DE=-3.23D-02 OVMax= 1.52D-01

 Cycle   3  Pass 0  IDiag  1:
 E= -78.9840877663957     Delta-E=       -0.098865220127 Rises=F Damp=F
 DIIS: error= 2.32D-03 at cycle   3 NSaved=   3.
 NSaved= 3 IEnMin= 3 EnMin= -78.9840877663957     IErMin= 3 ErrMin= 2.32D-03
 ErrMax= 2.32D-03  0.00D+00 EMaxC= 1.00D-01 BMatC= 3.86D-04 BMatP= 1.24D-02
 IDIUse=3 WtCom= 9.77D-01 WtEn= 2.32D-02
 Coeff-Com:  0.741D-01 0.195D+00 0.731D+00
 Coeff-En:   0.000D+00 0.000D+00 0.100D+01
 Coeff:      0.724D-01 0.191D+00 0.737D+00
 Gap=     0.307 Goal=   None    Shift=    0.000
 RMSDP=6.41D-04 MaxDP=9.65D-03 DE=-9.89D-02 OVMax= 8.12D-03

 Cycle   4  Pass 0  IDiag  1:
 E= -78.9844753972686     Delta-E=       -0.000387630873 Rises=F Damp=F
 DIIS: error= 4.80D-04 at cycle   4 NSaved=   4.
 NSaved= 4 IEnMin= 4 EnMin= -78.9844753972686     IErMin= 4 ErrMin= 4.80D-04
 ErrMax= 4.80D-04  0.00D+00 EMaxC= 1.00D-01 BMatC= 1.25D-05 BMatP= 3.86D-04
 IDIUse=3 WtCom= 9.95D-01 WtEn= 4.80D-03
 Coeff-Com:  0.284D-02 0.368D-02 0.162D+00 0.832D+00
 Coeff-En:   0.000D+00 0.000D+00 0.000D+00 0.100D+01
 Coeff:      0.282D-02 0.367D-02 0.161D+00 0.833D+00
 Gap=     0.307 Goal=   None    Shift=    0.000
 RMSDP=9.51D-05 MaxDP=9.13D-04 DE=-3.88D-04 OVMax= 1.52D-03

 Cycle   5  Pass 0  IDiag  1:
 E= -78.9844890707198     Delta-E=       -0.000013673451 Rises=F Damp=F
 DIIS: error= 4.41D-05 at cycle   5 NSaved=   5.
 NSaved= 5 IEnMin= 5 EnMin= -78.9844890707198     IErMin= 5 ErrMin= 4.41D-05
 ErrMax= 4.41D-05  0.00D+00 EMaxC= 1.00D-01 BMatC= 9.49D-08 BMatP= 1.25D-05
 IDIUse=1 WtCom= 1.00D+00 WtEn= 0.00D+00
 Coeff-Com:  0.640D-03-0.672D-03 0.740D-02 0.591D-01 0.934D+00
 Coeff:      0.640D-03-0.672D-03 0.740D-02 0.591D-01 0.934D+00
 Gap=     0.307 Goal=   None    Shift=    0.000
 RMSDP=3.96D-06 MaxDP=4.81D-05 DE=-1.37D-05 OVMax= 8.87D-05

 Initial convergence to 1.0D-05 achieved.  Increase integral accuracy.
 Cycle   6  Pass 1  IDiag  1:
 E= -78.9844912845437     Delta-E=       -0.000002213824 Rises=F Damp=F
 DIIS: error= 1.89D-06 at cycle   1 NSaved=   1.
 NSaved= 1 IEnMin= 1 EnMin= -78.9844912845437     IErMin= 1 ErrMin= 1.89D-06
 ErrMax= 1.89D-06  0.00D+00 EMaxC= 1.00D-01 BMatC= 2.01D-10 BMatP= 2.01D-10
 IDIUse=1 WtCom= 1.00D+00 WtEn= 0.00D+00
 Coeff-Com:  0.100D+01
 Coeff:      0.100D+01
 Gap=     0.307 Goal=   None    Shift=    0.000
 RMSDP=3.96D-06 MaxDP=4.81D-05 DE=-2.21D-06 OVMax= 1.02D-05

 Cycle   7  Pass 1  IDiag  1:
 E= -78.9844912844332     Delta-E=        0.000000000111 Rises=F Damp=F
 DIIS: error= 2.58D-06 at cycle   2 NSaved=   2.
 NSaved= 2 IEnMin= 1 EnMin= -78.9844912845437     IErMin= 1 ErrMin= 1.89D-06
 ErrMax= 2.58D-06  0.00D+00 EMaxC= 1.00D-01 BMatC= 3.82D-10 BMatP= 2.01D-10
 IDIUse=1 WtCom= 1.00D+00 WtEn= 0.00D+00
 Coeff-Com:  0.590D+00 0.410D+00
 Coeff:      0.590D+00 0.410D+00
 Gap=     0.307 Goal=   None    Shift=    0.000
 RMSDP=2.04D-07 MaxDP=4.28D-06 DE= 1.11D-10 OVMax= 5.47D-06

 Cycle   8  Pass 1  IDiag  1:
 E= -78.9844912848473     Delta-E=       -0.000000000414 Rises=F Damp=F
 DIIS: error= 2.20D-07 at cycle   3 NSaved=   3.
 NSaved= 3 IEnMin= 3 EnMin= -78.9844912848473     IErMin= 3 ErrMin= 2.20D-07
 ErrMax= 2.20D-07  0.00D+00 EMaxC= 1.00D-01 BMatC= 3.29D-12 BMatP= 2.01D-10
 IDIUse=1 WtCom= 1.00D+00 WtEn= 0.00D+00
 Coeff-Com:  0.418D-01 0.959D-01 0.862D+00
 Coeff:      0.418D-01 0.959D-01 0.862D+00
 Gap=     0.307 Goal=   None    Shift=    0.000
 RMSDP=2.53D-08 MaxDP=4.03D-07 DE=-4.14D-10 OVMax= 3.83D-07

 Cycle   9  Pass 1  IDiag  1:
 E= -78.9844912848491     Delta-E=       -0.000000000002 Rises=F Damp=F
 DIIS: error= 2.88D-08 at cycle   4 NSaved=   4.
 NSaved= 4 IEnMin= 4 EnMin= -78.9844912848491     IErMin= 4 ErrMin= 2.88D-08
 ErrMax= 2.88D-08  0.00D+00 EMaxC= 1.00D-01 BMatC= 3.44D-14 BMatP= 3.29D-12
 IDIUse=1 WtCom= 1.00D+00 WtEn= 0.00D+00
 Coeff-Com:  0.813D-03 0.164D-01 0.122D+00 0.861D+00
 Coeff:      0.813D-03 0.164D-01 0.122D+00 0.861D+00
 Gap=     0.307 Goal=   None    Shift=    0.000
 RMSDP=3.10D-09 MaxDP=3.75D-08 DE=-1.85D-12 OVMax= 6.90D-08

 SCF Done:  E(RS-VWN5) =  -78.9844912848     A.U. after    9 cycles
            NFock=  9  Conv=0.31D-08     -V/T= 2.0086
 KE= 7.831443068283D+01 PE=-2.675789394452D+02 EE= 6.796927279756D+01
 Leave Link  502 at Mon Mar 21 19:57:56 2022, MaxMem=  8589934592 cpu:               3.1 elap:               0.4
 (Enter /home/sabyasachi/g16/l801.exe)
 DoSCS=F DFT=T ScalE2(SS,OS)=  1.000000  1.000000
 ExpMin= 6.71D-02 ExpMax= 1.24D+03 ExpMxC= 1.86D+02 IAcc=3 IRadAn=         5 AccDes= 0.00D+00
 HarFok:  IExCor=  205 AccDes= 0.00D+00 IRadAn=         5 IDoV=-2 UseB2=F ITyADJ=14
 ICtDFT= 12500011 ScaDFX=  1.000000  1.000000  1.000000  1.000000
 Largest valence mixing into a core orbital is  7.94D-05
 Largest core mixing into a valence orbital is  9.05D-07
 Range of M.O.s used for correlation:     3    88
 NBasis=    88 NAE=     9 NBE=     9 NFC=     2 NFV=     0
 NROrb=     86 NOA=     7 NOB=     7 NVA=    79 NVB=    79

 **** Warning!!: The largest alpha MO coefficient is  0.25309062D+02

 Leave Link  801 at Mon Mar 21 19:57:56 2022, MaxMem=  8589934592 cpu:               0.6 elap:               0.1
 (Enter /home/sabyasachi/g16/l914.exe)
 RHF ground state
 Keep J ints in memory in symmetry-blocked form, NReq=404253314.
 FoFCou: FMM=F IPFlag=           0 FMFlag=           0 FMFlg1=           0
         NFxFlg=           0 DoJE=F BraDBF=F KetDBF=F FulRan=T
         wScrn=  0.000000 ICntrl=       600 IOpCl=  0 I1Cent=           0 NGrid=           0
         NMat0=    1 NMatS0=   3916 NMatT0=    0 NMatD0=    1 NMtDS0=    0 NMtDT0=    0
 Petite list used in FoFCou.
 MDV=  8589934592 DFT=T DoStab=F Mixed=F DoRPA=T DoScal=T NonHer=F
 Making orbital integer symmetry assigments:
 Orbital symmetries:
       Occupied  (A2U) (A1G) (A1G) (A2U) (EU) (EU) (A1G) (EG) (EG)
       Virtual   (A1G) (A2U) (EU) (EU) (EG) (EG) (A1G) (EG) (EG)
                 (A2U) (EU) (EU) (EU) (EU) (A2U) (A1G) (A1U) (EG)
                 (EG) (A2U) (EU) (EU) (A1G) (A2U) (EG) (EG) (A2G)
                 (A1G) (EG) (EG) (EG) (EG) (EU) (EU) (EU) (EU)
                 (A2U) (A1G) (A2U) (A1G) (EG) (EG) (EU) (EU) (A2U)
                 (EU) (EU) (A1G) (EG) (EG) (A2U) (EU) (EU) (EG)
                 (EG) (A1U) (A2G) (EU) (EU) (A1G) (EU) (EU) (EG)
                 (EG) (A2U) (EG) (EG) (A1G) (EU) (EU) (A2U) (EG)
                 (EG) (A1G) (A2U) (EG) (EG) (EU) (EU)
   553 initial guesses have been made.
 Convergence on wavefunction:    0.001000000000000
 Davidson Disk Diagonalization:  ConvIn= 1.00D-03 SkipCon=T Conv= 1.00D-03.
 Max sub-space:  2212 roots to seek:  1106 dimension of matrix:         1106
 *** WARNING: Number of orthogonal guesses is          553
 Iteration     1 Dimension   553 NMult     0 NNew    553
 CISAX will form   553 AO SS matrices at one time.
 NMat=   553 NSing=   553 JSym2X=-1.
 New state      3 was old state      4
 New state      4 was old state      3
 New state      8 was old state     10
 New state     10 was old state      8
 New state     17 was old state     18
 New state     18 was old state     17
 New state     19 was old state     20
 New state     20 was old state     19
 New state     27 was old state     28
 New state     28 was old state     27
 New state     29 was old state     34
 New state     30 was old state     29
 New state     31 was old state     30
 New state     32 was old state     31
 New state     33 was old state     36
 New state     34 was old state     39
 New state     35 was old state     38
 New state     36 was old state     35
 New state     37 was old state     33
 New state     38 was old state     41
 New state     39 was old state     40
 New state     40 was old state     32
 New state     41 was old state     45
 New state     42 was old state     44
 New state     43 was old state     47
 New state     44 was old state     48
 New state     45 was old state     49
 New state     46 was old state     50
 New state     47 was old state     46
 New state     48 was old state     37
 New state     49 was old state     54
 New state     50 was old state     51
 New state     51 was old state     52
 New state     52 was old state     53
 New state     53 was old state     58
 New state     54 was old state     61
 New state     56 was old state     63
 New state     58 was old state     56
 New state     59 was old state     65
 New state     61 was old state     59
 New state     62 was old state     68
 New state     63 was old state     62
 New state     65 was old state     66
 New state     66 was old state     67
 New state     67 was old state     69
 No map to state     68
 New state     69 was old state     73
 New state     73 was old state     75
 New state     75 was old state     77
 New state     77 was old state     79
 New state     78 was old state    122
 New state     79 was old state     78
 New state     81 was old state     82
 New state     82 was old state     81
 New state     83 was old state     87
 New state     84 was old state     83
 New state     85 was old state     88
 New state     86 was old state     89
 New state     87 was old state     90
 New state     88 was old state     97
 New state     89 was old state     96
 New state     90 was old state     94
 New state     91 was old state     95
 New state     92 was old state     84
 New state     93 was old state     91
 New state     94 was old state     93
 New state     95 was old state     85
 New state     96 was old state     86
 New state     97 was old state     92
 New state    102 was old state    103
 New state    103 was old state    102
 New state    105 was old state    113
 New state    106 was old state    112
 New state    107 was old state    110
 New state    108 was old state    111
 New state    110 was old state    107
 New state    111 was old state    108
 New state    112 was old state    115
 New state    113 was old state    106
 New state    114 was old state    105
 New state    115 was old state    119
 New state    116 was old state    118
 New state    117 was old state    114
 New state    118 was old state    116
 New state    119 was old state    117
 New state    122 was old state    127
 New state    123 was old state    126
 New state    124 was old state    128
 New state    125 was old state    124
 New state    126 was old state    125
 New state    127 was old state    131
 New state    128 was old state    132
 New state    129 was old state    123
 New state    130 was old state    133
 New state    131 was old state    134
 New state    132 was old state    139
 New state    133 was old state    138
 New state    134 was old state    140
 New state    135 was old state    141
 New state    136 was old state    137
 New state    137 was old state    135
 New state    138 was old state    136
 New state    139 was old state    129
 New state    140 was old state    130
 New state    141 was old state    143
 New state    143 was old state    165
 New state    144 was old state    146
 New state    145 was old state    148
 New state    146 was old state    149
 New state    147 was old state    150
 New state    148 was old state    151
 New state    149 was old state    144
 New state    150 was old state    145
 New state    151 was old state    154
 New state    152 was old state    159
 New state    153 was old state    164
 New state    154 was old state    152
 New state    155 was old state    153
 New state    157 was old state    160
 New state    159 was old state    161
 New state    160 was old state    157
 New state    161 was old state    155
 New state    162 was old state    163
 New state    163 was old state    162
 New state    164 was old state    167
 New state    165 was old state    166
 New state    166 was old state    168
 New state    167 was old state    172
 New state    168 was old state    171
 New state    169 was old state    170
 New state    170 was old state    169
 New state    171 was old state    178
 New state    172 was old state    181
 New state    173 was old state    174
 New state    174 was old state    173
 New state    175 was old state    176
 New state    176 was old state    175
 New state    177 was old state    183
 New state    178 was old state    184
 New state    179 was old state    182
 New state    180 was old state    177
 New state    181 was old state    187
 New state    182 was old state    179
 New state    183 was old state    180
 New state    184 was old state    186
 New state    186 was old state    188
 New state    187 was old state    192
 New state    188 was old state    191
 New state    189 was old state    211
 New state    190 was old state    198
 New state    191 was old state    200
 New state    192 was old state    190
 New state    193 was old state    189
 New state    194 was old state    199
 New state    195 was old state    194
 New state    196 was old state    193
 New state    197 was old state    203
 New state    198 was old state    204
 New state    199 was old state    202
 New state    200 was old state    201
 New state    201 was old state    207
 New state    202 was old state    205
 New state    203 was old state    206
 New state    204 was old state    197
 New state    205 was old state    208
 New state    206 was old state    209
 New state    207 was old state    210
 New state    208 was old state    214
 New state    209 was old state    212
 New state    210 was old state    213
 New state    211 was old state    196
 New state    212 was old state    195
 New state    213 was old state    215
 New state    214 was old state    216
 New state    215 was old state    226
 New state    216 was old state    217
 New state    217 was old state    222
 New state    218 was old state    221
 New state    219 was old state    223
 New state    220 was old state    219
 New state    221 was old state    220
 New state    222 was old state    218
 New state    223 was old state    224
 New state    224 was old state    225
 New state    225 was old state    228
 New state    226 was old state    227
 New state    227 was old state    235
 New state    228 was old state    229
 New state    229 was old state    271
 New state    231 was old state    232
 New state    232 was old state    231
 New state    233 was old state    237
 New state    234 was old state    236
 New state    235 was old state    234
 New state    236 was old state    233
 New state    237 was old state    241
 New state    238 was old state    240
 New state    239 was old state    243
 New state    240 was old state    242
 New state    241 was old state    239
 New state    242 was old state    238
 New state    243 was old state    244
 New state    244 was old state    245
 New state    245 was old state    248
 New state    246 was old state    258
 New state    247 was old state    250
 New state    248 was old state    249
 New state    249 was old state    247
 New state    250 was old state    246
 New state    252 was old state    253
 New state    253 was old state    254
 New state    254 was old state    255
 New state    255 was old state    252
 New state    256 was old state    257
 New state    257 was old state    256
 New state    258 was old state    262
 New state    259 was old state    261
 New state    260 was old state    264
 New state    261 was old state    263
 New state    262 was old state    259
 New state    263 was old state    260
 New state    264 was old state    267
 New state    265 was old state    266
 New state    266 was old state    265
 New state    267 was old state    274
 New state    269 was old state    270
 New state    270 was old state    269
 New state    271 was old state    282
 New state    274 was old state    278
 New state    275 was old state    277
 New state    276 was old state    275
 New state    277 was old state    276
 New state    278 was old state    302
 New state    279 was old state    280
 New state    280 was old state    279
 New state    281 was old state    284
 New state    282 was old state    283
 New state    283 was old state    281
 New state    284 was old state    288
 New state    287 was old state    290
 New state    288 was old state    287
 New state    290 was old state    293
 New state    291 was old state    292
 New state    292 was old state    291
 New state    293 was old state    297
 New state    295 was old state    298
 New state    297 was old state    300
 New state    298 was old state    299
 New state    299 was old state    301
 New state    300 was old state    295
 New state    301 was old state    305
 New state    302 was old state    306
 New state    303 was old state    304
 New state    304 was old state    303
 New state    305 was old state    309
 New state    306 was old state    311
 New state    309 was old state    310
 New state    310 was old state    330
 New state    311 was old state    313
 New state    312 was old state    314
 New state    313 was old state    312
 New state    314 was old state    315
 New state    315 was old state    317
 New state    317 was old state    325
 New state    318 was old state    319
 New state    319 was old state    318
 New state    320 was old state    321
 New state    321 was old state    320
 New state    323 was old state    324
 New state    324 was old state    323
 New state    325 was old state    326
 New state    326 was old state    327
 New state    327 was old state    329
 New state    329 was old state    331
 New state    330 was old state    337
 New state    331 was old state    333
 New state    333 was old state    336
 New state    334 was old state    335
 New state    335 was old state    334
 New state    336 was old state    338
 No map to state    337
 New state    338 was old state    339
 New state    339 was old state    353
 New state    340 was old state    341
 New state    341 was old state    340
 New state    343 was old state    346
 New state    346 was old state    347
 New state    347 was old state    348
 New state    348 was old state    343
 New state    351 was old state    352
 New state    352 was old state    351
 New state    353 was old state    354
 No map to state    354
 New state    355 was old state    356
 New state    356 was old state    355
 New state    362 was old state    363
 New state    363 was old state    364
 New state    364 was old state    362
 New state    370 was old state    375
 New state    371 was old state    370
 New state    372 was old state    371
 New state    373 was old state    377
 New state    374 was old state    376
 New state    375 was old state    381
 New state    376 was old state    374
 New state    377 was old state    372
 New state    378 was old state    373
 New state    379 was old state    382
 New state    380 was old state    383
 New state    381 was old state    380
 New state    382 was old state    378
 New state    383 was old state    379
 New state    384 was old state    385
 New state    385 was old state    384
 New state    386 was old state    387
 New state    387 was old state    386
 New state    388 was old state    392
 New state    389 was old state    390
 New state    390 was old state    391
 New state    391 was old state    389
 New state    392 was old state    388
 New state    400 was old state    401
 New state    401 was old state    400
 New state    402 was old state    404
 New state    403 was old state    402
 New state    404 was old state    406
 New state    406 was old state    403
 New state    407 was old state    408
 New state    408 was old state    407
 New state    409 was old state    410
 New state    410 was old state    412
 New state    412 was old state    409
 New state    413 was old state    414
 New state    414 was old state    413
 New state    415 was old state    418
 New state    416 was old state    417
 New state    417 was old state    421
 New state    418 was old state    416
 New state    419 was old state    415
 New state    420 was old state    422
 New state    421 was old state    420
 New state    422 was old state    419
 New state    425 was old state    427
 New state    427 was old state    425
 New state    428 was old state    429
 New state    429 was old state    430
 New state    430 was old state    428
 New state    433 was old state    434
 New state    434 was old state    433
 New state    435 was old state    436
 New state    436 was old state    435
 New state    440 was old state    442
 New state    441 was old state    440
 New state    442 was old state    441
 New state    445 was old state    446
 New state    446 was old state    445
 New state    447 was old state    448
 New state    448 was old state    447
 New state    450 was old state    451
 New state    451 was old state    450
 New state    454 was old state    455
 New state    455 was old state    454
 New state    459 was old state    460
 New state    460 was old state    461
 New state    461 was old state    459
 New state    462 was old state    463
 New state    463 was old state    462
 New state    467 was old state    468
 New state    468 was old state    467
 New state    470 was old state    471
 New state    471 was old state    470
 New state    474 was old state    476
 New state    475 was old state    477
 New state    476 was old state    475
 New state    477 was old state    474
 New state    478 was old state    482
 New state    479 was old state    480
 New state    480 was old state    478
 New state    481 was old state    479
 New state    482 was old state    481
 New state    483 was old state    484
 New state    484 was old state    483
 New state    485 was old state    488
 New state    486 was old state    490
 New state    487 was old state    489
 New state    488 was old state    486
 New state    489 was old state    487
 New state    490 was old state    485
 New state    493 was old state    494
 New state    494 was old state    493
 New state    495 was old state    496
 New state    496 was old state    495
 New state    499 was old state    501
 New state    500 was old state    499
 New state    501 was old state    500
 New state    510 was old state    511
 New state    511 was old state    510
 New state    515 was old state    516
 New state    516 was old state    515
 New state    518 was old state    520
 New state    520 was old state    518
 New state    525 was old state    526
 New state    526 was old state    525
 New state    529 was old state    532
 New state    530 was old state    533
 New state    532 was old state    530
 New state    533 was old state    529
 New state    536 was old state    537
 New state    537 was old state    539
 New state    539 was old state    536
 New state    541 was old state    543
 New state    542 was old state    544
 New state    543 was old state    542
 New state    544 was old state    541
 New state    545 was old state    546
 New state    546 was old state    545
 New state    552 was old state    553
 New state    553 was old state    552
 Excitation Energies [eV] at current iteration:
 Root      1 :     8.390311251805691
 Root      2 :     8.390311503017587
 Root      3 :     9.304563541585786
 Root      4 :     9.304563601597710
 Root      5 :     9.412492552604647
 Root      6 :    10.214360982691040
 Root      7 :    10.248417613109110
 Root      8 :    10.284628480664870
 Root      9 :    10.284628513230170
 Root     10 :    10.568739956868660
 Root     11 :    10.686481306091910
 Root     12 :    10.833148400512420
 Root     13 :    10.868290481748770
 Root     14 :    10.868290639122110
 Root     15 :    10.920023030530360
 Root     16 :    10.920023691854710
 Root     17 :    11.270036501626630
 Root     18 :    11.270036553333080
 Root     19 :    11.624084905255310
 Root     20 :    11.624085044763840
 Root     21 :    11.654084441058180
 Root     22 :    11.654084509191400
 Root     23 :    11.793639650704820
 Root     24 :    11.793639916707050
 Root     25 :    12.089147514774200
 Root     26 :    12.109375144619310
 Root     27 :    12.109375329800940
 Root     28 :    12.280454732175990
 Root     29 :    12.586154366273700
 Root     30 :    12.605511678297550
 Root     31 :    12.605511810138250
 Root     32 :    12.660496214767850
 Root     33 :    12.737933514558710
 Root     34 :    12.788438497506950
 Root     35 :    12.788438584191540
 Root     36 :    12.830623605869030
 Root     37 :    12.830624531267060
 Root     38 :    13.000309330925850
 Root     39 :    13.000309391972940
 Root     40 :    13.015761041870630
 Root     41 :    13.166578959581970
 Root     42 :    13.263326403860260
 Root     43 :    13.449629100777570
 Root     44 :    13.449629624011750
 Root     45 :    13.791561244301700
 Root     46 :    13.791561486242100
 Root     47 :    13.857218644632930
 Root     48 :    14.021498186510690
 Root     49 :    14.118243050081600
 Root     50 :    14.119332411192900
 Root     51 :    14.119332849845870
 Root     52 :    14.370181540765360
 Root     53 :    14.370181828713780
 Root     54 :    14.461859002375850
 Root     55 :    14.585743803167120
 Root     56 :    14.720485943700400
 Root     57 :    14.720486327544990
 Root     58 :    14.796723758092580
 Root     59 :    15.082254072635770
 Root     60 :    15.082904291765380
 Root     61 :    15.082904678377720
 Root     62 :    15.165865526895970
 Root     63 :    15.165865630588690
 Root     64 :    15.334571710980810
 Root     65 :    15.352752453749900
 Root     66 :    15.352754295702530
 Root     67 :    15.452953081783910
 Root     68 :    15.452953352972500
 Root     69 :    15.484862440568360
 Root     70 :    15.977455973527130
 Root     71 :    15.977456908000530
 Root     72 :    16.162330691356900
 Root     73 :    16.262442805423970
 Root     74 :    16.262443005395880
 Root     75 :    16.612642559816170
 Root     76 :    16.612643205455850
 Root     77 :    16.613401782753080
 Root     78 :    16.685446291745720
 Root     79 :    16.722946543489020
 Root     80 :    16.934841839924450
 Root     81 :    17.032636152052380
 Root     82 :    17.032636244922730
 Root     83 :    17.199441801338150
 Root     84 :    17.226428302735990
 Root     85 :    17.280172553240180
 Root     86 :    17.280172833680630
 Root     87 :    17.371002401664950
 Root     88 :    17.451947906914440
 Root     89 :    17.451948071864100
 Root     90 :    17.527952605523560
 Root     91 :    17.527952638625720
 Root     92 :    17.565959222533240
 Root     93 :    17.598354698152620
 Root     94 :    17.598354886242010
 Root     95 :    17.730953385679430
 Root     96 :    17.730953427450480
 Root     97 :    17.885810360623950
 Root     98 :    17.944275699962210
 Root     99 :    17.944277569445090
 Root    100 :    18.124505684378770
 Root    101 :    18.124505704781310
 Root    102 :    18.169581318595070
 Root    103 :    18.169581615671050
 Root    104 :    18.288533758265390
 Root    105 :    18.345067348552790
 Root    106 :    18.346537604925380
 Root    107 :    18.349755423700340
 Root    108 :    18.349756395170460
 Root    109 :    18.374995299252780
 Root    110 :    18.381753391062940
 Root    111 :    18.381753911336110
 Root    112 :    18.548995819046540
 Root    113 :    18.659266018042950
 Root    114 :    18.659266283480580
 Root    115 :    18.745336616713080
 Root    116 :    18.745337037947670
 Root    117 :    18.796285272672350
 Root    118 :    18.895016098497350
 Root    119 :    18.895016292924500
 Root    120 :    18.900627572273780
 Root    121 :    18.900628059912610
 Root    122 :    19.262771355745620
 Root    123 :    19.262771392108000
 Root    124 :    19.422760121966630
 Root    125 :    19.482275856719720
 Root    126 :    19.482275878850820
 Root    127 :    19.650687809697850
 Root    128 :    19.711114192687630
 Root    129 :    19.726144227822560
 Root    130 :    19.771261916742990
 Root    131 :    19.771262413313030
 Root    132 :    19.814694130039310
 Root    133 :    19.866211063839830
 Root    134 :    20.098573520423730
 Root    135 :    20.098574524094050
 Root    136 :    20.106111401732880
 Root    137 :    20.106111644491150
 Root    138 :    20.217818709999760
 Root    139 :    20.234630261157460
 Root    140 :    20.234630752071270
 Root    141 :    20.330635946177960
 Root    142 :    20.330635979135660
 Root    143 :    20.342217171457120
 Root    144 :    20.441281297154830
 Root    145 :    20.485969035008790
 Root    146 :    20.485969548617900
 Root    147 :    20.689001991777440
 Root    148 :    20.689002862508820
 Root    149 :    20.701240193016950
 Root    150 :    20.701240351537360
 Root    151 :    20.780978553552100
 Root    152 :    20.805729001726320
 Root    153 :    20.807891073124630
 Root    154 :    20.857655435786180
 Root    155 :    20.857655696605510
 Root    156 :    20.881123357919670
 Root    157 :    20.886814182001420
 Root    158 :    20.886815496348680
 Root    159 :    20.889318655894150
 Root    160 :    20.928789715555090
 Root    161 :    20.928790047368600
 Root    162 :    21.100017730542310
 Root    163 :    21.100018434481470
 Root    164 :    21.160875133807720
 Root    165 :    21.160875185855310
 Root    166 :    21.166503606746890
 Root    167 :    21.384699207438040
 Root    168 :    21.384700080157390
 Root    169 :    21.439507607527040
 Root    170 :    21.439507688276920
 Root    171 :    21.496966426300400
 Root    172 :    21.514788927673530
 Root    173 :    21.731279873679830
 Root    174 :    21.731280129897710
 Root    175 :    21.777727372841610
 Root    176 :    21.777727424149010
 Root    177 :    22.047122558900550
 Root    178 :    22.047123189575930
 Root    179 :    22.053189751198370
 Root    180 :    22.066964177401560
 Root    181 :    22.394704137186330
 Root    182 :    22.425153170160300
 Root    183 :    22.425153325064550
 Root    184 :    22.455788385252750
 Root    185 :    22.455788491424120
 Root    186 :    22.776904115699920
 Root    187 :    22.827853246172480
 Root    188 :    22.827853792766560
 Root    189 :    22.856371908122830
 Root    190 :    22.933509263849620
 Root    191 :    22.946688272739590
 Root    192 :    22.959788731109200
 Root    193 :    22.959788747355490
 Root    194 :    22.985708827660340
 Root    195 :    22.986687355978950
 Root    196 :    22.986688451085000
 Root    197 :    23.065005163509590
 Root    198 :    23.241045049281610
 Root    199 :    23.241047783246630
 Root    200 :    23.263384053546940
 Root    201 :    23.364514551222860
 Root    202 :    23.441852831517550
 Root    203 :    23.441852849813290
 Root    204 :    23.456998719125110
 Root    205 :    23.588600988544460
 Root    206 :    23.808081734662190
 Root    207 :    23.808082316596880
 Root    208 :    24.196659560105770
 Root    209 :    24.234636793885250
 Root    210 :    24.234636859668820
 Root    211 :    24.265106598436060
 Root    212 :    24.265106787545190
 Root    213 :    24.424122210643740
 Root    214 :    24.424122433973380
 Root    215 :    24.429046206991020
 Root    216 :    24.549858391190020
 Root    217 :    24.551481534186540
 Root    218 :    24.551482459271310
 Root    219 :    24.610545873745670
 Root    220 :    24.689582239512690
 Root    221 :    24.801085758630130
 Root    222 :    24.801086274276850
 Root    223 :    25.094969613045800
 Root    224 :    25.094969622852510
 Root    225 :    25.510182163981020
 Root    226 :    25.625719575111850
 Root    227 :    26.215926835590050
 Root    228 :    26.525543492595770
 Root    229 :    26.623943393518880
 Root    230 :    27.088160331000950
 Root    231 :    27.246877500543270
 Root    232 :    27.246877739689600
 Root    233 :    27.535561288515900
 Root    234 :    27.535561539841490
 Root    235 :    27.671569084326060
 Root    236 :    27.671569206666770
 Root    237 :    27.700240889313940
 Root    238 :    27.700240973465680
 Root    239 :    27.748148173242080
 Root    240 :    27.920934202453010
 Root    241 :    27.976221540580800
 Root    242 :    27.976221642021380
 Root    243 :    28.623688884235290
 Root    244 :    28.623689115851840
 Root    245 :    28.778670173769820
 Root    246 :    28.806055176364440
 Root    247 :    28.967908532055700
 Root    248 :    28.967908626172260
 Root    249 :    29.090054816610200
 Root    250 :    29.090055050285880
 Root    251 :    29.167335678336410
 Root    252 :    30.270339916465810
 Root    253 :    30.270340097377280
 Root    254 :    30.587981038913790
 Root    255 :    30.750030060645970
 Root    256 :    30.851527317883240
 Root    257 :    30.851527373656130
 Root    258 :    31.042634032676710
 Root    259 :    31.042634382070120
 Root    260 :    31.191224831459760
 Root    261 :    31.191224965678370
 Root    262 :    31.274841739444510
 Root    263 :    31.274842285495790
 Root    264 :    31.598283168026020
 Root    265 :    31.633764645615990
 Root    266 :    31.633765000210210
 Root    267 :    31.661086890953480
 Root    268 :    31.864671944708660
 Root    269 :    31.864672960640690
 Root    270 :    32.085177650950470
 Root    271 :    32.392324454081480
 Root    272 :    32.493876515630400
 Root    273 :    32.493876889863910
 Root    274 :    32.574188874997570
 Root    275 :    32.574188986937340
 Root    276 :    33.115606147760860
 Root    277 :    33.115606254877360
 Root    278 :    33.414696785727160
 Root    279 :    33.608520701711210
 Root    280 :    33.608521359210760
 Root    281 :    33.752401504681930
 Root    282 :    33.792190721331020
 Root    283 :    33.792190768439330
 Root    284 :    33.993872139625240
 Root    285 :    33.995937359911480
 Root    286 :    33.995937541172110
 Root    287 :    34.075673935231580
 Root    288 :    34.402450494548640
 Root    289 :    34.402453083951790
 Root    290 :    34.561735327011660
 Root    291 :    34.668119716134240
 Root    292 :    34.668119751867010
 Root    293 :    35.629993675319110
 Root    294 :    35.767296888434290
 Root    295 :    35.973604675130940
 Root    296 :    35.973605791432430
 Root    297 :    36.207159735784810
 Root    298 :    36.207159782155320
 Root    299 :    36.232302450773950
 Root    300 :    36.274084048149530
 Root    301 :    36.325010999544160
 Root    302 :    36.325011359318240
 Root    303 :    36.462886487868940
 Root    304 :    36.462887043364070
 Root    305 :    36.651007668736760
 Root    306 :    37.037834528649440
 Root    307 :    37.044610018467850
 Root    308 :    37.044610091928330
 Root    309 :    37.223539983674970
 Root    310 :    37.868681133183300
 Root    311 :    38.096708462737450
 Root    312 :    38.325606465939010
 Root    313 :    38.325608806361250
 Root    314 :    38.638405015735180
 Root    315 :    38.668490441884210
 Root    316 :    38.668490465046820
 Root    317 :    38.686090040893930
 Root    318 :    38.801714236770620
 Root    319 :    38.801714998512560
 Root    320 :    39.454079383905050
 Root    321 :    39.678371590879410
 Root    322 :    39.958321468957510
 Root    323 :    39.958321777380440
 Root    324 :    40.237515359600140
 Root    325 :    40.417015937715010
 Root    326 :    40.417015951664300
 Root    327 :    40.582350413383650
 Root    328 :    40.582350474102390
 Root    329 :    41.089717580246270
 Root    330 :    41.237632221629170
 Root    331 :    41.742293241301160
 Root    332 :    41.742293533813420
 Root    333 :    41.880240814687790
 Root    334 :    42.089797934879290
 Root    335 :    42.089798240459510
 Root    336 :    42.253883008978970
 Root    337 :    42.326415636773880
 Root    338 :    42.326415667105020
 Root    339 :    42.690318990969070
 Root    340 :    42.727809828514180
 Root    341 :    42.727810091945480
 Root    342 :    42.745334429327740
 Root    343 :    43.885380982066800
 Root    344 :    44.178583506949720
 Root    345 :    44.178583845109670
 Root    346 :    44.224463780822680
 Root    347 :    44.224464630597960
 Root    348 :    44.914010882132840
 Root    349 :    46.016434929888880
 Root    350 :    46.016435213143180
 Root    351 :    46.578404126903820
 Root    352 :    46.578404309002580
 Root    353 :    47.170667792377260
 Root    354 :    48.743778663974870
 Root    355 :    49.734888210596330
 Root    356 :    49.734888302731130
 Root    357 :    49.974937491428590
 Root    358 :    50.169991558046280
 Root    359 :    50.191299962235140
 Root    360 :    50.191300148847610
 Root    361 :    50.349350468040210
 Root    362 :    50.633645773875670
 Root    363 :    50.633645849053860
 Root    364 :    50.992472059783190
 Root    365 :    51.200328041413480
 Root    366 :    51.200328260561390
 Root    367 :    51.415271987617650
 Root    368 :    51.415271995044710
 Root    369 :    52.226741243859460
 Root    370 :    52.431135465468200
 Root    371 :    52.460883664611950
 Root    372 :    52.460883705090670
 Root    373 :    52.582440769448560
 Root    374 :    52.582440909220640
 Root    375 :    52.805433026042600
 Root    376 :    52.960598615208110
 Root    377 :    53.024494657696880
 Root    378 :    53.024494739806530
 Root    379 :    53.122576172045730
 Root    380 :    53.322944437309670
 Root    381 :    53.401530903923710
 Root    382 :    53.511004827702980
 Root    383 :    53.511004899649690
 Root    384 :    54.933333050797610
 Root    385 :    54.933333104744700
 Root    386 :    55.152248619258750
 Root    387 :    55.152248669424890
 Root    388 :    56.708154513671230
 Root    389 :    56.719248013487390
 Root    390 :    56.719248051035600
 Root    391 :    56.936903741053340
 Root    392 :    56.936903742074120
 Root    393 :    57.130854575130280
 Root    394 :    57.281171202757650
 Root    395 :    57.281171218033080
 Root    396 :    57.455134279804330
 Root    397 :    57.455134358917630
 Root    398 :    57.805009099446120
 Root    399 :    57.805009103011530
 Root    400 :    58.973137727276720
 Root    401 :    59.026315468237540
 Root    402 :    59.222857043701560
 Root    403 :    59.223754001084810
 Root    404 :    59.233431510770980
 Root    405 :    59.233431559859870
 Root    406 :    59.375882669418080
 Root    407 :    59.517646613846490
 Root    408 :    59.517647015741590
 Root    409 :    59.659758070118660
 Root    410 :    59.885616009544030
 Root    411 :    59.885616101696220
 Root    412 :    60.134091091264300
 Root    413 :    60.539653531675550
 Root    414 :    60.539653586441260
 Root    415 :    60.875191966413350
 Root    416 :    60.875192118739510
 Root    417 :    61.130888433901010
 Root    418 :    61.169514419538520
 Root    419 :    61.169514742510380
 Root    420 :    61.241225088325430
 Root    421 :    61.241225183998910
 Root    422 :    61.370110055321200
 Root    423 :    62.056592171427170
 Root    424 :    62.056592332751380
 Root    425 :    62.112596265325220
 Root    426 :    62.387214402291550
 Root    427 :    62.387214612724040
 Root    428 :    62.501623377134000
 Root    429 :    62.743227785993500
 Root    430 :    62.993029944662010
 Root    431 :    63.513554401198340
 Root    432 :    63.513554421859540
 Root    433 :    63.651766646327160
 Root    434 :    63.756058473979560
 Root    435 :    63.929535139869160
 Root    436 :    63.929535333185220
 Root    437 :    64.172958140090810
 Root    438 :    65.597883534458520
 Root    439 :    65.597883685324690
 Root    440 :    66.411558920342810
 Root    441 :    66.500403164592740
 Root    442 :    66.500403194671860
 Root    443 :    66.759158969079250
 Root    444 :    66.876256424037880
 Root    445 :    66.876256594781420
 Root    446 :    66.939838471314160
 Root    447 :    66.947186764658870
 Root    448 :    66.947186998535260
 Root    449 :    67.718350457387170
 Root    450 :    67.761757600584940
 Root    451 :    67.761757617053550
 Root    452 :    67.917891300559380
 Root    453 :    67.917891302407550
 Root    454 :    68.089128359251180
 Root    455 :    68.089128365141850
 Root    456 :    69.186565271331870
 Root    457 :    69.186565302038300
 Root    458 :    69.225521807183090
 Root    459 :    69.398109036672540
 Root    460 :    69.411865874134790
 Root    461 :    69.411866345953170
 Root    462 :    70.137020495248820
 Root    463 :    70.137020661008830
 Root    464 :    70.389948267973010
 Root    465 :    71.429628681300410
 Root    466 :    71.429628705432720
 Root    467 :    71.617254931204570
 Root    468 :    71.617255154507570
 Root    469 :    72.200158455152670
 Root    470 :    73.484956799157970
 Root    471 :    73.484956867076360
 Root    472 :    74.704891984829700
 Root    473 :    74.797230208027260
 Root    474 :    74.821195478360340
 Root    475 :    74.821195497555050
 Root    476 :    75.134616942516350
 Root    477 :    75.134616951340150
 Root    478 :    75.766800709161760
 Root    479 :    75.793005307141640
 Root    480 :    75.813378060901100
 Root    481 :    75.813378084448710
 Root    482 :    76.184576612217650
 Root    483 :    77.003966930433260
 Root    484 :    77.003966987244980
 Root    485 :    77.172831171009430
 Root    486 :    77.294767799344260
 Root    487 :    77.294767834819300
 Root    488 :    77.356275606507690
 Root    489 :    77.486048597023850
 Root    490 :    77.486048736612460
 Root    491 :    77.793666625430050
 Root    492 :    77.940421488165920
 Root    493 :    77.940421517258930
 Root    494 :    78.276708630988760
 Root    495 :    79.148412102219540
 Root    496 :    79.148412193886770
 Root    497 :    79.434095624105940
 Root    498 :    80.270231535531120
 Root    499 :    80.608650989052480
 Root    500 :    80.608651013274330
 Root    501 :    80.624717012020410
 Root    502 :    81.324627059440060
 Root    503 :    81.324627091949410
 Root    504 :    81.530005946460930
 Root    505 :    81.530006022361220
 Root    506 :    81.722431966139110
 Root    507 :    82.481314404096140
 Root    508 :    83.835722248652600
 Root    509 :    83.835722358366080
 Root    510 :    84.651292250286450
 Root    511 :    84.651292267086030
 Root    512 :    85.112829932963040
 Root    513 :    85.112829973503050
 Root    514 :    85.218764154119640
 Root    515 :    86.717873510737760
 Root    516 :    86.717873546457370
 Root    517 :    87.875936248873700
 Root    518 :    88.230688005609990
 Root    519 :    88.230688024469420
 Root    520 :    88.550656491367560
 Root    521 :    89.172700331265800
 Root    522 :    89.172700403149250
 Root    523 :    89.316613365773160
 Root    524 :    89.362518760784640
 Root    525 :    89.362518826560620
 Root    526 :    89.775361480980350
 Root    527 :    90.403895659698090
 Root    528 :    90.403895700050090
 Root    529 :    91.470671791125330
 Root    530 :    91.611201228444570
 Root    531 :    91.611201321213260
 Root    532 :    91.663590773396170
 Root    533 :    91.671978917907990
 Root    534 :    91.807338708296040
 Root    535 :    91.967841261911990
 Root    536 :    91.967841292814430
 Root    537 :    92.477137097529420
 Root    538 :    92.477137216609350
 Root    539 :    92.482904569693740
 Root    540 :    93.650651139031710
 Root    541 :    93.942519859626690
 Root    542 :    94.187199728334580
 Root    543 :    94.187199844887770
 Root    544 :    94.354087638549030
 Root    545 :    96.102001245399410
 Root    546 :    96.102001250524570
 Root    547 :    97.025930887083180
 Root    548 :    98.246265298364550
 Root    549 :    98.246265371174160
 Root    550 :    99.667375458586450
 Root    551 :    99.667375576247810
 Root    552 :   101.828729097155700
 Root    553 :   101.828729658125600
 Convergence achieved for final wavefunctions.
 ***********************************************************************
 Excited states from <AA,BB:AA,BB> singles matrix:
 ***********************************************************************
 
 1PDM for each excited state written to RWF  633
 Ground to excited state transition densities written to RWF  633
 Ground to excited state transition electric dipole moments (Au):
       state          X           Y           Z        Dip. S.      Osc.
         1        -0.0000     -0.0000     -0.0000      0.0000      0.0000
         2        -0.0000      0.0000      0.0000      0.0000      0.0000
         3        -0.0000     -0.5447     -0.0000      0.2967      0.0676
         4        -0.5447     -0.0000     -0.0000      0.2967      0.0676
         5        -0.0000      0.0000      0.0000      0.0000      0.0000
         6        -0.0000      0.0000     -0.7665      0.5875      0.1470
         7        -0.0000      0.0000     -0.0000      0.0000      0.0000
         8        -0.3936     -0.0000      0.0000      0.1549      0.0390
         9         0.0000      0.3936      0.0000      0.1549      0.0390
        10        -0.0000      0.0000      1.1098      1.2317      0.3189
        11        -0.0000     -0.0000      0.0000      0.0000      0.0000
        12        -0.0000      0.0000     -0.0000      0.0000      0.0000
        13        -0.0000      0.0000      0.0000      0.0000      0.0000
        14        -0.0000      0.0000      0.0000      0.0000      0.0000
        15        -0.6939      0.0000     -0.0000      0.4815      0.1288
        16        -0.0000     -0.6939      0.0000      0.4815      0.1288
        17         0.4860      0.0000      0.0000      0.2362      0.0652
        18         0.0000      0.4860     -0.0000      0.2362      0.0652
        19        -0.0000      0.0000     -0.0000      0.0000      0.0000
        20        -0.0000     -0.0000     -0.0000      0.0000      0.0000
        21        -0.0000      0.0000     -0.0000      0.0000      0.0000
        22        -0.0000      0.0000     -0.0000      0.0000      0.0000
        23        -0.0000      0.0000     -0.0000      0.0000      0.0000
        24         0.0000     -0.0000     -0.0000      0.0000      0.0000
        25        -0.0000      0.0000     -0.0000      0.0000      0.0000
        26         0.0000     -0.0000      0.0000      0.0000      0.0000
        27        -0.0000     -0.0000      0.0000      0.0000      0.0000
        28         0.0000      0.0000      0.0000      0.0000      0.0000
        29         0.0000     -0.0000     -0.0000      0.0000      0.0000
        30        -0.1938      0.0000     -0.0000      0.0375      0.0116
        31        -0.0000     -0.1938     -0.0000      0.0375      0.0116
        32        -0.0000      0.0000      0.0000      0.0000      0.0000
        33        -0.0000     -0.0000     -0.0000      0.0000      0.0000
        34        -0.0000      0.0000      0.0000      0.0000      0.0000
        35         0.0000     -0.0000      0.0000      0.0000      0.0000
        36        -0.0000     -0.3445     -0.0000      0.1187      0.0373
        37         0.3445     -0.0000      0.0000      0.1187      0.0373
        38         0.0000      0.0000      0.0000      0.0000      0.0000
        39         0.0000      0.0000     -0.0000      0.0000      0.0000
        40        -0.0000      0.0000     -0.5813      0.3379      0.1078
        41         0.0000      0.0000     -0.0000      0.0000      0.0000
        42         0.0000     -0.0000      0.3695      0.1365      0.0444
        43         0.6837      0.0000      0.0000      0.4674      0.1540
        44         0.0000      0.6837     -0.0000      0.4674      0.1540
        45        -0.6016      0.0000      0.0000      0.3619      0.1223
        46         0.0000     -0.6016      0.0000      0.3619      0.1223
        47         0.0000     -0.0000      0.3376      0.1140      0.0387
        48         0.0000      0.0000      0.0000      0.0000      0.0000
        49         0.0000      0.0000     -0.0000      0.0000      0.0000
        50        -0.2902     -0.0000     -0.0000      0.0842      0.0291
        51        -0.0000     -0.2902      0.0000      0.0842      0.0291
        52        -0.0000      0.9000     -0.0000      0.8101      0.2852
        53         0.9000      0.0000     -0.0000      0.8101      0.2852
        54        -0.0000      0.0000      1.4720      2.1668      0.7677
        55        -0.0000     -0.0000     -0.0000      0.0000      0.0000
        56         0.6192     -0.0000     -0.0000      0.3834      0.1383
        57         0.0000      0.6192      0.0000      0.3834      0.1383
        58        -0.0000     -0.0000      0.4041      0.1633      0.0592
        59        -0.0000     -0.0000     -0.0000      0.0000      0.0000
        60        -0.0000     -0.0000      0.0000      0.0000      0.0000
        61        -0.0000      0.0000     -0.0000      0.0000      0.0000
        62         0.8152     -0.0000      0.0000      0.6645      0.2469
        63         0.0000      0.8152      0.0000      0.6645      0.2469
        64         0.0000     -0.0000      0.0000      0.0000      0.0000
        65         0.0000      0.0000      0.0000      0.0000      0.0000
        66        -0.0000      0.0000      0.0000      0.0000      0.0000
        67         0.0000      0.4793     -0.0000      0.2297      0.0870
        68         0.4793     -0.0000     -0.0000      0.2297      0.0870
        69         0.0000      0.0000      0.0817      0.0067      0.0025
        70         0.0000     -0.0000      0.0000      0.0000      0.0000
        71        -0.0000     -0.0000      0.0000      0.0000      0.0000
        72        -0.0000      0.0000      0.0000      0.0000      0.0000
        73        -0.2358      0.0000     -0.0000      0.0556      0.0222
        74         0.0000      0.2358      0.0000      0.0556      0.0222
        75        -0.0000     -0.0000     -0.0000      0.0000      0.0000
        76        -0.0000      0.0000     -0.0000      0.0000      0.0000
        77         0.0000      0.0000     -0.0000      0.0000      0.0000
        78        -0.0000      0.0000      0.8350      0.6973      0.2850
        79         0.0000     -0.0000     -0.0000      0.0000      0.0000
        80        -0.0000     -0.0000      0.0000      0.0000      0.0000
        81         0.0000      0.0000      0.0000      0.0000      0.0000
        82         0.0000     -0.0000     -0.0000      0.0000      0.0000
        83        -0.0000     -0.0000      0.0000      0.0000      0.0000
        84        -0.0000     -0.0000     -0.0000      0.0000      0.0000
        85         0.2715     -0.0000     -0.0000      0.0737      0.0312
        86         0.0000      0.2715     -0.0000      0.0737      0.0312
        87         0.0000     -0.0000     -0.0000      0.0000      0.0000
        88        -0.0000     -0.0000     -0.0000      0.0000      0.0000
        89        -0.0000     -0.0000      0.0000      0.0000      0.0000
        90        -0.0000      0.0827      0.0000      0.0068      0.0029
        91         0.0827      0.0000     -0.0000      0.0068      0.0029
        92        -0.0000     -0.0000     -0.0000      0.0000      0.0000
        93         0.0000     -0.4067     -0.0000      0.1654      0.0713
        94         0.4067      0.0000      0.0000      0.1654      0.0713
        95         0.0000     -0.0000      0.0000      0.0000      0.0000
        96        -0.0000     -0.0000     -0.0000      0.0000      0.0000
        97        -0.0000      0.0000     -0.7428      0.5518      0.2418
        98        -0.0000     -0.0000     -0.0000      0.0000      0.0000
        99        -0.0000      0.0000     -0.0000      0.0000      0.0000
       100         0.0312     -0.0000      0.0000      0.0010      0.0004
       101         0.0000      0.0312      0.0000      0.0010      0.0004
       102        -0.0000      0.0000     -0.0000      0.0000      0.0000
       103         0.0000      0.0000     -0.0000      0.0000      0.0000
       104        -0.0000     -0.0000      0.1903      0.0362      0.0162
       105        -0.0000      0.0000     -0.0000      0.0000      0.0000
       106        -0.0000      0.0000      0.0000      0.0000      0.0000
       107         0.0000      0.0000      0.0000      0.0000      0.0000
       108         0.0000     -0.0000     -0.0000      0.0000      0.0000
       109         0.0000     -0.0000     -0.5663      0.3207      0.1444
       110         0.1496      0.0000     -0.0000      0.0224      0.0101
       111        -0.0000      0.1496      0.0000      0.0224      0.0101
       112        -0.0000      0.0000     -0.0000      0.0000      0.0000
       113        -0.6133      0.0000      0.0000      0.3761      0.1719
       114        -0.0000     -0.6133     -0.0000      0.3761      0.1719
       115         0.0000     -0.0000     -0.0000      0.0000      0.0000
       116         0.0000      0.0000     -0.0000      0.0000      0.0000
       117        -0.0000      0.0000      0.0000      0.0000      0.0000
       118        -0.0000      0.3615     -0.0000      0.1307      0.0605
       119         0.3615      0.0000      0.0000      0.1307      0.0605
       120         0.0000      0.0000     -0.0000      0.0000      0.0000
       121         0.0000     -0.0000     -0.0000      0.0000      0.0000
       122        -0.0000      0.0000      0.0000      0.0000      0.0000
       123         0.0000      0.0000      0.0000      0.0000      0.0000
       124        -0.0000     -0.0000     -0.5274      0.2782      0.1324
       125        -0.0000      0.0000      0.0000      0.0000      0.0000
       126         0.0000     -0.0000     -0.0000      0.0000      0.0000
       127        -0.0000     -0.0000     -0.4243      0.1800      0.0867
       128        -0.0000      0.0000     -0.0000      0.0000      0.0000
       129         0.0000     -0.0000      0.0000      0.0000      0.0000
       130        -0.0000     -0.0000     -0.0000      0.0000      0.0000
       131         0.0000      0.0000      0.0000      0.0000      0.0000
       132         0.0000      0.0000      0.0000      0.0000      0.0000
       133        -0.0000      0.0000     -0.0000      0.0000      0.0000
       134         0.2944     -0.0000      0.0000      0.0867      0.0427
       135         0.0000      0.2944      0.0000      0.0867      0.0427
       136        -0.0000      0.0000      0.0000      0.0000      0.0000
       137        -0.0000      0.0000     -0.0000      0.0000      0.0000
       138         0.0000      0.0000     -0.0000      0.0000      0.0000
       139         0.6611     -0.0000     -0.0000      0.4371      0.2167
       140        -0.0000     -0.6611      0.0000      0.4371      0.2167
       141         0.0000      0.0000     -0.0000      0.0000      0.0000
       142        -0.0000      0.0000     -0.0000      0.0000      0.0000
       143         0.0000      0.0000     -0.1217      0.0148      0.0074
       144        -0.0000     -0.0000      0.0000      0.0000      0.0000
       145         0.0000     -0.0000      0.0000      0.0000      0.0000
       146        -0.0000     -0.0000      0.0000      0.0000      0.0000
       147        -0.0000     -0.0000      0.0000      0.0000      0.0000
       148         0.0000     -0.0000      0.0000      0.0000      0.0000
       149        -0.0000      0.3176      0.0000      0.1009      0.0511
       150         0.3176      0.0000     -0.0000      0.1009      0.0511
       151        -0.0000     -0.0000     -0.0000      0.0000      0.0000
       152        -0.0000     -0.0000     -0.0661      0.0044      0.0022
       153         0.0000      0.0000     -0.0000      0.0000      0.0000
       154         0.0000      0.0000     -0.0000      0.0000      0.0000
       155         0.0000     -0.0000     -0.0000      0.0000      0.0000
       156         0.0000      0.0000      0.0000      0.0000      0.0000
       157        -0.0000     -0.0014     -0.0000      0.0000      0.0000
       158        -0.0014      0.0000     -0.0000      0.0000      0.0000
       159         0.0000      0.0000     -0.0000      0.0000      0.0000
       160        -0.0000      0.0000      0.0000      0.0000      0.0000
       161        -0.0000      0.0000     -0.0000      0.0000      0.0000
       162        -0.2935      0.0000      0.0000      0.0861      0.0445
       163        -0.0000      0.2935     -0.0000      0.0861      0.0445
       164        -0.0000      0.0000     -0.0000      0.0000      0.0000
       165         0.0000      0.0000      0.0000      0.0000      0.0000
       166        -0.0000     -0.0000     -0.0000      0.0000      0.0000
       167        -0.0724      0.0000     -0.0000      0.0052      0.0027
       168         0.0000      0.0724     -0.0000      0.0052      0.0027
       169         0.0000     -0.0000      0.0000      0.0000      0.0000
       170         0.0000     -0.0000      0.0000      0.0000      0.0000
       171         0.0000     -0.0000      0.0000      0.0000      0.0000
       172        -0.0000      0.0000      0.3062      0.0938      0.0494
       173        -0.0000      0.0000      0.0000      0.0000      0.0000
       174         0.0000      0.0000      0.0000      0.0000      0.0000
       175        -0.0000      0.0106     -0.0000      0.0001      0.0001
       176         0.0106      0.0000     -0.0000      0.0001      0.0001
       177        -0.1024     -0.0000      0.0000      0.0105      0.0057
       178        -0.0000     -0.1024     -0.0000      0.0105      0.0057
       179        -0.0000     -0.0000      0.0000      0.0000      0.0000
       180         0.0000      0.0000      0.0000      0.0000      0.0000
       181        -0.0000     -0.0000      0.8724      0.7611      0.4176
       182        -0.5169      0.0000      0.0000      0.2672      0.1468
       183        -0.0000      0.5169      0.0000      0.2672      0.1468
       184        -0.0000      0.0000     -0.0000      0.0000      0.0000
       185         0.0000     -0.0000     -0.0000      0.0000      0.0000
       186        -0.0000     -0.0000     -0.4042      0.1634      0.0912
       187        -0.0000     -0.0638      0.0000      0.0041      0.0023
       188        -0.0638      0.0000     -0.0000      0.0041      0.0023
       189         0.0000     -0.0000      0.0000      0.0000      0.0000
       190        -0.0000     -0.0000     -0.0000      0.0000      0.0000
       191        -0.0000     -0.0000     -0.3463      0.1199      0.0674
       192         0.0000      0.0323      0.0000      0.0010      0.0006
       193         0.0323     -0.0000      0.0000      0.0010      0.0006
       194        -0.0000     -0.0000      0.0000      0.0000      0.0000
       195        -0.0686      0.0000     -0.0000      0.0047      0.0027
       196        -0.0000     -0.0686     -0.0000      0.0047      0.0027
       197         0.0000     -0.0000      0.0363      0.0013      0.0007
       198        -0.0919     -0.0000      0.0000      0.0084      0.0048
       199        -0.0000      0.0919     -0.0000      0.0084      0.0048
       200         0.0000      0.0000     -0.0000      0.0000      0.0000
       201         0.0000     -0.0000     -0.0000      0.0000      0.0000
       202         0.0000      0.0000     -0.0000      0.0000      0.0000
       203         0.0000      0.0000      0.0000      0.0000      0.0000
       204         0.0000     -0.0000      0.4442      0.1973      0.1134
       205         0.0000     -0.0000      0.0000      0.0000      0.0000
       206         0.0000     -1.0352     -0.0000      1.0716      0.6251
       207        -1.0352      0.0000      0.0000      1.0716      0.6251
       208        -0.0000     -0.0000      0.3074      0.0945      0.0560
       209        -0.0000     -0.0000     -0.0000      0.0000      0.0000
       210        -0.0000      0.0000     -0.0000      0.0000      0.0000
       211        -0.0000      0.5549     -0.0000      0.3080      0.1831
       212         0.5549      0.0000      0.0000      0.3080      0.1831
       213         0.0000     -0.0611      0.0000      0.0037      0.0022
       214        -0.0611      0.0000      0.0000      0.0037      0.0022
       215        -0.0000     -0.0000     -0.2966      0.0880      0.0527
       216        -0.0000     -0.0000      0.0000      0.0000      0.0000
       217         0.0000      0.0000     -0.0000      0.0000      0.0000
       218         0.0000      0.0000      0.0000      0.0000      0.0000
       219        -0.0000      0.0000     -0.0000      0.0000      0.0000
       220        -0.0000     -0.0000      0.0000      0.0000      0.0000
       221        -0.0000     -0.0000      0.0000      0.0000      0.0000
       222         0.0000      0.0000     -0.0000      0.0000      0.0000
       223         0.0000      0.0525     -0.0000      0.0028      0.0017
       224         0.0525      0.0000     -0.0000      0.0028      0.0017
       225         0.0000     -0.0000     -0.0000      0.0000      0.0000
       226         0.0000      0.0000      0.0000      0.0000      0.0000
       227        -0.0000     -0.0000     -0.1492      0.0223      0.0143
       228         0.0000     -0.0000      0.0000      0.0000      0.0000
       229        -0.0000     -0.0000      0.0000      0.0000      0.0000
       230        -0.0000     -0.0000      0.1973      0.0389      0.0258
       231        -0.2502      0.0000     -0.0000      0.0626      0.0418
       232        -0.0000     -0.2502     -0.0000      0.0626      0.0418
       233         0.0451      0.0000      0.0000      0.0020      0.0014
       234        -0.0000      0.0451      0.0000      0.0020      0.0014
       235        -0.0000      0.0000     -0.0000      0.0000      0.0000
       236         0.0000      0.0000      0.0000      0.0000      0.0000
       237         0.0000      0.0000      0.0000      0.0000      0.0000
       238        -0.0000      0.0000      0.0000      0.0000      0.0000
       239        -0.0000     -0.0000      0.0284      0.0008      0.0005
       240        -0.0000      0.0000     -0.0000      0.0000      0.0000
       241        -0.0497      0.0000     -0.0000      0.0025      0.0017
       242        -0.0000     -0.0497     -0.0000      0.0025      0.0017
       243        -0.0000     -0.0000     -0.0000      0.0000      0.0000
       244        -0.0000     -0.0000      0.0000      0.0000      0.0000
       245         0.0000      0.0000      0.0000      0.0000      0.0000
       246         0.0000     -0.0000     -0.1596      0.0255      0.0180
       247         0.0000      0.0000      0.0000      0.0000      0.0000
       248        -0.0000     -0.0000     -0.0000      0.0000      0.0000
       249        -0.0000     -0.0000      0.0000      0.0000      0.0000
       250        -0.0000      0.0000     -0.0000      0.0000      0.0000
       251         0.0000     -0.0000     -0.0000      0.0000      0.0000
       252        -0.3168      0.0000      0.0000      0.1004      0.0745
       253         0.0000     -0.3168     -0.0000      0.1004      0.0745
       254        -0.0000     -0.0000     -0.0000      0.0000      0.0000
       255        -0.0000      0.0000     -0.0000      0.0000      0.0000
[...]
     11   0.000000D+00  0.000000D+00  0.000000D+00  0.448027D-01  0.000000D+00
     12   0.000000D+00  0.000000D+00  0.000000D+00 -0.448026D-01  0.000000D+00
     13   0.000000D+00  0.000000D+00  0.000000D+00  0.000000D+00  0.000000D+00
     14   0.000000D+00  0.000000D+00  0.448027D-01  0.000000D+00  0.000000D+00
     15   0.000000D+00  0.000000D+00  0.704908D-01  0.000000D+00  0.000000D+00
     16   0.000000D+00  0.000000D+00  0.000000D+00  0.704907D-01  0.000000D+00
               486           487           488           489           490 
      1  -0.761440D+02 -0.761440D+02 -0.761417D+02 -0.761369D+02 -0.761369D+02
      2   0.000000D+00  0.000000D+00  0.000000D+00  0.000000D+00  0.000000D+00
      3   0.000000D+00  0.000000D+00  0.000000D+00  0.000000D+00  0.000000D+00
      4   0.000000D+00  0.000000D+00  0.000000D+00  0.000000D+00  0.000000D+00
      5   0.000000D+00  0.000000D+00  0.000000D+00  0.000000D+00  0.000000D+00
      6   0.000000D+00  0.000000D+00  0.000000D+00  0.000000D+00  0.000000D+00
      7   0.000000D+00  0.000000D+00  0.000000D+00  0.000000D+00  0.000000D+00
      8   0.830039D-01  0.000000D+00  0.000000D+00  0.433179D-02  0.000000D+00
      9   0.000000D+00 -0.830039D-01  0.000000D+00  0.000000D+00 -0.433176D-02
     10   0.000000D+00  0.000000D+00  0.000000D+00  0.000000D+00  0.000000D+00
     11  -0.391512D+00  0.000000D+00 -0.362252D+00 -0.224179D+00  0.000000D+00
     12   0.391512D+00  0.000000D+00 -0.362252D+00  0.224179D+00  0.000000D+00
     13   0.000000D+00  0.000000D+00 -0.148725D+00  0.000000D+00  0.000000D+00
     14   0.000000D+00 -0.391512D+00  0.000000D+00  0.000000D+00 -0.224179D+00
     15   0.000000D+00 -0.321618D+00  0.000000D+00  0.000000D+00 -0.118531D+00
     16  -0.321618D+00  0.000000D+00  0.000000D+00 -0.118531D+00  0.000000D+00
               491           492           493           494           495 
      1  -0.761256D+02 -0.761202D+02 -0.761202D+02 -0.761079D+02 -0.760758D+02
      2   0.000000D+00  0.000000D+00  0.000000D+00  0.000000D+00  0.000000D+00
      3   0.000000D+00  0.000000D+00  0.000000D+00  0.000000D+00  0.000000D+00
      4   0.000000D+00  0.000000D+00  0.000000D+00  0.000000D+00  0.000000D+00
      5   0.000000D+00  0.000000D+00  0.000000D+00  0.000000D+00  0.000000D+00
      6   0.000000D+00  0.000000D+00  0.000000D+00  0.000000D+00  0.000000D+00
      7   0.000000D+00  0.000000D+00  0.000000D+00  0.000000D+00  0.000000D+00
      8   0.000000D+00 -0.396386D-01  0.000000D+00  0.000000D+00  0.000000D+00
      9   0.000000D+00  0.000000D+00 -0.396385D-01  0.000000D+00 -0.510273D+00
     10   0.179711D+00  0.000000D+00  0.000000D+00  0.000000D+00  0.000000D+00
     11   0.000000D+00 -0.127367D+00  0.000000D+00 -0.223622D+00  0.000000D+00
     12   0.000000D+00  0.127367D+00  0.000000D+00 -0.223622D+00  0.000000D+00
     13   0.000000D+00  0.000000D+00  0.000000D+00  0.189208D+00  0.000000D+00
     14   0.000000D+00  0.000000D+00  0.127367D+00  0.000000D+00  0.255284D+00
     15   0.000000D+00  0.000000D+00 -0.435911D+00  0.000000D+00 -0.274412D+00
     16   0.000000D+00  0.435911D+00  0.000000D+00  0.000000D+00  0.000000D+00
               496           497           498           499           500 
      1  -0.760758D+02 -0.760653D+02 -0.760346D+02 -0.760222D+02 -0.760222D+02
      2   0.000000D+00  0.000000D+00  0.000000D+00  0.118308D+00  0.000000D+00
      3   0.000000D+00  0.000000D+00  0.000000D+00  0.000000D+00 -0.118308D+00
      4   0.000000D+00  0.000000D+00  0.000000D+00  0.000000D+00  0.000000D+00
      5   0.000000D+00  0.000000D+00  0.000000D+00 -0.307596D+00  0.000000D+00
      6   0.000000D+00  0.000000D+00  0.000000D+00  0.000000D+00  0.307596D+00
      7   0.000000D+00  0.000000D+00  0.000000D+00  0.000000D+00  0.000000D+00
      8   0.510273D+00  0.000000D+00  0.000000D+00  0.000000D+00  0.000000D+00
      9   0.000000D+00  0.000000D+00  0.000000D+00  0.000000D+00  0.000000D+00
     10   0.000000D+00  0.000000D+00  0.000000D+00  0.000000D+00  0.000000D+00
     11   0.255284D+00  0.992184D-01  0.000000D+00  0.000000D+00  0.000000D+00
     12  -0.255284D+00  0.992180D-01  0.000000D+00  0.000000D+00  0.000000D+00
     13   0.000000D+00 -0.826606D+00  0.000000D+00  0.000000D+00  0.000000D+00
     14   0.000000D+00  0.000000D+00  0.000000D+00  0.000000D+00  0.000000D+00
     15   0.000000D+00  0.000000D+00  0.000000D+00  0.000000D+00  0.000000D+00
     16  -0.274412D+00  0.000000D+00  0.000000D+00  0.000000D+00  0.000000D+00
               501           502           503           504           505 
      1  -0.760216D+02 -0.759959D+02 -0.759959D+02 -0.759883D+02 -0.759883D+02
      2   0.000000D+00  0.000000D+00  0.000000D+00  0.000000D+00  0.000000D+00
      3   0.000000D+00  0.000000D+00  0.000000D+00  0.000000D+00  0.000000D+00
      4   0.477227D-01  0.000000D+00  0.000000D+00  0.000000D+00  0.000000D+00
      5   0.000000D+00  0.000000D+00  0.000000D+00  0.000000D+00  0.000000D+00
      6   0.000000D+00  0.000000D+00  0.000000D+00  0.000000D+00  0.000000D+00
      7  -0.176931D+00  0.000000D+00  0.000000D+00  0.000000D+00  0.000000D+00
      8   0.000000D+00  0.000000D+00 -0.163411D+00 -0.679600D-01  0.000000D+00
      9   0.000000D+00  0.163411D+00  0.000000D+00  0.000000D+00 -0.679600D-01
     10   0.000000D+00  0.000000D+00  0.000000D+00  0.000000D+00  0.000000D+00
     11   0.000000D+00  0.000000D+00  0.957311D-01  0.410353D+00  0.000000D+00
     12   0.000000D+00  0.000000D+00 -0.957310D-01 -0.410354D+00  0.000000D+00
     13   0.000000D+00  0.000000D+00  0.000000D+00  0.000000D+00  0.000000D+00
     14   0.000000D+00  0.957311D-01  0.000000D+00  0.000000D+00 -0.410353D+00
     15   0.000000D+00  0.416039D+00  0.000000D+00  0.000000D+00 -0.123433D+00
     16   0.000000D+00  0.000000D+00  0.416038D+00  0.123433D+00  0.000000D+00
               506           507           508           509           510 
      1  -0.759812D+02 -0.759534D+02 -0.759036D+02 -0.759036D+02 -0.758736D+02
      2   0.000000D+00  0.000000D+00 -0.485255D-01  0.000000D+00  0.751488D-01
      3   0.000000D+00  0.000000D+00  0.000000D+00 -0.485255D-01  0.000000D+00
      4   0.000000D+00  0.000000D+00  0.000000D+00  0.000000D+00  0.000000D+00
      5   0.000000D+00  0.000000D+00  0.857414D-01  0.000000D+00 -0.193065D+00
      6   0.000000D+00  0.000000D+00  0.000000D+00  0.857414D-01  0.000000D+00
      7   0.000000D+00  0.000000D+00  0.000000D+00  0.000000D+00  0.000000D+00
      8   0.000000D+00  0.000000D+00  0.000000D+00  0.000000D+00  0.000000D+00
      9   0.000000D+00  0.000000D+00  0.000000D+00  0.000000D+00  0.000000D+00
     10   0.000000D+00  0.000000D+00  0.000000D+00  0.000000D+00  0.000000D+00
     11   0.131419D+00  0.113906D+00  0.000000D+00  0.000000D+00  0.000000D+00
     12   0.131419D+00  0.113905D+00  0.000000D+00  0.000000D+00  0.000000D+00
     13   0.366241D+00 -0.676217D+00  0.000000D+00  0.000000D+00  0.000000D+00
     14   0.000000D+00  0.000000D+00  0.000000D+00  0.000000D+00  0.000000D+00
     15   0.000000D+00  0.000000D+00  0.000000D+00  0.000000D+00  0.000000D+00
     16   0.000000D+00  0.000000D+00  0.000000D+00  0.000000D+00  0.000000D+00
               511           512           513           514           515 
      1  -0.758736D+02 -0.758567D+02 -0.758567D+02 -0.758528D+02 -0.757977D+02
      2   0.000000D+00  0.000000D+00  0.672369D-01  0.000000D+00  0.000000D+00
      3   0.751488D-01 -0.672369D-01  0.000000D+00  0.000000D+00 -0.835173D-01
      4   0.000000D+00  0.000000D+00  0.000000D+00  0.564700D-02  0.000000D+00
      5   0.000000D+00  0.000000D+00 -0.164984D+00  0.000000D+00  0.000000D+00
      6  -0.193065D+00  0.164984D+00  0.000000D+00  0.000000D+00  0.207729D+00
      7   0.000000D+00  0.000000D+00  0.000000D+00 -0.282434D-01  0.000000D+00
      8   0.000000D+00  0.000000D+00  0.000000D+00  0.000000D+00  0.000000D+00
      9   0.000000D+00  0.000000D+00  0.000000D+00  0.000000D+00  0.000000D+00
     10   0.000000D+00  0.000000D+00  0.000000D+00  0.000000D+00  0.000000D+00
     11   0.000000D+00  0.000000D+00  0.000000D+00  0.000000D+00  0.000000D+00
     12   0.000000D+00  0.000000D+00  0.000000D+00  0.000000D+00  0.000000D+00
     13   0.000000D+00  0.000000D+00  0.000000D+00  0.000000D+00  0.000000D+00
     14   0.000000D+00  0.000000D+00  0.000000D+00  0.000000D+00  0.000000D+00
     15   0.000000D+00  0.000000D+00  0.000000D+00  0.000000D+00  0.000000D+00
     16   0.000000D+00  0.000000D+00  0.000000D+00  0.000000D+00  0.000000D+00
               516           517           518           519           520 
      1  -0.757977D+02 -0.757551D+02 -0.757421D+02 -0.757421D+02 -0.757303D+02
      2  -0.835173D-01  0.000000D+00  0.000000D+00  0.000000D+00  0.000000D+00
      3   0.000000D+00  0.000000D+00  0.000000D+00  0.000000D+00  0.000000D+00
      4   0.000000D+00  0.650706D-01  0.000000D+00  0.000000D+00  0.179081D+00
      5   0.207729D+00  0.000000D+00  0.000000D+00  0.000000D+00  0.000000D+00
      6   0.000000D+00  0.000000D+00  0.000000D+00  0.000000D+00  0.000000D+00
      7   0.000000D+00 -0.184382D+00  0.000000D+00  0.000000D+00 -0.527835D+00
      8   0.000000D+00  0.000000D+00  0.000000D+00  0.129464D+00  0.000000D+00
      9   0.000000D+00  0.000000D+00 -0.129464D+00  0.000000D+00  0.000000D+00
     10   0.000000D+00  0.000000D+00  0.000000D+00  0.000000D+00  0.000000D+00
     11   0.000000D+00  0.000000D+00  0.000000D+00  0.213480D-01  0.000000D+00
     12   0.000000D+00  0.000000D+00  0.000000D+00 -0.213479D-01  0.000000D+00
     13   0.000000D+00  0.000000D+00  0.000000D+00  0.000000D+00  0.000000D+00
     14   0.000000D+00  0.000000D+00  0.213479D-01  0.000000D+00  0.000000D+00
     15   0.000000D+00  0.000000D+00  0.998220D-01  0.000000D+00  0.000000D+00
     16   0.000000D+00  0.000000D+00  0.000000D+00  0.998220D-01  0.000000D+00
               521           522           523           524           525 
      1  -0.757075D+02 -0.757075D+02 -0.757022D+02 -0.757005D+02 -0.757005D+02
      2   0.000000D+00  0.000000D+00  0.000000D+00  0.000000D+00  0.000000D+00
      3   0.000000D+00  0.000000D+00  0.000000D+00  0.000000D+00  0.000000D+00
      4   0.000000D+00  0.000000D+00  0.000000D+00  0.000000D+00  0.000000D+00
      5   0.000000D+00  0.000000D+00  0.000000D+00  0.000000D+00  0.000000D+00
      6   0.000000D+00  0.000000D+00  0.000000D+00  0.000000D+00  0.000000D+00
      7   0.000000D+00  0.000000D+00  0.000000D+00  0.000000D+00  0.000000D+00
      8   0.000000D+00 -0.422052D-01  0.000000D+00  0.459050D+00  0.000000D+00
      9   0.422051D-01  0.000000D+00  0.000000D+00  0.000000D+00  0.459050D+00
     10   0.000000D+00  0.000000D+00  0.108384D+00  0.000000D+00  0.000000D+00
     11   0.000000D+00  0.120188D+00  0.000000D+00 -0.165285D-01  0.000000D+00
     12   0.000000D+00 -0.120188D+00  0.000000D+00  0.165285D-01  0.000000D+00
     13   0.000000D+00  0.000000D+00  0.000000D+00  0.000000D+00  0.000000D+00
     14   0.120188D+00  0.000000D+00  0.000000D+00  0.000000D+00  0.165285D-01
     15   0.329036D+00  0.000000D+00  0.000000D+00  0.000000D+00  0.182130D+00
     16   0.000000D+00  0.329036D+00  0.000000D+00 -0.182130D+00  0.000000D+00
               526           527           528           529           530 
      1  -0.756853D+02 -0.756622D+02 -0.756622D+02 -0.756230D+02 -0.756178D+02
      2   0.000000D+00  0.000000D+00  0.000000D+00  0.000000D+00  0.000000D+00
      3   0.000000D+00  0.000000D+00  0.000000D+00  0.000000D+00 -0.633953D-01
      4   0.000000D+00  0.000000D+00  0.000000D+00  0.000000D+00  0.000000D+00
      5   0.000000D+00  0.000000D+00  0.000000D+00  0.000000D+00  0.000000D+00
      6   0.000000D+00  0.000000D+00  0.000000D+00  0.000000D+00  0.207202D+00
      7   0.000000D+00  0.000000D+00  0.000000D+00  0.000000D+00  0.000000D+00
      8   0.000000D+00  0.591390D+00  0.000000D+00  0.000000D+00  0.000000D+00
      9   0.000000D+00  0.000000D+00 -0.591390D+00  0.000000D+00  0.000000D+00
     10   0.000000D+00  0.000000D+00  0.000000D+00  0.000000D+00  0.000000D+00
     11  -0.113931D+00 -0.160644D+00  0.000000D+00  0.000000D+00  0.000000D+00
     12  -0.113931D+00  0.160644D+00  0.000000D+00  0.000000D+00  0.000000D+00
     13  -0.986687D+00  0.000000D+00  0.000000D+00  0.000000D+00  0.000000D+00
     14   0.000000D+00  0.000000D+00 -0.160644D+00  0.000000D+00  0.000000D+00
     15   0.000000D+00  0.000000D+00 -0.728994D+00  0.000000D+00  0.000000D+00
     16   0.000000D+00 -0.728994D+00  0.000000D+00  0.000000D+00  0.000000D+00
               531           532           533           534           535 
      1  -0.756178D+02 -0.756159D+02 -0.756156D+02 -0.756106D+02 -0.756047D+02
      2  -0.633953D-01  0.000000D+00  0.000000D+00  0.000000D+00  0.000000D+00
      3   0.000000D+00  0.000000D+00  0.000000D+00  0.000000D+00  0.137066D+00
      4   0.000000D+00  0.280561D-02  0.000000D+00  0.000000D+00  0.000000D+00
      5   0.207202D+00  0.000000D+00  0.000000D+00  0.000000D+00  0.000000D+00
      6   0.000000D+00  0.000000D+00  0.000000D+00  0.000000D+00 -0.377242D+00
      7   0.000000D+00  0.291827D-03  0.000000D+00  0.000000D+00  0.000000D+00
      8   0.000000D+00  0.000000D+00  0.000000D+00  0.000000D+00  0.000000D+00
      9   0.000000D+00  0.000000D+00  0.000000D+00  0.000000D+00  0.000000D+00
     10   0.000000D+00  0.000000D+00  0.000000D+00  0.000000D+00  0.000000D+00
     11   0.000000D+00  0.000000D+00  0.138538D+00  0.000000D+00  0.000000D+00
     12   0.000000D+00  0.000000D+00  0.138538D+00  0.000000D+00  0.000000D+00
     13   0.000000D+00  0.000000D+00 -0.197259D+00  0.000000D+00  0.000000D+00
     14   0.000000D+00  0.000000D+00  0.000000D+00  0.000000D+00  0.000000D+00
     15   0.000000D+00  0.000000D+00  0.000000D+00  0.000000D+00  0.000000D+00
     16   0.000000D+00  0.000000D+00  0.000000D+00  0.000000D+00  0.000000D+00
               536           537           538           539           540 
      1  -0.756047D+02 -0.755860D+02 -0.755860D+02 -0.755858D+02 -0.755429D+02
      2  -0.137066D+00  0.000000D+00  0.135742D+00  0.000000D+00  0.000000D+00
      3   0.000000D+00  0.135742D+00  0.000000D+00  0.000000D+00  0.000000D+00
      4   0.000000D+00  0.000000D+00  0.000000D+00  0.150520D+00  0.000000D+00
      5   0.377242D+00  0.000000D+00 -0.378368D+00  0.000000D+00  0.000000D+00
      6   0.000000D+00 -0.378368D+00  0.000000D+00  0.128360D-05  0.000000D+00
      7   0.000000D+00 -0.142749D-05  0.000000D+00 -0.425359D+00  0.000000D+00
      8   0.000000D+00  0.000000D+00  0.000000D+00  0.000000D+00  0.000000D+00
      9   0.000000D+00  0.000000D+00  0.000000D+00  0.000000D+00  0.000000D+00
     10   0.000000D+00  0.000000D+00  0.000000D+00  0.000000D+00  0.000000D+00
     11   0.000000D+00  0.000000D+00  0.000000D+00  0.000000D+00  0.152016D+00
     12   0.000000D+00  0.000000D+00  0.000000D+00  0.000000D+00  0.152015D+00
     13   0.000000D+00  0.000000D+00  0.000000D+00  0.000000D+00 -0.156095D+01
     14   0.000000D+00  0.000000D+00  0.000000D+00  0.000000D+00  0.000000D+00
     15   0.000000D+00  0.000000D+00  0.000000D+00  0.000000D+00  0.000000D+00
     16   0.000000D+00  0.000000D+00  0.000000D+00  0.000000D+00  0.000000D+00
               541           542           543           544           545 
      1  -0.755322D+02 -0.755232D+02 -0.755232D+02 -0.755170D+02 -0.754528D+02
      2   0.000000D+00  0.000000D+00  0.000000D+00  0.000000D+00 -0.519126D-01
      3   0.000000D+00  0.000000D+00  0.000000D+00  0.000000D+00  0.000000D+00
      4   0.000000D+00  0.000000D+00  0.000000D+00  0.000000D+00  0.000000D+00
      5   0.000000D+00  0.000000D+00  0.000000D+00  0.000000D+00  0.143918D+00
      6   0.000000D+00  0.000000D+00  0.000000D+00  0.000000D+00  0.000000D+00
      7   0.000000D+00  0.000000D+00  0.000000D+00  0.000000D+00  0.000000D+00
      8   0.000000D+00  0.560371D+00  0.000000D+00 -0.165338D-05  0.000000D+00
      9   0.000000D+00  0.000000D+00  0.560371D+00  0.000000D+00  0.000000D+00
     10   0.141349D-01  0.000000D+00  0.000000D+00  0.000000D+00  0.000000D+00
     11   0.000000D+00  0.849351D-01  0.000000D+00 -0.555961D-01  0.000000D+00
     12   0.000000D+00 -0.849351D-01  0.000000D+00 -0.555959D-01  0.000000D+00
     13   0.000000D+00 -0.245855D-05  0.000000D+00 -0.767390D+00  0.000000D+00
     14   0.000000D+00  0.000000D+00 -0.849351D-01  0.000000D+00  0.000000D+00
     15   0.000000D+00  0.000000D+00  0.523484D+00  0.000000D+00  0.000000D+00
     16   0.000000D+00 -0.523484D+00  0.000000D+00  0.219079D-05  0.000000D+00
               546           547           548           549           550 
      1  -0.754528D+02 -0.754189D+02 -0.753740D+02 -0.753740D+02 -0.753218D+02
      2   0.000000D+00  0.000000D+00  0.000000D+00  0.000000D+00  0.000000D+00
      3  -0.519126D-01  0.000000D+00  0.000000D+00  0.000000D+00  0.000000D+00
      4   0.000000D+00  0.793084D-01  0.000000D+00  0.000000D+00  0.000000D+00
      5   0.000000D+00  0.000000D+00  0.000000D+00  0.000000D+00  0.000000D+00
      6   0.143918D+00  0.000000D+00  0.000000D+00  0.000000D+00  0.000000D+00
      7   0.000000D+00 -0.190149D+00  0.000000D+00  0.000000D+00  0.000000D+00
      8   0.000000D+00  0.000000D+00  0.000000D+00 -0.276298D+00 -0.481718D+00
      9   0.000000D+00  0.000000D+00  0.276298D+00  0.000000D+00  0.000000D+00
     10   0.000000D+00  0.000000D+00  0.000000D+00  0.000000D+00  0.000000D+00
     11   0.000000D+00  0.000000D+00  0.000000D+00  0.669876D-01  0.239250D+00
     12   0.000000D+00  0.000000D+00  0.000000D+00 -0.669876D-01 -0.239250D+00
     13   0.000000D+00  0.000000D+00  0.000000D+00  0.000000D+00  0.000000D+00
     14   0.000000D+00  0.000000D+00  0.669876D-01  0.000000D+00  0.000000D+00
     15   0.000000D+00  0.000000D+00  0.824110D-01  0.000000D+00  0.000000D+00
     16   0.000000D+00  0.000000D+00  0.000000D+00  0.824110D-01  0.402815D+00
               551           552           553 
      1  -0.753218D+02 -0.752424D+02 -0.752424D+02
      2   0.000000D+00  0.000000D+00 -0.113931D+00
      3   0.000000D+00 -0.113931D+00  0.000000D+00
      4   0.000000D+00  0.000000D+00  0.000000D+00
      5   0.000000D+00  0.000000D+00  0.336381D+00
      6   0.000000D+00  0.336381D+00  0.000000D+00
      7   0.000000D+00  0.000000D+00  0.000000D+00
      8   0.000000D+00  0.000000D+00  0.000000D+00
      9   0.481718D+00  0.000000D+00  0.000000D+00
     10   0.000000D+00  0.000000D+00  0.000000D+00
     11   0.000000D+00  0.000000D+00  0.000000D+00
     12   0.000000D+00  0.000000D+00  0.000000D+00
     13   0.000000D+00  0.000000D+00  0.000000D+00
     14   0.239250D+00  0.000000D+00  0.000000D+00
     15   0.402815D+00  0.000000D+00  0.000000D+00
     16   0.000000D+00  0.000000D+00  0.000000D+00
 Unable to Open any file for archive entry.
 1\1\GINC-HEL23\SP\RSVWN5 TD-FC\Gen\C2H6\SABYASACHI\21-Mar-2022\0\\#P T
 D(Nstates=10000) svwn5/Gen SCF(maxcycles=100) Int(Grid=ultrafine)\\xGD
 B7_00001_tier4.com\\0,1\C,0,0.,0.,0.761397\C,0,0.,0.,-0.761397\H,0,0.,
 1.01711,1.157248\H,0,0.880843,-0.508555,1.157248\H,0,-0.880843,-0.5085
 55,1.157248\H,0,0.880843,0.508555,-1.157248\H,0,-0.880843,0.508555,-1.
 157248\H,0,0.,-1.01711,-1.157248\\Version=EM64L-G16RevC.01\State=1-A1G
 \HF=-78.9844913\RMSD=3.100e-09\PG=D03D [C3(C1.C1),3SGD(H2)]\\@
 The archive entry for this job was punched.


 CHILDREN YOU ARE VERY LITTLE,
 AND YOUR BONES ARE VERY BRITTLE;
 IF YOU WOULD GROW GREAT AND STATELY
 YOU MUST TRY TO WALK SEDATELY.
 YOU MUST STILL BE BRIGHT AND QUIET,
 AND CONTENT WITH SIMPLE DIET;
 AND REMAIN, THROUGH ALL BEWILD'RING
 INNOCENT AND HONEST CHILDREN.
     -- A CHILD'S GARDEN OF VERSE,
        ROBERT LOUIS STEVENSON
 Job cpu time:       0 days  0 hours  1 minutes 17.9 seconds.
 Elapsed time:       0 days  0 hours  0 minutes 10.1 seconds.
 File lengths (MBytes):  RWF=    158 Int=      0 D2E=      0 Chk=    102 Scr=      1
 Normal termination of Gaussian 16 at Mon Mar 21 19:58:05 2022.
