 Entering Gaussian System, Link 0=g16
 Input=000033.com
 Output=000033.log
 Initial command:
 /home/sabyasachi/g16/l1.exe "/scratch/sabyasachi/PBS_7975870.helios/Gau-103905.inp" -scrdir="/scratch/sabyasachi/PBS_7975870.helios/"
 Entering Link 1 = /home/sabyasachi/g16/l1.exe PID=    103906.
  
 Copyright (c) 1988-2019, Gaussian, Inc.  All Rights Reserved.
  
 This is part of the Gaussian(R) 16 program.  It is based on
 the Gaussian(R) 09 system (copyright 2009, Gaussian, Inc.),
 the Gaussian(R) 03 system (copyright 2003, Gaussian, Inc.),
 the Gaussian(R) 98 system (copyright 1998, Gaussian, Inc.),
 the Gaussian(R) 94 system (copyright 1995, Gaussian, Inc.),
 the Gaussian 92(TM) system (copyright 1992, Gaussian, Inc.),
 the Gaussian 90(TM) system (copyright 1990, Gaussian, Inc.),
 the Gaussian 88(TM) system (copyright 1988, Gaussian, Inc.),
 the Gaussian 86(TM) system (copyright 1986, Carnegie Mellon
 University), and the Gaussian 82(TM) system (copyright 1983,
 Carnegie Mellon University). Gaussian is a federally registered
 trademark of Gaussian, Inc.
  
 This software contains proprietary and confidential information,
 including trade secrets, belonging to Gaussian, Inc.
  
 This software is provided under written license and may be
 used, copied, transmitted, or stored only in accord with that
 written license.
  
 The following legend is applicable only to US Government
 contracts under FAR:
  
                    RESTRICTED RIGHTS LEGEND
  
 Use, reproduction and disclosure by the US Government is
 subject to restrictions as set forth in subparagraphs (a)
 and (c) of the Commercial Computer Software - Restricted
 Rights clause in FAR 52.227-19.
  
 Gaussian, Inc.
 340 Quinnipiac St., Bldg. 40, Wallingford CT 06492
  
  
 ---------------------------------------------------------------
 Warning -- This program may not be used in any manner that
 competes with the business of Gaussian, Inc. or will provide
 assistance to any competitor of Gaussian, Inc.  The licensee
 of this program is prohibited from giving any competitor of
 Gaussian, Inc. access to this program.  By using this program,
 the user acknowledges that Gaussian, Inc. is engaged in the
 business of creating and licensing software in the field of
 computational chemistry and represents and warrants to the
 licensee that it is not a competitor of Gaussian, Inc. and that
 it will not use this program in any manner prohibited above.
 ---------------------------------------------------------------
  

 Cite this work as:
 Gaussian 16, Revision C.01,
 M. J. Frisch, G. W. Trucks, H. B. Schlegel, G. E. Scuseria, 
 M. A. Robb, J. R. Cheeseman, G. Scalmani, V. Barone, 
 G. A. Petersson, H. Nakatsuji, X. Li, M. Caricato, A. V. Marenich, 
 J. Bloino, B. G. Janesko, R. Gomperts, B. Mennucci, H. P. Hratchian, 
 J. V. Ortiz, A. F. Izmaylov, J. L. Sonnenberg, D. Williams-Young, 
 F. Ding, F. Lipparini, F. Egidi, J. Goings, B. Peng, A. Petrone, 
 T. Henderson, D. Ranasinghe, V. G. Zakrzewski, J. Gao, N. Rega, 
 G. Zheng, W. Liang, M. Hada, M. Ehara, K. Toyota, R. Fukuda, 
 J. Hasegawa, M. Ishida, T. Nakajima, Y. Honda, O. Kitao, H. Nakai, 
 T. Vreven, K. Throssell, J. A. Montgomery, Jr., J. E. Peralta, 
 F. Ogliaro, M. J. Bearpark, J. J. Heyd, E. N. Brothers, K. N. Kudin, 
 V. N. Staroverov, T. A. Keith, R. Kobayashi, J. Normand, 
 K. Raghavachari, A. P. Rendell, J. C. Burant, S. S. Iyengar, 
 J. Tomasi, M. Cossi, J. M. Millam, M. Klene, C. Adamo, R. Cammi, 
 J. W. Ochterski, R. L. Martin, K. Morokuma, O. Farkas, 
 J. B. Foresman, and D. J. Fox, Gaussian, Inc., Wallingford CT, 2019.
 
 ******************************************
 Gaussian 16:  EM64L-G16RevC.01  3-Jul-2019
                21-Mar-2022 
 ******************************************
 %mem=64gb
 %nproc=8
 Will use up to    8 processors via shared memory.
 ---------------------------------------------------------------------
 #P TD(Nstates=10000) svwn5/Gen SCF(maxcycles=100) Int(Grid=ultrafine)
 ---------------------------------------------------------------------
 1/38=1,172=1/1;
 2/12=2,17=6,18=5,40=1/2;
 3/5=7,11=9,25=1,30=1,74=201,75=-5/1,2,3,8;
 4//1;
 5/5=2,7=100,38=5/2;
 8/6=1,10=1,108=10000/1;
 9/41=10000,42=1,70=2/14;
 6/7=2,8=2,9=2,10=2/1;
 99/5=1,9=1/99;
 Leave Link    1 at Mon Mar 21 04:00:02 2022, MaxMem=  8589934592 cpu:               0.4 elap:               0.1
 (Enter /home/sabyasachi/g16/l101.exe)
 ---------------------
 xGDB7_00001_tier4.com
 ---------------------
 Symbolic Z-matrix:
 Charge =  0 Multiplicity = 1
 6                     0.        0.72955  -0.36736 
 6                     0.       -0.72955  -0.36736 
 8                     0.        0.        0.84503 
 1                    -0.91895   1.26424  -0.58798 
 1                     0.91895   1.26424  -0.58798 
 1                     0.91895  -1.26424  -0.58798 
 1                    -0.91895  -1.26424  -0.58798 
 
 ITRead=  0  0  0  0  0  0  0
 MicOpt= -1 -1 -1 -1 -1 -1 -1
 NAtoms=      7 NQM=        7 NQMF=       0 NMMI=      0 NMMIF=      0
                NMic=       0 NMicF=      0.
                    Isotopes and Nuclear Properties:
 (Nuclear quadrupole moments (NQMom) in fm**2, nuclear magnetic moments (NMagM)
  in nuclear magnetons)

  Atom         1           2           3           4           5           6           7
 IAtWgt=          12          12          16           1           1           1           1
 AtmWgt=  12.0000000  12.0000000  15.9949146   1.0078250   1.0078250   1.0078250   1.0078250
 NucSpn=           0           0           0           1           1           1           1
 AtZEff=  -0.0000000  -0.0000000  -0.0000000  -0.0000000  -0.0000000  -0.0000000  -0.0000000
 NQMom=    0.0000000   0.0000000   0.0000000   0.0000000   0.0000000   0.0000000   0.0000000
 NMagM=    0.0000000   0.0000000   0.0000000   2.7928460   2.7928460   2.7928460   2.7928460
 AtZNuc=   6.0000000   6.0000000   8.0000000   1.0000000   1.0000000   1.0000000   1.0000000
 Leave Link  101 at Mon Mar 21 04:00:02 2022, MaxMem=  8589934592 cpu:               0.6 elap:               0.1
 (Enter /home/sabyasachi/g16/l202.exe)
                          Input orientation:                          
 ---------------------------------------------------------------------
 Center     Atomic      Atomic             Coordinates (Angstroms)
 Number     Number       Type             X           Y           Z
 ---------------------------------------------------------------------
      1          6           0        0.000000    0.729549   -0.367364
      2          6           0        0.000000   -0.729549   -0.367364
      3          8           0        0.000000    0.000000    0.845033
      4          1           0       -0.918945    1.264243   -0.587975
      5          1           0        0.918945    1.264243   -0.587975
      6          1           0        0.918945   -1.264243   -0.587975
      7          1           0       -0.918945   -1.264243   -0.587975
 ---------------------------------------------------------------------
                    Distance matrix (angstroms):
                    1          2          3          4          5
     1  C    0.000000
     2  C    1.459098   0.000000
     3  O    1.414973   1.414973   0.000000
     4  H    1.085830   2.206431   2.120444   0.000000
     5  H    1.085830   2.206431   2.120444   1.837890   0.000000
     6  H    2.206431   1.085830   2.120444   3.125873   2.528486
     7  H    2.206431   1.085830   2.120444   2.528486   3.125873
                    6          7
     6  H    0.000000
     7  H    1.837890   0.000000
 Stoichiometry    C2H4O
 Framework group  C2V[C2(O),SGV(C2),X(H4)]
 Deg. of freedom     5
 Full point group                 C2V     NOp   4
 Largest Abelian subgroup         C2V     NOp   4
 Largest concise Abelian subgroup C2V     NOp   4
                         Standard orientation:                         
 ---------------------------------------------------------------------
 Center     Atomic      Atomic             Coordinates (Angstroms)
 Number     Number       Type             X           Y           Z
 ---------------------------------------------------------------------
      1          6           0        0.000000    0.729549   -0.367364
      2          6           0       -0.000000   -0.729549   -0.367364
      3          8           0       -0.000000   -0.000000    0.845033
      4          1           0       -0.918945    1.264243   -0.587975
      5          1           0        0.918945    1.264243   -0.587975
      6          1           0        0.918945   -1.264243   -0.587975
      7          1           0       -0.918945   -1.264243   -0.587975
 ---------------------------------------------------------------------
 Rotational constants (GHZ):          26.1375833          22.3408058          14.3785431
 Leave Link  202 at Mon Mar 21 04:00:02 2022, MaxMem=  8589934592 cpu:               0.1 elap:               0.0
 (Enter /home/sabyasachi/g16/l301.exe)
 General basis read from cards:  (5D, 7F)
 Centers:       4      5      6      7
 S 3 1.00
     Exponent=  1.3010701000D+01 Coefficients=  1.9682158000D-02
     Exponent=  1.9622572000D+00 Coefficients=  1.3796524000D-01
     Exponent=  4.4453796000D-01 Coefficients=  4.7831935000D-01
 S 1 1.00
     Exponent=  1.2194962000D-01 Coefficients=  1.0000000000D+00
 P 1 1.00
     Exponent=  8.0000000000D-01 Coefficients=  1.0000000000D+00
 P 1 1.00
     Exponent=  1.1704099050D-01 Coefficients=  1.0000000000D+00
 ****
 Centers:       1      2
 S 5 1.00
     Exponent=  1.2384016938D+03 Coefficients=  5.4568832082D-03
     Exponent=  1.8629004992D+02 Coefficients=  4.0638409211D-02
     Exponent=  4.2251176346D+01 Coefficients=  1.8025593888D-01
     Exponent=  1.1676557932D+01 Coefficients=  4.6315121755D-01
     Exponent=  3.5930506482D+00 Coefficients=  4.4087173314D-01
 S 1 1.00
     Exponent=  4.0245147363D-01 Coefficients=  1.0000000000D+00
 S 1 1.00
     Exponent=  1.3090182668D-01 Coefficients=  1.0000000000D+00
 S 1 1.00
     Exponent=  6.7053540256D-02 Coefficients=  1.0000000000D+00
 P 3 1.00
     Exponent=  9.4680970621D+00 Coefficients=  3.8387871728D-02
     Exponent=  2.0103545142D+00 Coefficients=  2.1117025112D-01
     Exponent=  5.4771004707D-01 Coefficients=  5.1328172114D-01
 P 1 1.00
     Exponent=  1.5268613795D-01 Coefficients=  1.0000000000D+00
 D 1 1.00
     Exponent=  8.0000000000D-01 Coefficients=  1.0000000000D+00
 D 1 1.00
     Exponent=  1.1713185140D-01 Coefficients=  1.0000000000D+00
 ****
 Centers:       3
 S 5 1.00
     Exponent=  2.2661767785D+03 Coefficients= -5.3431809926D-03
     Exponent=  3.4087010191D+02 Coefficients= -3.9890039230D-02
     Exponent=  7.7363135167D+01 Coefficients= -1.7853911985D-01
     Exponent=  2.1479644940D+01 Coefficients= -4.6427684959D-01
     Exponent=  6.6589433124D+00 Coefficients= -4.4309745172D-01
 S 1 1.00
     Exponent=  8.0975975668D-01 Coefficients=  1.0000000000D+00
 S 1 1.00
     Exponent=  2.5530772234D-01 Coefficients=  1.0000000000D+00
 S 1 1.00
     Exponent=  7.6572453250D-02 Coefficients=  1.0000000000D+00
 P 3 1.00
     Exponent=  1.7721504317D+01 Coefficients=  4.3394573193D-02
     Exponent=  3.8635505440D+00 Coefficients=  2.3094120765D-01
     Exponent=  1.0480920883D+00 Coefficients=  5.1375311064D-01
 P 1 1.00
     Exponent=  2.7641544411D-01 Coefficients=  1.0000000000D+00
 P 1 1.00
     Exponent=  6.9002276350D-02 Coefficients=  1.0000000000D+00
 D 1 1.00
     Exponent=  1.2000000000D+00 Coefficients=  1.0000000000D+00
 D 1 1.00
     Exponent=  1.7992024323D-01 Coefficients=  1.0000000000D+00
 ****
 Ernie: Thresh=  0.10000D-02 Tol=  0.10000D-05 Strict=F.
 There are    37 symmetry adapted cartesian basis functions of A1  symmetry.
 There are    16 symmetry adapted cartesian basis functions of A2  symmetry.
 There are    19 symmetry adapted cartesian basis functions of B1  symmetry.
 There are    29 symmetry adapted cartesian basis functions of B2  symmetry.
 There are    33 symmetry adapted basis functions of A1  symmetry.
 There are    16 symmetry adapted basis functions of A2  symmetry.
 There are    19 symmetry adapted basis functions of B1  symmetry.
 There are    27 symmetry adapted basis functions of B2  symmetry.
    95 basis functions,   139 primitive gaussians,   101 cartesian basis functions
    12 alpha electrons       12 beta electrons
       nuclear repulsion energy        75.7300204600 Hartrees.
 IExCor=  201 DFT=T Ex=S Corr=VWN5 ExCW=0 ScaHFX=  0.000000
 ScaDFX=  1.000000  1.000000  1.000000  1.000000 ScalE2=  1.000000  1.000000
 IRadAn=      5 IRanWt=     -1 IRanGd=            0 ICorTp=0 IEmpDi=  4
 NAtoms=    7 NActive=    7 NUniq=    3 SFac= 4.00D+00 NAtFMM=   60 NAOKFM=F Big=F
 Integral buffers will be    131072 words long.
 Regular integral format.
 Two-electron integral symmetry is turned on.
 Leave Link  301 at Mon Mar 21 04:00:02 2022, MaxMem=  8589934592 cpu:               0.6 elap:               0.1
 (Enter /home/sabyasachi/g16/l302.exe)
 NPDir=0 NMtPBC=     1 NCelOv=     1 NCel=       1 NClECP=     1 NCelD=      1
         NCelK=      1 NCelE2=     1 NClLst=     1 CellRange=     0.0.
 One-electron integrals computed using PRISM.
 One-electron integral symmetry used in STVInt
 NBasis=    95 RedAO= T EigKep=  1.49D-04  NBF=    33    16    19    27
 NBsUse=    95 1.00D-06 EigRej= -1.00D+00 NBFU=    33    16    19    27
 Precomputing XC quadrature grid using
 IXCGrd= 4 IRadAn=           5 IRanWt=          -1 IRanGd=           0 AccXCQ= 0.00D+00.
 Generated NRdTot=       0 NPtTot=           0 NUsed=           0 NTot=          32
 NSgBfM=   101   101   101   101   101 MxSgAt=     7 MxSgA2=     7.
 Leave Link  302 at Mon Mar 21 04:00:02 2022, MaxMem=  8589934592 cpu:               1.0 elap:               0.1
 (Enter /home/sabyasachi/g16/l303.exe)
 DipDrv:  MaxL=1.
 Leave Link  303 at Mon Mar 21 04:00:02 2022, MaxMem=  8589934592 cpu:               0.2 elap:               0.0
 (Enter /home/sabyasachi/g16/l308.exe)
 Leave Link  308 at Mon Mar 21 04:00:02 2022, MaxMem=  8589934592 cpu:               0.2 elap:               0.0
 (Enter /home/sabyasachi/g16/l401.exe)
 ExpMin= 6.71D-02 ExpMax= 2.27D+03 ExpMxC= 3.41D+02 IAcc=3 IRadAn=         5 AccDes= 0.00D+00
 Harris functional with IExCor=  201 and IRadAn=       5 diagonalized for initial guess.
 HarFok:  IExCor=  201 AccDes= 0.00D+00 IRadAn=         5 IDoV= 1 UseB2=F ITyADJ=14
 ICtDFT=  3500011 ScaDFX=  1.000000  1.000000  1.000000  1.000000
 FoFCou: FMM=F IPFlag=           0 FMFlag=      100000 FMFlg1=           0
         NFxFlg=           0 DoJE=T BraDBF=F KetDBF=T FulRan=T
         wScrn=  0.000000 ICntrl=       500 IOpCl=  0 I1Cent=   200000004 NGrid=           0
         NMat0=    1 NMatS0=      1 NMatT0=    0 NMatD0=    1 NMtDS0=    0 NMtDT0=    0
 Petite list used in FoFCou.
 Harris En= -152.478431473693    
 JPrj=0 DoOrth=F DoCkMO=F.
 Initial guess orbital symmetries:
       Occupied  (A1) (B2) (A1) (A1) (A1) (B2) (B1) (A1) (B2) (A2)
                 (A1) (B1)
       Virtual   (B2) (A1) (A1) (B2) (B1) (A1) (A2) (A1) (B2) (B1)
                 (B2) (B1) (A1) (A1) (B2) (A2) (B1) (A1) (B2) (B1)
                 (A1) (B2) (A2) (A1) (A2) (B2) (A1) (B1) (A2) (B2)
                 (A1) (B1) (B2) (B2) (A1) (B1) (B2) (A1) (A2) (A1)
                 (A2) (A1) (B1) (B2) (A2) (B2) (A1) (B1) (B2) (A1)
                 (B2) (A2) (B1) (A1) (B1) (A1) (A2) (B2) (A1) (B1)
                 (B1) (B2) (A2) (A1) (B2) (A1) (A2) (A1) (B1) (B2)
                 (A1) (B2) (A2) (B2) (B1) (A1) (A1) (A2) (B2) (B1)
                 (A2) (A1) (B2)
 The electronic state of the initial guess is 1-A1.
 Leave Link  401 at Mon Mar 21 04:00:02 2022, MaxMem=  8589934592 cpu:               1.4 elap:               0.2
 (Enter /home/sabyasachi/g16/l502.exe)
 Keep J ints in memory in symmetry-blocked form, NReq=17819208.
 FoFCou: FMM=F IPFlag=           0 FMFlag=           0 FMFlg1=           0
         NFxFlg=           0 DoJE=F BraDBF=F KetDBF=F FulRan=T
         wScrn=  0.000000 ICntrl=       600 IOpCl=  0 I1Cent=           0 NGrid=           0
         NMat0=    1 NMatS0=   4560 NMatT0=    0 NMatD0=    1 NMtDS0=    0 NMtDT0=    0
 Petite list used in FoFCou.
 Closed shell SCF:
 Using DIIS extrapolation, IDIIS=  1040.
 NGot=  8589934592 LenX=  8587281350 LenY=  8587270708
 Requested convergence on RMS density matrix=1.00D-08 within 100 cycles.
 Requested convergence on MAX density matrix=1.00D-06.
 Requested convergence on             energy=1.00D-06.
 No special actions if energy rises.
 Integral accuracy reduced to 1.0D-05 until final iterations.

 Cycle   1  Pass 0  IDiag  1:
 E= -152.362674126759    
 DIIS: error= 3.21D-02 at cycle   1 NSaved=   1.
 NSaved= 1 IEnMin= 1 EnMin= -152.362674126759     IErMin= 1 ErrMin= 3.21D-02
 ErrMax= 3.21D-02  0.00D+00 EMaxC= 1.00D-01 BMatC= 4.23D-02 BMatP= 4.23D-02
 IDIUse=3 WtCom= 6.79D-01 WtEn= 3.21D-01
 Coeff-Com:  0.100D+01
 Coeff-En:   0.100D+01
 Coeff:      0.100D+01
 Gap=     0.223 Goal=   None    Shift=    0.000
 GapD=    0.223 DampG=1.000 DampE=0.500 DampFc=0.5000 IDamp=-1.
 Damping current iteration by 5.00D-01
 RMSDP=5.67D-03 MaxDP=1.02D-01              OVMax= 1.53D-01

 Cycle   2  Pass 0  IDiag  1:
 E= -152.378121920759     Delta-E=       -0.015447794000 Rises=F Damp=T
 DIIS: error= 9.48D-03 at cycle   2 NSaved=   2.
 NSaved= 2 IEnMin= 2 EnMin= -152.378121920759     IErMin= 2 ErrMin= 9.48D-03
 ErrMax= 9.48D-03  0.00D+00 EMaxC= 1.00D-01 BMatC= 6.27D-03 BMatP= 4.23D-02
 IDIUse=3 WtCom= 9.05D-01 WtEn= 9.48D-02
 Coeff-Com:  0.224D+00 0.776D+00
 Coeff-En:   0.316D+00 0.684D+00
 Coeff:      0.233D+00 0.767D+00
 Gap=     0.255 Goal=   None    Shift=    0.000
 RMSDP=1.30D-03 MaxDP=1.99D-02 DE=-1.54D-02 OVMax= 1.03D-01

 Cycle   3  Pass 0  IDiag  1:
 E= -152.409771521661     Delta-E=       -0.031649600902 Rises=F Damp=F
 DIIS: error= 7.05D-03 at cycle   3 NSaved=   3.
 NSaved= 3 IEnMin= 3 EnMin= -152.409771521661     IErMin= 3 ErrMin= 7.05D-03
 ErrMax= 7.05D-03  0.00D+00 EMaxC= 1.00D-01 BMatC= 4.15D-03 BMatP= 6.27D-03
 IDIUse=3 WtCom= 9.30D-01 WtEn= 7.05D-02
 Coeff-Com:  0.984D-01 0.444D+00 0.457D+00
 Coeff-En:   0.000D+00 0.000D+00 0.100D+01
 Coeff:      0.915D-01 0.413D+00 0.496D+00
 Gap=     0.242 Goal=   None    Shift=    0.000
 RMSDP=7.83D-04 MaxDP=1.89D-02 DE=-3.16D-02 OVMax= 2.80D-02

 Cycle   4  Pass 0  IDiag  1:
 E= -152.411768503143     Delta-E=       -0.001996981482 Rises=F Damp=F
 DIIS: error= 4.35D-03 at cycle   4 NSaved=   4.
 NSaved= 4 IEnMin= 4 EnMin= -152.411768503143     IErMin= 4 ErrMin= 4.35D-03
 ErrMax= 4.35D-03  0.00D+00 EMaxC= 1.00D-01 BMatC= 1.63D-03 BMatP= 4.15D-03
 IDIUse=3 WtCom= 9.57D-01 WtEn= 4.35D-02
 Coeff-Com:  0.339D-01 0.153D+00 0.370D+00 0.443D+00
 Coeff-En:   0.000D+00 0.000D+00 0.322D+00 0.678D+00
 Coeff:      0.324D-01 0.146D+00 0.368D+00 0.454D+00
 Gap=     0.247 Goal=   None    Shift=    0.000
 RMSDP=3.13D-04 MaxDP=7.77D-03 DE=-2.00D-03 OVMax= 1.11D-02

 Cycle   5  Pass 0  IDiag  1:
 E= -152.413002785345     Delta-E=       -0.001234282201 Rises=F Damp=F
 DIIS: error= 2.33D-04 at cycle   5 NSaved=   5.
 NSaved= 5 IEnMin= 5 EnMin= -152.413002785345     IErMin= 5 ErrMin= 2.33D-04
 ErrMax= 2.33D-04  0.00D+00 EMaxC= 1.00D-01 BMatC= 6.02D-06 BMatP= 1.63D-03
 IDIUse=3 WtCom= 9.98D-01 WtEn= 2.33D-03
 Coeff-Com:  0.428D-02 0.144D-01 0.783D-01 0.129D+00 0.774D+00
 Coeff-En:   0.000D+00 0.000D+00 0.000D+00 0.000D+00 0.100D+01
 Coeff:      0.427D-02 0.144D-01 0.781D-01 0.128D+00 0.775D+00
 Gap=     0.248 Goal=   None    Shift=    0.000
 RMSDP=4.91D-05 MaxDP=6.02D-04 DE=-1.23D-03 OVMax= 5.71D-04

 Cycle   6  Pass 0  IDiag  1:
 E= -152.413007578241     Delta-E=       -0.000004792896 Rises=F Damp=F
 DIIS: error= 1.16D-05 at cycle   6 NSaved=   6.
 NSaved= 6 IEnMin= 6 EnMin= -152.413007578241     IErMin= 6 ErrMin= 1.16D-05
 ErrMax= 1.16D-05  0.00D+00 EMaxC= 1.00D-01 BMatC= 1.49D-08 BMatP= 6.02D-06
 IDIUse=1 WtCom= 1.00D+00 WtEn= 0.00D+00
 Coeff-Com:  0.319D-03 0.889D-03 0.901D-02 0.170D-01 0.132D+00 0.841D+00
 Coeff:      0.319D-03 0.889D-03 0.901D-02 0.170D-01 0.132D+00 0.841D+00
 Gap=     0.248 Goal=   None    Shift=    0.000
 RMSDP=3.21D-06 MaxDP=3.00D-05 DE=-4.79D-06 OVMax= 4.34D-05

 Initial convergence to 1.0D-05 achieved.  Increase integral accuracy.
 Cycle   7  Pass 1  IDiag  1:
 E= -152.413011055544     Delta-E=       -0.000003477303 Rises=F Damp=F
 DIIS: error= 4.47D-06 at cycle   1 NSaved=   1.
 NSaved= 1 IEnMin= 1 EnMin= -152.413011055544     IErMin= 1 ErrMin= 4.47D-06
 ErrMax= 4.47D-06  0.00D+00 EMaxC= 1.00D-01 BMatC= 1.15D-09 BMatP= 1.15D-09
 IDIUse=1 WtCom= 1.00D+00 WtEn= 0.00D+00
 Coeff-Com:  0.100D+01
 Coeff:      0.100D+01
 Gap=     0.248 Goal=   None    Shift=    0.000
 RMSDP=3.21D-06 MaxDP=3.00D-05 DE=-3.48D-06 OVMax= 2.11D-05

 Cycle   8  Pass 1  IDiag  1:
 E= -152.413011057045     Delta-E=       -0.000000001502 Rises=F Damp=F
 DIIS: error= 3.36D-06 at cycle   2 NSaved=   2.
 NSaved= 2 IEnMin= 2 EnMin= -152.413011057045     IErMin= 2 ErrMin= 3.36D-06
 ErrMax= 3.36D-06  0.00D+00 EMaxC= 1.00D-01 BMatC= 6.59D-10 BMatP= 1.15D-09
 IDIUse=1 WtCom= 1.00D+00 WtEn= 0.00D+00
 Coeff-Com:  0.404D+00 0.596D+00
 Coeff:      0.404D+00 0.596D+00
 Gap=     0.248 Goal=   None    Shift=    0.000
 RMSDP=4.02D-07 MaxDP=9.64D-06 DE=-1.50D-09 OVMax= 1.56D-05

 Cycle   9  Pass 1  IDiag  1:
 E= -152.413011057058     Delta-E=       -0.000000000013 Rises=F Damp=F
 DIIS: error= 3.37D-06 at cycle   3 NSaved=   3.
 NSaved= 3 IEnMin= 3 EnMin= -152.413011057058     IErMin= 2 ErrMin= 3.36D-06
 ErrMax= 3.37D-06  0.00D+00 EMaxC= 1.00D-01 BMatC= 7.69D-10 BMatP= 6.59D-10
 IDIUse=1 WtCom= 1.00D+00 WtEn= 0.00D+00
 Coeff-Com:  0.791D-01 0.498D+00 0.423D+00
 Coeff:      0.791D-01 0.498D+00 0.423D+00
 Gap=     0.248 Goal=   None    Shift=    0.000
 RMSDP=1.99D-07 MaxDP=5.45D-06 DE=-1.31D-11 OVMax= 6.93D-06

 Cycle  10  Pass 1  IDiag  1:
 E= -152.413011057627     Delta-E=       -0.000000000569 Rises=F Damp=F
 DIIS: error= 3.51D-07 at cycle   4 NSaved=   4.
 NSaved= 4 IEnMin= 4 EnMin= -152.413011057627     IErMin= 4 ErrMin= 3.51D-07
 ErrMax= 3.51D-07  0.00D+00 EMaxC= 1.00D-01 BMatC= 6.55D-12 BMatP= 6.59D-10
 IDIUse=1 WtCom= 1.00D+00 WtEn= 0.00D+00
 Coeff-Com: -0.116D-02 0.172D+00 0.149D+00 0.681D+00
 Coeff:     -0.116D-02 0.172D+00 0.149D+00 0.681D+00
 Gap=     0.248 Goal=   None    Shift=    0.000
 RMSDP=3.96D-08 MaxDP=5.16D-07 DE=-5.69D-10 OVMax= 8.77D-07

 Cycle  11  Pass 1  IDiag  1:
 E= -152.413011057626     Delta-E=        0.000000000000 Rises=F Damp=F
 DIIS: error= 1.03D-07 at cycle   5 NSaved=   5.
 NSaved= 5 IEnMin= 4 EnMin= -152.413011057627     IErMin= 5 ErrMin= 1.03D-07
 ErrMax= 1.03D-07  0.00D+00 EMaxC= 1.00D-01 BMatC= 6.41D-13 BMatP= 6.55D-12
 IDIUse=1 WtCom= 1.00D+00 WtEn= 0.00D+00
 Coeff-Com: -0.203D-02 0.833D-01 0.716D-01 0.375D+00 0.472D+00
 Coeff:     -0.203D-02 0.833D-01 0.716D-01 0.375D+00 0.472D+00
 Gap=     0.248 Goal=   None    Shift=    0.000
 RMSDP=8.38D-09 MaxDP=1.93D-07 DE= 4.83D-13 OVMax= 2.13D-07

 SCF Done:  E(RS-VWN5) =  -152.413011058     A.U. after   11 cycles
            NFock= 11  Conv=0.84D-08     -V/T= 2.0051
 KE= 1.516451783401D+02 PE=-5.092615788259D+02 EE= 1.294733689682D+02
 Leave Link  502 at Mon Mar 21 04:00:03 2022, MaxMem=  8589934592 cpu:               4.3 elap:               0.6
 (Enter /home/sabyasachi/g16/l801.exe)
 DoSCS=F DFT=T ScalE2(SS,OS)=  1.000000  1.000000
 ExpMin= 6.71D-02 ExpMax= 2.27D+03 ExpMxC= 3.41D+02 IAcc=3 IRadAn=         5 AccDes= 0.00D+00
 HarFok:  IExCor=  205 AccDes= 0.00D+00 IRadAn=         5 IDoV=-2 UseB2=F ITyADJ=14
 ICtDFT= 12500011 ScaDFX=  1.000000  1.000000  1.000000  1.000000
 Largest valence mixing into a core orbital is  8.31D-05
 Largest core mixing into a valence orbital is  2.46D-06
 Range of M.O.s used for correlation:     4    95
 NBasis=    95 NAE=    12 NBE=    12 NFC=     3 NFV=     0
 NROrb=     92 NOA=     9 NOB=     9 NVA=    83 NVB=    83

 **** Warning!!: The largest alpha MO coefficient is  0.30060374D+02

 Leave Link  801 at Mon Mar 21 04:00:03 2022, MaxMem=  8589934592 cpu:               0.5 elap:               0.1
 (Enter /home/sabyasachi/g16/l914.exe)
 RHF ground state
 Keep J ints in memory in symmetry-blocked form, NReq=638125220.
 FoFCou: FMM=F IPFlag=           0 FMFlag=           0 FMFlg1=           0
         NFxFlg=           0 DoJE=F BraDBF=F KetDBF=F FulRan=T
         wScrn=  0.000000 ICntrl=       600 IOpCl=  0 I1Cent=           0 NGrid=           0
         NMat0=    1 NMatS0=   4560 NMatT0=    0 NMatD0=    1 NMtDS0=    0 NMtDT0=    0
 Petite list used in FoFCou.
 MDV=  8589934592 DFT=T DoStab=F Mixed=F DoRPA=T DoScal=T NonHer=F
 Making orbital integer symmetry assigments:
 Orbital symmetries:
       Occupied  (A1) (A1) (B2) (A1) (A1) (B2) (B1) (A1) (B2) (A2)
                 (A1) (B1)
       Virtual   (A1) (A1) (B2) (B2) (B1) (A1) (A2) (A1) (B2) (B1)
                 (B2) (B1) (A1) (A2) (A1) (B2) (B1) (A1) (B2) (B1)
                 (A1) (A2) (B2) (A1) (B2) (A2) (A1) (B2) (B1) (A2)
                 (A1) (B1) (B2) (B2) (A1) (B2) (B1) (A2) (A1) (A1)
                 (A2) (A1) (B1) (B2) (A2) (B2) (A1) (B1) (B2) (A1)
                 (B2) (A2) (B1) (A1) (B1) (A2) (A1) (B2) (A1) (B1)
                 (B1) (B2) (A2) (A1) (B2) (A1) (A2) (B1) (A1) (B2)
                 (A1) (B2) (A2) (B2) (B1) (A1) (A1) (A2) (B2) (B1)
                 (A2) (A1) (B2)
   747 initial guesses have been made.
 Convergence on wavefunction:    0.001000000000000
 Davidson Disk Diagonalization:  ConvIn= 1.00D-03 SkipCon=T Conv= 1.00D-03.
 Max sub-space:  2988 roots to seek:  1494 dimension of matrix:         1494
 *** WARNING: Number of orthogonal guesses is          747
 Iteration     1 Dimension   747 NMult     0 NNew    747
 CISAX will form   747 AO SS matrices at one time.
 NMat=   747 NSing=   747 JSym2X=-1.
 New state      2 was old state      3
 New state      3 was old state      2
 New state      4 was old state      5
 New state      5 was old state      4
 New state     10 was old state     11
 New state     11 was old state     13
 New state     13 was old state     10
 New state     14 was old state     15
 New state     15 was old state     14
 New state     16 was old state     17
 New state     17 was old state     16
 New state     18 was old state     20
 New state     19 was old state     18
 New state     20 was old state     19
 New state     22 was old state     23
 New state     23 was old state     22
 New state     24 was old state     26
 New state     26 was old state     27
 New state     27 was old state     24
 New state     28 was old state     29
 New state     29 was old state     30
 New state     30 was old state     32
 New state     32 was old state     34
 New state     34 was old state     35
 New state     35 was old state     36
 New state     36 was old state     38
 New state     38 was old state     39
 New state     39 was old state     40
 New state     40 was old state     44
 New state     44 was old state     45
 New state     45 was old state     28
 New state     47 was old state     48
 New state     48 was old state     47
 New state     50 was old state     51
 New state     51 was old state     52
 New state     52 was old state     50
 New state     55 was old state     56
 New state     56 was old state     57
 New state     57 was old state     59
 New state     58 was old state     55
 New state     59 was old state     61
 New state     60 was old state     63
 New state     61 was old state     58
 New state     62 was old state     60
 New state     63 was old state     65
 New state     64 was old state     66
 New state     65 was old state     62
 New state     66 was old state     67
 New state     67 was old state     68
 New state     68 was old state     69
 New state     69 was old state     70
 New state     70 was old state     71
 New state     71 was old state     64
 New state     76 was old state     77
 New state     77 was old state     76
 New state     81 was old state     82
 New state     82 was old state     85
 New state     84 was old state     81
 New state     85 was old state     86
 New state     86 was old state     87
 New state     87 was old state     88
 New state     88 was old state     89
 New state     89 was old state     92
 New state     91 was old state     96
 New state     92 was old state     95
 New state     93 was old state     91
 New state     95 was old state     93
 New state     96 was old state    100
 New state     98 was old state     99
 New state     99 was old state    101
 New state    100 was old state    103
 New state    101 was old state    105
 New state    102 was old state    106
 New state    103 was old state    102
 New state    104 was old state    110
 New state    105 was old state    107
 New state    106 was old state    108
 New state    107 was old state     98
 New state    108 was old state    112
 New state    109 was old state    111
 New state    110 was old state    114
 New state    111 was old state    115
 New state    112 was old state    109
 New state    113 was old state    120
 New state    114 was old state    118
 New state    115 was old state    117
 New state    116 was old state    113
 New state    117 was old state    116
 New state    118 was old state    121
 New state    119 was old state    123
 New state    120 was old state    104
 New state    121 was old state    119
 New state    123 was old state    124
 New state    124 was old state    126
 New state    125 was old state    129
 New state    126 was old state    125
 New state    127 was old state    128
 New state    128 was old state    127
 New state    129 was old state    131
 New state    131 was old state    132
 New state    132 was old state    134
 New state    134 was old state    136
 New state    135 was old state    146
 New state    136 was old state    137
 New state    137 was old state    138
 New state    138 was old state    139
 New state    139 was old state    135
 New state    140 was old state    143
 New state    143 was old state    144
 New state    144 was old state    147
 New state    145 was old state    148
 New state    146 was old state    169
 New state    147 was old state    149
 New state    148 was old state    151
 New state    149 was old state    150
 New state    150 was old state    152
 New state    151 was old state    153
 New state    152 was old state    145
 New state    153 was old state    154
 New state    154 was old state    156
 New state    156 was old state    160
 New state    157 was old state    158
 New state    158 was old state    164
 New state    159 was old state    162
 New state    160 was old state    165
 New state    161 was old state    166
 New state    162 was old state    159
 New state    164 was old state    167
 New state    165 was old state    168
 New state    166 was old state    161
 New state    167 was old state    173
 New state    168 was old state    179
 New state    169 was old state    172
 New state    170 was old state    171
 New state    171 was old state    174
 New state    172 was old state    170
 New state    173 was old state    176
 New state    174 was old state    175
 New state    175 was old state    177
 New state    176 was old state    185
 New state    177 was old state    181
 New state    178 was old state    182
 New state    179 was old state    180
 New state    180 was old state    140
 New state    181 was old state    184
 New state    182 was old state    183
 New state    183 was old state    189
 New state    184 was old state    186
 New state    185 was old state    187
 New state    186 was old state    178
 New state    187 was old state    195
 New state    188 was old state    191
 New state    189 was old state    193
 New state    190 was old state    188
 New state    191 was old state    192
 New state    192 was old state    196
 New state    193 was old state    190
 New state    195 was old state    199
 New state    196 was old state    198
 New state    197 was old state    200
 New state    198 was old state    206
 New state    199 was old state    201
 New state    200 was old state    204
 New state    201 was old state    203
 New state    202 was old state    205
 New state    203 was old state    207
 New state    204 was old state    208
 New state    205 was old state    223
 New state    206 was old state    209
 New state    207 was old state    202
 New state    208 was old state    211
 New state    209 was old state    214
 New state    210 was old state    197
 New state    211 was old state    213
 New state    212 was old state    232
 New state    213 was old state    216
 New state    214 was old state    210
 New state    215 was old state    218
 New state    216 was old state    217
 New state    217 was old state    219
 New state    218 was old state    222
 New state    219 was old state    215
 New state    220 was old state    221
 New state    221 was old state    220
 New state    222 was old state    224
 New state    223 was old state    226
 New state    224 was old state    228
 New state    225 was old state    230
 New state    226 was old state    225
 New state    228 was old state    229
 New state    229 was old state    234
 New state    230 was old state    231
 New state    231 was old state    240
 New state    232 was old state    236
 New state    233 was old state    238
 New state    234 was old state    235
 New state    235 was old state    233
 New state    236 was old state    239
 New state    237 was old state    242
 New state    238 was old state    237
 New state    239 was old state    254
 New state    240 was old state    243
 New state    241 was old state    244
 New state    242 was old state    250
 New state    243 was old state    249
 New state    244 was old state    248
 New state    246 was old state    247
 New state    247 was old state    246
 New state    248 was old state    251
 New state    249 was old state    252
 New state    250 was old state    253
 New state    251 was old state    257
 New state    252 was old state    263
 New state    253 was old state    255
 New state    254 was old state    261
 New state    255 was old state    269
 New state    256 was old state    264
 New state    257 was old state    259
 New state    258 was old state    260
 New state    259 was old state    266
 New state    260 was old state    258
 New state    261 was old state    262
 New state    262 was old state    256
 New state    263 was old state    275
 New state    264 was old state    265
 New state    265 was old state    268
 No map to state    266
 New state    268 was old state    273
 New state    269 was old state    270
 New state    270 was old state    272
 New state    271 was old state    279
 New state    272 was old state    274
 New state    273 was old state    271
 New state    274 was old state    278
 New state    275 was old state    277
 New state    277 was old state    287
 New state    278 was old state    285
 New state    279 was old state    280
 New state    280 was old state    281
 New state    281 was old state    282
 New state    282 was old state    283
 New state    283 was old state    284
 New state    284 was old state    290
 New state    285 was old state    286
 New state    286 was old state    288
 New state    287 was old state    289
 New state    288 was old state    297
 New state    289 was old state    291
 New state    290 was old state    296
 New state    291 was old state    292
 New state    292 was old state    293
 New state    293 was old state    295
 New state    295 was old state    305
 New state    296 was old state    300
 New state    297 was old state    298
 New state    298 was old state    301
 New state    299 was old state    302
 New state    300 was old state    299
 New state    301 was old state    304
 New state    302 was old state    311
 New state    303 was old state    307
 New state    304 was old state    303
 New state    305 was old state    312
 New state    306 was old state    308
 New state    307 was old state    306
 New state    308 was old state    310
 New state    309 was old state    332
 New state    310 was old state    309
 New state    311 was old state    313
 New state    312 was old state    314
 New state    313 was old state    315
 New state    314 was old state    316
 New state    315 was old state    317
 New state    316 was old state    327
 New state    317 was old state    319
 New state    319 was old state    320
 New state    320 was old state    321
 New state    321 was old state    355
 New state    322 was old state    323
 New state    323 was old state    322
 New state    327 was old state    342
 New state    328 was old state    329
 New state    329 was old state    328
 New state    330 was old state    331
 New state    331 was old state    330
 New state    332 was old state    336
 New state    333 was old state    335
 New state    335 was old state    333
 New state    336 was old state    337
 New state    337 was old state    338
 New state    338 was old state    340
 New state    340 was old state    344
 New state    342 was old state    343
 New state    343 was old state    346
 New state    344 was old state    348
 New state    346 was old state    347
 New state    347 was old state    356
 New state    348 was old state    353
 New state    352 was old state    354
 New state    353 was old state    352
 New state    354 was old state    357
 New state    355 was old state    359
 New state    356 was old state    358
 New state    357 was old state    364
 New state    358 was old state    360
 New state    359 was old state    374
 New state    360 was old state    361
 New state    361 was old state    363
 New state    362 was old state    367
 New state    363 was old state    362
 New state    364 was old state    365
 New state    365 was old state    366
 New state    366 was old state    368
 New state    367 was old state    389
 New state    368 was old state    371
 New state    371 was old state    372
 New state    372 was old state    380
 New state    374 was old state    376
 New state    376 was old state    379
 New state    377 was old state    378
 New state    378 was old state    377
 New state    379 was old state    387
 New state    380 was old state    383
 New state    381 was old state    382
 New state    382 was old state    384
 New state    383 was old state    394
 New state    384 was old state    385
 New state    385 was old state    386
 New state    386 was old state    381
 New state    387 was old state    388
 New state    388 was old state    391
 New state    389 was old state    392
 New state    391 was old state    415
 New state    392 was old state    393
 New state    393 was old state    395
 New state    394 was old state    400
 New state    395 was old state    397
 New state    397 was old state    398
 No map to state    398
 New state    400 was old state    403
 New state    403 was old state    405
 New state    404 was old state    419
 New state    405 was old state    404
 New state    406 was old state    407
 New state    407 was old state    406
 New state    408 was old state    409
 New state    409 was old state    408
 New state    415 was old state    416
 New state    416 was old state    417
 New state    417 was old state    418
 New state    418 was old state    422
 New state    419 was old state    421
 New state    421 was old state    425
 New state    422 was old state    424
 New state    423 was old state    434
 New state    424 was old state    423
 New state    425 was old state    427
 New state    426 was old state    428
 New state    427 was old state    426
 New state    428 was old state    429
 New state    429 was old state    432
 New state    432 was old state    433
 New state    433 was old state    435
 New state    434 was old state    450
 New state    435 was old state    445
 New state    436 was old state    437
 New state    437 was old state    438
 New state    438 was old state    439
 New state    439 was old state    436
 New state    443 was old state    444
 New state    444 was old state    446
 New state    445 was old state    443
 New state    446 was old state    448
 New state    448 was old state    449
 New state    449 was old state    454
 New state    450 was old state    451
 New state    451 was old state    456
 New state    454 was old state    459
 New state    456 was old state    458
 New state    457 was old state    460
 No map to state    458
 New state    459 was old state    457
 New state    460 was old state    461
 New state    461 was old state    463
 New state    462 was old state    464
 New state    463 was old state    465
 New state    464 was old state    462
 New state    465 was old state    469
 New state    469 was old state    470
 New state    470 was old state    472
 New state    472 was old state    473
 New state    473 was old state    476
 New state    475 was old state    477
 New state    476 was old state    475
 New state    477 was old state    479
 New state    479 was old state    481
 New state    480 was old state    482
 New state    481 was old state    483
 New state    482 was old state    484
 New state    483 was old state    495
 New state    484 was old state    485
 New state    485 was old state    486
 New state    486 was old state    480
 New state    492 was old state    493
 New state    493 was old state    492
 New state    495 was old state    498
 New state    497 was old state    500
 New state    498 was old state    499
 New state    499 was old state    501
 New state    500 was old state    503
 New state    501 was old state    504
 New state    502 was old state    505
 New state    503 was old state    506
 New state    504 was old state    502
 New state    505 was old state    507
 No map to state    506
 New state    507 was old state    508
 New state    508 was old state    509
 New state    509 was old state    510
 New state    510 was old state    513
 New state    511 was old state    514
 New state    512 was old state    515
 New state    513 was old state    511
 New state    514 was old state    518
 New state    515 was old state    516
 New state    516 was old state    519
 New state    517 was old state    520
 New state    518 was old state    517
 New state    519 was old state    521
 New state    520 was old state    522
 New state    521 was old state    512
 New state    522 was old state    497
 New state    525 was old state    526
 New state    526 was old state    527
 New state    527 was old state    525
 New state    528 was old state    530
 New state    529 was old state    528
 New state    530 was old state    529
 New state    532 was old state    533
 New state    533 was old state    532
 New state    534 was old state    535
 New state    535 was old state    534
 New state    536 was old state    537
 New state    537 was old state    538
 New state    538 was old state    536
 New state    539 was old state    540
 New state    540 was old state    542
 New state    541 was old state    539
 New state    542 was old state    541
 New state    543 was old state    544
 New state    544 was old state    546
 New state    546 was old state    543
 New state    551 was old state    552
 New state    552 was old state    551
 New state    553 was old state    554
 New state    554 was old state    553
 New state    556 was old state    557
 New state    557 was old state    556
 New state    559 was old state    560
 New state    560 was old state    559
 New state    566 was old state    567
 New state    567 was old state    569
 New state    568 was old state    570
 New state    569 was old state    571
 New state    570 was old state    568
 New state    571 was old state    566
 New state    576 was old state    577
 New state    577 was old state    579
 New state    578 was old state    580
 New state    579 was old state    576
 New state    580 was old state    582
 New state    581 was old state    583
 New state    582 was old state    578
 New state    583 was old state    584
 New state    584 was old state    581
 New state    589 was old state    591
 New state    591 was old state    589
 New state    593 was old state    595
 New state    594 was old state    593
 New state    595 was old state    594
 New state    598 was old state    599
 New state    599 was old state    600
 New state    600 was old state    598
 New state    601 was old state    602
 New state    602 was old state    601
 New state    608 was old state    611
 New state    611 was old state    612
 New state    612 was old state    608
 New state    614 was old state    615
 New state    615 was old state    614
 New state    618 was old state    619
 New state    619 was old state    621
 New state    620 was old state    622
 New state    621 was old state    623
 New state    622 was old state    618
 New state    623 was old state    620
 New state    627 was old state    628
 New state    628 was old state    627
 New state    632 was old state    633
 New state    633 was old state    632
 New state    636 was old state    637
 New state    637 was old state    636
 New state    639 was old state    640
 New state    640 was old state    641
 New state    641 was old state    639
 New state    642 was old state    643
 New state    643 was old state    642
 New state    648 was old state    650
 New state    649 was old state    648
 New state    650 was old state    652
 New state    652 was old state    649
 New state    655 was old state    656
 New state    656 was old state    655
 New state    661 was old state    664
 New state    662 was old state    663
 New state    663 was old state    661
 New state    664 was old state    662
 New state    668 was old state    671
 New state    669 was old state    670
 New state    670 was old state    669
 New state    671 was old state    672
 New state    672 was old state    673
 New state    673 was old state    668
 New state    674 was old state    675
 New state    675 was old state    674
 New state    678 was old state    679
 New state    679 was old state    683
 New state    680 was old state    681
 New state    681 was old state    682
 New state    682 was old state    685
 New state    683 was old state    678
 New state    685 was old state    687
 New state    686 was old state    680
 New state    687 was old state    686
 New state    688 was old state    690
 New state    690 was old state    691
 New state    691 was old state    692
 New state    692 was old state    693
 New state    693 was old state    694
 New state    694 was old state    696
 New state    695 was old state    688
 New state    696 was old state    695
 New state    697 was old state    699
 New state    698 was old state    697
 New state    699 was old state    701
 New state    700 was old state    702
 New state    701 was old state    700
 New state    702 was old state    705
 New state    705 was old state    706
 New state    706 was old state    698
 New state    709 was old state    710
 New state    710 was old state    709
 New state    715 was old state    716
 New state    716 was old state    718
 New state    718 was old state    719
 New state    719 was old state    720
 New state    720 was old state    722
 New state    722 was old state    715
 New state    725 was old state    726
 New state    726 was old state    727
 New state    727 was old state    725
 New state    732 was old state    733
 New state    733 was old state    734
 New state    734 was old state    732
 New state    735 was old state    737
 New state    737 was old state    735
 New state    738 was old state    739
 New state    739 was old state    738
 Excitation Energies [eV] at current iteration:
 Root      1 :     6.743543870036834
 Root      2 :     7.286496759628377
 Root      3 :     7.363397367682985
 Root      4 :     7.829087162905355
 Root      5 :     7.875266579261297
 Root      6 :     8.296631531587465
 Root      7 :     8.850140325154745
 Root      8 :     8.904981663155770
 Root      9 :     9.001353506919038
 Root     10 :     9.321388763650624
 Root     11 :     9.691441690672134
 Root     12 :     9.694724036662782
 Root     13 :    10.007505755219340
 Root     14 :    10.103090494561000
 Root     15 :    10.168569962282970
 Root     16 :    10.212812385635300
 Root     17 :    10.289889758127660
 Root     18 :    10.469455189230310
 Root     19 :    10.498033745357660
 Root     20 :    10.740837762672870
 Root     21 :    10.785466125459810
 Root     22 :    10.857229486833350
 Root     23 :    10.880067157420210
 Root     24 :    11.104253092352390
 Root     25 :    11.139621711245580
 Root     26 :    11.191696286026990
 Root     27 :    11.220376559582690
 Root     28 :    11.524119379088130
 Root     29 :    11.698386898141690
 Root     30 :    11.872955782084530
 Root     31 :    11.928523758269010
 Root     32 :    11.970380612272960
 Root     33 :    11.987590104976240
 Root     34 :    12.365274108130900
 Root     35 :    12.405238211148050
 Root     36 :    12.603362768180660
 Root     37 :    12.619115336270420
 Root     38 :    12.719205887039070
 Root     39 :    12.817513767888390
 Root     40 :    12.998081476955330
 Root     41 :    13.011979647245730
 Root     42 :    13.054428574340770
 Root     43 :    13.061138593709760
 Root     44 :    13.140302009819330
 Root     45 :    13.225087367742020
 Root     46 :    13.230566574454510
 Root     47 :    13.401277060846960
 Root     48 :    13.421059840717530
 Root     49 :    13.438118667365600
 Root     50 :    13.535889605293350
 Root     51 :    13.547951417843360
 Root     52 :    13.726206161220490
 Root     53 :    13.729271118173300
 Root     54 :    13.796520659125660
 Root     55 :    13.837057682713710
 Root     56 :    13.884197529083960
 Root     57 :    14.032169624557300
 Root     58 :    14.168365663767490
 Root     59 :    14.208303004383910
 Root     60 :    14.256571841986000
 Root     61 :    14.302981281165110
 Root     62 :    14.316905831482370
 Root     63 :    14.386188812180420
 Root     64 :    14.412014876209060
 Root     65 :    14.513791934731950
 Root     66 :    14.613120966408220
 Root     67 :    14.759304659792970
 Root     68 :    14.845224222168910
 Root     69 :    14.855715090289320
 Root     70 :    14.930475628702200
 Root     71 :    15.105210653813160
 Root     72 :    15.167664318485130
 Root     73 :    15.252736636933660
 Root     74 :    15.294952067189710
 Root     75 :    15.402322861182470
 Root     76 :    15.653514001501020
 Root     77 :    15.677280124191810
 Root     78 :    15.761118580685140
 Root     79 :    15.780323904370600
 Root     80 :    15.811693443929120
 Root     81 :    15.869516213350290
 Root     82 :    15.914652409695280
 Root     83 :    15.980397283597730
 Root     84 :    16.032253555808000
 Root     85 :    16.078909270191140
 Root     86 :    16.167524876488090
 Root     87 :    16.201965392448620
 Root     88 :    16.371830604676510
 Root     89 :    16.468018644993990
 Root     90 :    16.532883177729050
 Root     91 :    16.540672112044660
 Root     92 :    16.558463987045180
 Root     93 :    16.575869316614900
 Root     94 :    16.590936770342690
 Root     95 :    16.615394516522110
 Root     96 :    16.653528908624900
 Root     97 :    16.664343745401350
 Root     98 :    16.679956927201130
 Root     99 :    16.741483366492710
 Root    100 :    16.747280314058350
 Root    101 :    16.909939778004070
 Root    102 :    16.934394957517690
 Root    103 :    16.944731710319420
 Root    104 :    16.948858531282330
 Root    105 :    16.992450261537890
 Root    106 :    17.018281253364630
 Root    107 :    17.093575729152930
 Root    108 :    17.209998679376380
 Root    109 :    17.233148616141800
 Root    110 :    17.266097435165420
 Root    111 :    17.354623633114210
 Root    112 :    17.413583539588840
 Root    113 :    17.479711659807610
 Root    114 :    17.511669112468560
 Root    115 :    17.626493220378040
 Root    116 :    17.644990087994700
 Root    117 :    17.825792631505010
 Root    118 :    17.872537099344530
 Root    119 :    17.911655696911420
 Root    120 :    18.020402382736530
 Root    121 :    18.047424986756840
 Root    122 :    18.106929436693580
 Root    123 :    18.132237763348450
 Root    124 :    18.134266259672800
 Root    125 :    18.136109782622550
 Root    126 :    18.204981405494950
 Root    127 :    18.276274163622790
 Root    128 :    18.283286783819540
 Root    129 :    18.329889336618140
 Root    130 :    18.400331632378980
 Root    131 :    18.414197173725340
 Root    132 :    18.507121565227000
 Root    133 :    18.548745657441530
 Root    134 :    18.567759515513250
 Root    135 :    18.619115236845920
 Root    136 :    18.675158317455510
 Root    137 :    18.689549908613930
 Root    138 :    18.767649281058560
 Root    139 :    18.837643656419740
 Root    140 :    18.987629619202460
 Root    141 :    19.007196692496620
 Root    142 :    19.010891334346300
 Root    143 :    19.206914689898630
 Root    144 :    19.275802034115470
 Root    145 :    19.286054912679500
 Root    146 :    19.319159965141260
 Root    147 :    19.441788187380980
 Root    148 :    19.517801721436470
 Root    149 :    19.530404618276900
 Root    150 :    19.550201342428610
 Root    151 :    19.579418877177760
 Root    152 :    19.581354382063760
 Root    153 :    19.591994692960180
 Root    154 :    19.638801882546470
 Root    155 :    19.696636314537210
 Root    156 :    19.705379060139020
 Root    157 :    19.880097776870230
 Root    158 :    19.886661937174250
 Root    159 :    19.921063716406660
 Root    160 :    19.982625616663420
 Root    161 :    20.034396544971750
 Root    162 :    20.045944866746700
 Root    163 :    20.105672897264380
 Root    164 :    20.169597502396260
 Root    165 :    20.196549534487180
 Root    166 :    20.205586612021580
 Root    167 :    20.268541576301010
 Root    168 :    20.293691844371480
 Root    169 :    20.295527514862980
 Root    170 :    20.343710286337310
 Root    171 :    20.368218680857390
 Root    172 :    20.435429049016620
 Root    173 :    20.448008663831120
 Root    174 :    20.513267477586100
 Root    175 :    20.640358455120700
 Root    176 :    20.695741587113640
 Root    177 :    20.759402561115750
 Root    178 :    20.776225736582620
 Root    179 :    20.840831780705830
 Root    180 :    20.880673955695910
 Root    181 :    20.891650943518290
 Root    182 :    20.930252084415520
 Root    183 :    21.017703157304210
 Root    184 :    21.036303103381940
 Root    185 :    21.122556061243320
 Root    186 :    21.258775567666360
 Root    187 :    21.267421342850720
 Root    188 :    21.470719131402370
 Root    189 :    21.510675258014180
 Root    190 :    21.529701690233950
 Root    191 :    21.542761781077740
 Root    192 :    21.706316679804090
 Root    193 :    21.710856504602860
 Root    194 :    21.713791143276670
 Root    195 :    21.906387967316010
 Root    196 :    22.017448961420910
 Root    197 :    22.028574540538550
 Root    198 :    22.101603310558640
 Root    199 :    22.130782238340940
 Root    200 :    22.182270591494780
 Root    201 :    22.205213278182090
 Root    202 :    22.258176923359290
 Root    203 :    22.258868896661430
 Root    204 :    22.369019612418420
 Root    205 :    22.452247280049030
 Root    206 :    22.547190884478130
 Root    207 :    22.609071012879700
 Root    208 :    22.609863289382500
 Root    209 :    22.618818610942250
 Root    210 :    22.643694001637950
 Root    211 :    22.736244970483710
 Root    212 :    22.771515295918480
 Root    213 :    22.850194985181580
 Root    214 :    22.874532492574140
 Root    215 :    22.957565965819960
 Root    216 :    23.009274524596100
 Root    217 :    23.026861080669970
 Root    218 :    23.136602153838940
 Root    219 :    23.137492494691990
 Root    220 :    23.161866410962450
 Root    221 :    23.317333939855160
 Root    222 :    23.432383181613460
 Root    223 :    23.454302916625490
 Root    224 :    23.591057938738020
 Root    225 :    23.635234672958090
 Root    226 :    23.682479195863020
 Root    227 :    23.709848357869960
 Root    228 :    23.804292711759520
 Root    229 :    24.008051912044860
 Root    230 :    24.081358410213830
 Root    231 :    24.112255943440630
 Root    232 :    24.130313037990030
 Root    233 :    24.135738363820550
 Root    234 :    24.204775031679120
 Root    235 :    24.216760423806360
 Root    236 :    24.334184575467240
 Root    237 :    24.407004115684230
 Root    238 :    24.418317506934380
 Root    239 :    24.494228283816420
 Root    240 :    24.503521492553580
 Root    241 :    24.779682147209480
 Root    242 :    24.826944074262590
 Root    243 :    24.914733298589190
 Root    244 :    24.926741062669620
 Root    245 :    24.963864284647070
 Root    246 :    25.012361713463800
 Root    247 :    25.072422330566960
 Root    248 :    25.110494748803200
 Root    249 :    25.226850753428530
 Root    250 :    25.295581906157660
 Root    251 :    25.323233802011360
 Root    252 :    25.330915834075860
 Root    253 :    25.357767811121500
 Root    254 :    25.403070833071370
 Root    255 :    25.445203008693580
 Root    256 :    25.656042550373190
 Root    257 :    25.723899435237480
 Root    258 :    25.810103245295410
 Root    259 :    25.821780487500480
 Root    260 :    25.850812421072050
 Root    261 :    25.856870040804560
 Root    262 :    25.869044160118970
 Root    263 :    26.050594909876200
 Root    264 :    26.103726159078490
 Root    265 :    26.181079144366900
 Root    266 :    26.314319159152270
 Root    267 :    26.339845977437070
 Root    268 :    26.430941917555390
 Root    269 :    26.594293418704600
 Root    270 :    26.621836331580310
 Root    271 :    26.689724425565070
 Root    272 :    26.734256932660980
 Root    273 :    26.801775949614250
 Root    274 :    26.810009796307850
 Root    275 :    26.847601041309310
 Root    276 :    26.972732038642670
 Root    277 :    27.058968212885660
 Root    278 :    27.221781695297570
 Root    279 :    27.393137646781830
 Root    280 :    27.428458313343310
 Root    281 :    27.504413082574320
 Root    282 :    27.685304302895890
 Root    283 :    27.692648475329170
 Root    284 :    27.767898714891340
 Root    285 :    27.825467033876860
 Root    286 :    27.907067403193680
 Root    287 :    27.955662382751890
 Root    288 :    28.103485716185680
 Root    289 :    28.122740380219340
 Root    290 :    28.149562132529250
 Root    291 :    28.286875295846200
 Root    292 :    28.333747400814550
 Root    293 :    28.412405432484910
 Root    294 :    28.419139033405870
 Root    295 :    28.529756646760830
 Root    296 :    28.543252757034990
 Root    297 :    28.603972716832330
 Root    298 :    28.670493659455880
 Root    299 :    28.708083580587950
 Root    300 :    28.740224364868730
 Root    301 :    28.787641352831890
 Root    302 :    28.793778399131820
 Root    303 :    28.838929231234650
 Root    304 :    28.913376983549830
 Root    305 :    29.096819736557510
 Root    306 :    29.321353781983310
 Root    307 :    29.328022549709880
 Root    308 :    29.348900560616640
 Root    309 :    29.386263894960950
 Root    310 :    29.466156673257340
 Root    311 :    29.563320628396830
 Root    312 :    29.640850227228780
 Root    313 :    29.788298842307700
 Root    314 :    30.084117959821680
 Root    315 :    30.090131691250400
 Root    316 :    30.208277490028600
 Root    317 :    30.257711455083150
 Root    318 :    30.328638411819250
 Root    319 :    30.406957994933000
 Root    320 :    30.452511321265670
 Root    321 :    30.475285005364420
 Root    322 :    30.878859652255600
 Root    323 :    30.892993822394360
 Root    324 :    30.960096461010790
 Root    325 :    31.038399701321630
 Root    326 :    31.082185688620780
 Root    327 :    31.304465904685650
 Root    328 :    31.318836899321410
 Root    329 :    31.344483107514550
 Root    330 :    31.525262674732860
 Root    331 :    31.546013628072390
 Root    332 :    31.757766650394340
 Root    333 :    31.764490948054640
 Root    334 :    31.822119260858390
 Root    335 :    31.971279583800840
 Root    336 :    31.974840603224420
 Root    337 :    32.047378556661840
 Root    338 :    32.053090625688100
 Root    339 :    32.093698621292770
 Root    340 :    32.267077874712810
 Root    341 :    32.365328873335540
 Root    342 :    32.563348931788460
 Root    343 :    32.773090283546970
 Root    344 :    32.827782714960340
 Root    345 :    32.893562716650110
 Root    346 :    32.908105425832650
 Root    347 :    32.920195679143840
 Root    348 :    32.979610299013820
 Root    349 :    33.077875545576410
 Root    350 :    33.144101081703940
 Root    351 :    33.415956516267320
 Root    352 :    33.516339689841700
 Root    353 :    33.598215988328780
 Root    354 :    33.599341589568820
 Root    355 :    33.720572392087390
 Root    356 :    33.803350270889450
 Root    357 :    33.825527721580260
 Root    358 :    33.895324353506400
 Root    359 :    34.129514261668600
 Root    360 :    34.168071292613880
 Root    361 :    34.435574832794210
 Root    362 :    34.511603576342770
 Root    363 :    34.526233776032020
 Root    364 :    34.590610217552390
 Root    365 :    34.733141248000710
 Root    366 :    34.867230234438320
 Root    367 :    34.910494327834430
 Root    368 :    34.954490799738370
 Root    369 :    34.969671625019370
 Root    370 :    35.025897729693530
 Root    371 :    35.039895040190450
 Root    372 :    35.114076556662450
 Root    373 :    35.205818667617900
 Root    374 :    35.386488426714110
 Root    375 :    35.454550388446730
 Root    376 :    35.795035021200800
 Root    377 :    35.799118708138260
 Root    378 :    35.828811336690010
 Root    379 :    36.090538783457170
 Root    380 :    36.355266210129030
 Root    381 :    36.410436005446070
 Root    382 :    36.506218667950510
 Root    383 :    36.530735205070260
 Root    384 :    36.535400469583580
 Root    385 :    36.554202915364020
 Root    386 :    36.685731658282070
 Root    387 :    36.980045125358020
 Root    388 :    37.021091310532650
 Root    389 :    37.037059490248500
 Root    390 :    37.079746023363240
 Root    391 :    37.147978078098590
 Root    392 :    37.321428928468790
 Root    393 :    37.485235513097610
 Root    394 :    37.516348401785300
 Root    395 :    37.601779002068020
 Root    396 :    37.649573976223380
 Root    397 :    37.721810449491560
 Root    398 :    37.815143852888560
 Root    399 :    37.819099107507820
 Root    400 :    38.048190124275140
 Root    401 :    38.144834257857620
 Root    402 :    38.293569029644270
 Root    403 :    38.519854526566970
 Root    404 :    38.580548200957320
 Root    405 :    38.689522266500150
 Root    406 :    38.895039770682080
 Root    407 :    38.929963442553750
 Root    408 :    39.038614597805600
 Root    409 :    39.048750944170980
 Root    410 :    39.079973160600630
 Root    411 :    39.107998449286110
 Root    412 :    39.139022846713790
 Root    413 :    39.210459875949590
 Root    414 :    39.343561913563150
 Root    415 :    39.675596515557930
 Root    416 :    39.724181775568640
 Root    417 :    39.986765991705650
 Root    418 :    40.026087022732670
 Root    419 :    40.098580284440580
 Root    420 :    40.190345195554850
 Root    421 :    40.522132849930800
 Root    422 :    40.684648675483280
 Root    423 :    40.798581751769700
 Root    424 :    40.895436964598200
 Root    425 :    40.983669848824310
 Root    426 :    41.137966272386120
 Root    427 :    41.211918223747930
 Root    428 :    41.344596950168930
 Root    429 :    41.529917631393910
 Root    430 :    41.596238128723870
 Root    431 :    41.617199423926510
 Root    432 :    42.053457208021970
 Root    433 :    42.575992262073310
 Root    434 :    42.665601476840160
 Root    435 :    42.733120642651290
 Root    436 :    43.287973526128330
 Root    437 :    43.368396893342830
 Root    438 :    43.409828434995600
 Root    439 :    43.519817508988600
 Root    440 :    43.706631527888400
 Root    441 :    43.747095069703190
 Root    442 :    44.042198105894630
 Root    443 :    44.273076107668300
 Root    444 :    44.353368238335140
 Root    445 :    44.605727035163470
 Root    446 :    44.780941044576420
 Root    447 :    44.796042597136940
 Root    448 :    45.067026926208740
 Root    449 :    45.220398683152420
 Root    450 :    45.347441970409090
 Root    451 :    45.546181212150980
 Root    452 :    45.756250858674100
 Root    453 :    45.882489899469890
 Root    454 :    46.324900771086800
 Root    455 :    46.544105098935450
 Root    456 :    46.822684159920310
 Root    457 :    46.897225446781320
 Root    458 :    47.134791904884630
 Root    459 :    47.145529293282640
 Root    460 :    47.272153918003700
 Root    461 :    47.638978072154510
 Root    462 :    47.661589238527380
 Root    463 :    47.780730860784920
 Root    464 :    47.872215234350370
 Root    465 :    48.019631291600380
 Root    466 :    48.426147586005280
 Root    467 :    48.659424415814680
 Root    468 :    48.699635593303500
 Root    469 :    49.033174859711020
 Root    470 :    49.465525172288310
 Root    471 :    49.474907947989950
 Root    472 :    49.535349028217350
 Root    473 :    49.703756919695630
 Root    474 :    49.738200474414770
 Root    475 :    50.084995086202580
 Root    476 :    50.111305573683290
 Root    477 :    50.166207488273990
 Root    478 :    50.217839174580410
 Root    479 :    50.702087737794980
 Root    480 :    50.785841150391350
 Root    481 :    50.801154018416960
 Root    482 :    50.912497706378460
 Root    483 :    51.145115813654130
 Root    484 :    51.212530153851210
 Root    485 :    51.312636959581050
 Root    486 :    51.315923739941980
 Root    487 :    51.386533068774790
 Root    488 :    52.019235815915040
 Root    489 :    52.096577676260170
 Root    490 :    52.337096397116230
 Root    491 :    52.470532538854910
 Root    492 :    52.618712427745220
 Root    493 :    52.666756023549120
 Root    494 :    52.867278956798650
 Root    495 :    53.167296894712400
 Root    496 :    53.248099887303180
 Root    497 :    53.615440194346820
 Root    498 :    53.712238327211070
 Root    499 :    53.715030541535530
 Root    500 :    53.847466384770310
 Root    501 :    53.942580547840490
 Root    502 :    53.968448406457030
 Root    503 :    54.217914792209880
 Root    504 :    54.241319463205070
 Root    505 :    54.473049624065890
 Root    506 :    55.001472245123690
 Root    507 :    55.064951470913580
 Root    508 :    55.153310319371280
 Root    509 :    55.554544775903570
 Root    510 :    55.818400024428110
 Root    511 :    55.881141673730570
 Root    512 :    55.977568668554280
 Root    513 :    56.074052282800270
 Root    514 :    56.147497540757340
 Root    515 :    56.218945119055210
 Root    516 :    56.227319081622110
 Root    517 :    56.289213220088960
 Root    518 :    56.385257331321670
 Root    519 :    56.485345914029580
 Root    520 :    56.887696925760030
 Root    521 :    56.948183033549050
 Root    522 :    56.961847826386460
 Root    523 :    57.058573633133920
 Root    524 :    57.115560381238050
 Root    525 :    57.587091330186520
 Root    526 :    57.626347399358320
 Root    527 :    57.801432180154980
 Root    528 :    58.013219068136780
 Root    529 :    58.029072883733500
 Root    530 :    58.104099149415060
 Root    531 :    58.241732535002540
 Root    532 :    58.345393989273550
 Root    533 :    58.441179727090030
 Root    534 :    58.549471513660310
 Root    535 :    58.579690461888970
 Root    536 :    58.863794484194780
 Root    537 :    59.024847775507220
 Root    538 :    59.175160141032800
 Root    539 :    59.458518756944360
 Root    540 :    59.594439499919330
 Root    541 :    59.615769673007360
 Root    542 :    59.692741109770390
 Root    543 :    59.964241944083040
 Root    544 :    60.484015391673090
 Root    545 :    60.484265220075090
 Root    546 :    60.551646412936940
 Root    547 :    60.635360920714930
 Root    548 :    60.804548391356680
 Root    549 :    61.528642692709740
 Root    550 :    61.531070663229810
 Root    551 :    61.637931844472460
 Root    552 :    61.673654470244030
 Root    553 :    61.898473344039540
 Root    554 :    61.937660625005940
 Root    555 :    62.007587499170610
 Root    556 :    62.294041409310990
 Root    557 :    62.329553158777360
 Root    558 :    62.381655179878170
 Root    559 :    62.400032549723010
 Root    560 :    62.729538506131950
 Root    561 :    62.741451340532480
 Root    562 :    63.064743321689390
 Root    563 :    63.142282334349420
 Root    564 :    63.506301136675710
 Root    565 :    63.741123799410590
 Root    566 :    63.996578393764760
 Root    567 :    64.011935424750430
 Root    568 :    64.192460550277830
 Root    569 :    64.266515333023120
 Root    570 :    64.352094936527150
 Root    571 :    64.380744104839390
 Root    572 :    64.768134857034130
 Root    573 :    64.822263665527800
 Root    574 :    64.891115727667180
 Root    575 :    65.314301234634600
 Root    576 :    65.444632508765850
 Root    577 :    65.703987247733620
 Root    578 :    65.709852405736480
 Root    579 :    65.748661147956620
 Root    580 :    65.892542676079560
 Root    581 :    66.023790864830840
 Root    582 :    66.124564105868640
 Root    583 :    66.176744095029700
 Root    584 :    66.236156194645470
 Root    585 :    66.386012050335820
 Root    586 :    66.762936881067630
 Root    587 :    66.819685707516470
 Root    588 :    66.849123897287650
 Root    589 :    66.914381631508620
 Root    590 :    67.005958315226520
 Root    591 :    67.306150239336220
 Root    592 :    67.342127186532180
 Root    593 :    67.573017834531260
 Root    594 :    67.665723185436020
 Root    595 :    67.706474141531710
 Root    596 :    67.847150524004430
 Root    597 :    68.147402543612230
 Root    598 :    68.215405397283380
 Root    599 :    68.702064341290860
 Root    600 :    68.829131737751480
 Root    601 :    69.411083498728800
 Root    602 :    69.421050617868060
 Root    603 :    69.683955414307590
 Root    604 :    69.695586391751520
 Root    605 :    70.044841680176660
 Root    606 :    70.092456204919460
 Root    607 :    70.397058067016160
 Root    608 :    70.461415232423190
 Root    609 :    70.667947342686290
 Root    610 :    70.736222509604190
 Root    611 :    70.805749872291670
 Root    612 :    71.029749076181770
 Root    613 :    71.490173105450280
 Root    614 :    72.011695151815200
 Root    615 :    72.172407718360830
 Root    616 :    72.284432940100420
 Root    617 :    72.822579883012890
 Root    618 :    73.045554874283820
 Root    619 :    73.120650225257310
 Root    620 :    73.140363831592230
 Root    621 :    73.178361328056620
 Root    622 :    73.189200402319460
 Root    623 :    73.380974841884960
 Root    624 :    73.552742262407560
 Root    625 :    73.880448385200570
 Root    626 :    73.989300573212010
 Root    627 :    74.142230604153940
 Root    628 :    74.213771616613900
 Root    629 :    74.402465284419260
 Root    630 :    75.125448209662790
 Root    631 :    75.397594276719860
 Root    632 :    75.639655681913880
 Root    633 :    75.733861009526590
 Root    634 :    75.805026897284900
 Root    635 :    75.977955571163360
 Root    636 :    76.823752238333740
 Root    637 :    76.872884942543190
 Root    638 :    77.391533724069560
 Root    639 :    77.703407055185860
 Root    640 :    77.893247955395950
 Root    641 :    78.335015365763520
 Root    642 :    78.518538751293820
 Root    643 :    78.680066078363670
 Root    644 :    78.933541798601100
 Root    645 :    79.414883801611440
 Root    646 :    79.882941831876960
 Root    647 :    80.779345537095370
 Root    648 :    81.289627107637330
 Root    649 :    81.334627479592100
 Root    650 :    81.446437143781140
 Root    651 :    81.629101216292230
 Root    652 :    81.683710155348380
 Root    653 :    82.031876275557280
 Root    654 :    82.457664476928070
 Root    655 :    82.884941972701210
 Root    656 :    82.968171758683740
 Root    657 :    83.675766286359010
 Root    658 :    83.798633585298520
 Root    659 :    84.110802944714920
 Root    660 :    84.251788916678560
 Root    661 :    84.681970413259420
 Root    662 :    84.821962133506570
 Root    663 :    84.845743029406560
 Root    664 :    85.185216736724290
 Root    665 :    85.394873521045610
 Root    666 :    85.605614754819870
 Root    667 :    85.984446262139680
 Root    668 :    86.306666888361620
 Root    669 :    86.346444652691640
 Root    670 :    86.444062938063940
 Root    671 :    86.877724738387020
 Root    672 :    87.403883060880100
 Root    673 :    87.425031504680930
 Root    674 :    87.608587408155780
 Root    675 :    87.610450942624270
 Root    676 :    87.686188877100920
 Root    677 :    88.494767999969170
 Root    678 :    88.797579010738720
 Root    679 :    89.176234432994430
 Root    680 :    89.217368711351990
 Root    681 :    89.253453465917840
 Root    682 :    89.992943396586140
 Root    683 :    90.100316523618190
 Root    684 :    90.139035462551360
 Root    685 :    90.158280225037700
 Root    686 :    90.253214322166760
 Root    687 :    90.505106998636410
 Root    688 :    90.667647806034210
 Root    689 :    90.865570599225390
 Root    690 :    90.918481818955190
 Root    691 :    91.254428798570330
 Root    692 :    91.605221426600560
 Root    693 :    91.682870388795340
 Root    694 :    91.836654547888500
 Root    695 :    91.870414178685820
 Root    696 :    91.951549747012630
 Root    697 :    92.277702050665540
 Root    698 :    92.466737282394430
 Root    699 :    92.627363903227550
 Root    700 :    92.753357822204850
 Root    701 :    92.860225275284960
 Root    702 :    93.342713350446460
 Root    703 :    93.496455117462350
 Root    704 :    93.740126773605700
 Root    705 :    94.245242029148270
 Root    706 :    94.786710180512610
 Root    707 :    94.910099694427090
 Root    708 :    95.054479066082220
 Root    709 :    95.462433247281350
 Root    710 :    95.494893569590530
 Root    711 :    95.753732765151720
 Root    712 :    96.166629571968770
 Root    713 :    96.197356870072780
 Root    714 :    96.958193704671220
 Root    715 :    97.618577241368870
 Root    716 :    98.022851811901830
 Root    717 :    98.157912266508820
 Root    718 :    98.966202804934710
 Root    719 :    98.971463171286710
 Root    720 :    99.566840540602810
 Root    721 :    99.587107908611530
 Root    722 :   100.304981010550300
 Root    723 :   100.327379064827700
 Root    724 :   100.725811806720000
 Root    725 :   101.315124727787300
 Root    726 :   101.623548178207600
 Root    727 :   101.943166421775800
 Root    728 :   102.115368758966700
 Root    729 :   102.291529300708100
 Root    730 :   102.429723033134500
 Root    731 :   103.259307850063400
 Root    732 :   103.793021117378600
 Root    733 :   104.350554655979800
 Root    734 :   105.421748981662900
 Root    735 :   105.944587807073800
 Root    736 :   106.211550646807500
 Root    737 :   106.234236781600800
 Root    738 :   106.680529192962700
 Root    739 :   107.416525536423700
 Root    740 :   107.891463158191700
 Root    741 :   108.395348019354700
 Root    742 :   109.281534186062900
 Root    743 :   109.937035801522400
 Root    744 :   110.445041545192300
 Root    745 :   113.095131005301800
 Root    746 :   119.156236207009800
 Root    747 :   121.006784172359200
 Convergence achieved for final wavefunctions.
 ***********************************************************************
 Excited states from <AA,BB:AA,BB> singles matrix:
 ***********************************************************************
 
 1PDM for each excited state written to RWF  633
 Ground to excited state transition densities written to RWF  633
 Ground to excited state transition electric dipole moments (Au):
       state          X           Y           Z        Dip. S.      Osc.
         1         0.4211     -0.0000     -0.0000      0.1773      0.0293
         2        -0.0000      0.0000     -0.0000      0.0000      0.0000
         3        -0.2165      0.0000      0.0000      0.0469      0.0085
         4        -0.0000     -0.0000     -0.4693      0.2203      0.0422
         5        -0.0000      0.0000     -0.0000      0.0000      0.0000
         6        -0.0000     -0.0000      0.1246      0.0155      0.0032
         7        -0.0000      0.0000     -0.4840      0.2342      0.0508
         8        -0.0000      0.5161      0.0000      0.2664      0.0581
         9         0.2510      0.0000      0.0000      0.0630      0.0139
        10         0.1735     -0.0000      0.0000      0.0301      0.0069
        11        -0.0000      0.5020     -0.0000      0.2520      0.0598
        12         0.0000     -0.0000      0.0000      0.0000      0.0000
        13        -0.0000     -0.6720     -0.0000      0.4515      0.1107
        14         0.1386     -0.0000     -0.0000      0.0192      0.0048
        15         0.0000     -0.0000      0.0000      0.0000      0.0000
        16         0.0000     -0.0000      0.0000      0.0000      0.0000
        17        -0.5313      0.0000      0.0000      0.2822      0.0712
        18         0.0000      0.0000      0.1803      0.0325      0.0083
        19         0.0000      0.2158     -0.0000      0.0466      0.0120
        20         0.0000      0.0000      0.0572      0.0033      0.0009
        21        -0.2394      0.0000      0.0000      0.0573      0.0151
        22        -0.0000     -0.0000      0.0000      0.0000      0.0000
        23         0.0000     -0.7089      0.0000      0.5026      0.1340
        24         0.0000      0.0000     -0.1848      0.0341      0.0093
        25        -0.0000     -0.0000     -0.2109      0.0445      0.0121
        26        -0.0000      0.0000      0.0000      0.0000      0.0000
        27         0.0000     -0.5229      0.0000      0.2734      0.0752
        28         0.0000     -0.0000      0.0000      0.0000      0.0000
        29         0.0000      0.0000      0.1508      0.0227      0.0065
        30        -0.0804      0.0000     -0.0000      0.0065      0.0019
        31         0.0000      0.3496     -0.0000      0.1222      0.0357
        32        -0.0081     -0.0000     -0.0000      0.0001      0.0000
        33         0.0000     -0.0000     -0.0000      0.0000      0.0000
        34        -0.0000      0.2806     -0.0000      0.0787      0.0239
        35        -0.0000      0.0000     -0.1465      0.0215      0.0065
        36        -0.0000      0.0000     -0.0795      0.0063      0.0020
        37        -0.2463     -0.0000     -0.0000      0.0607      0.0188
        38        -0.0000     -0.1476     -0.0000      0.0218      0.0068
        39         0.0000      0.3363      0.0000      0.1131      0.0355
        40        -0.0000      0.0000      0.0000      0.0000      0.0000
        41        -0.0935      0.0000      0.0000      0.0087      0.0028
        42        -0.0000      0.0000      0.1870      0.0350      0.0112
        43         0.0000     -0.6555      0.0000      0.4297      0.1375
        44         0.0043     -0.0000      0.0000      0.0000      0.0000
        45         0.0000      0.0000     -0.6882      0.4736      0.1534
        46        -0.4546      0.0000     -0.0000      0.2066      0.0670
        47         0.0000      0.1360      0.0000      0.0185      0.0061
        48        -0.0000      0.0000      0.5371      0.2885      0.0949
        49         0.2173      0.0000     -0.0000      0.0472      0.0155
        50        -0.4397     -0.0000      0.0000      0.1933      0.0641
        51        -0.0000      0.0000     -0.0000      0.0000      0.0000
        52         0.0000     -0.3773     -0.0000      0.1424      0.0479
        53         0.1249      0.0000      0.0000      0.0156      0.0053
[...]
      5   0.000000D+00  0.000000D+00  0.000000D+00  0.000000D+00  0.204226D+00
      6   0.000000D+00  0.000000D+00  0.000000D+00  0.103414D+00  0.000000D+00
      7   0.000000D+00  0.708091D-01  0.606020D-01  0.000000D+00  0.000000D+00
      8   0.000000D+00  0.000000D+00  0.000000D+00  0.612775D+00  0.000000D+00
      9   0.000000D+00  0.000000D+00  0.000000D+00  0.000000D+00 -0.668015D-01
     10  -0.263640D+00  0.000000D+00  0.000000D+00  0.000000D+00  0.000000D+00
     11   0.000000D+00 -0.582814D-01  0.827693D-01  0.000000D+00  0.000000D+00
     12   0.000000D+00 -0.514938D+00  0.302983D+00  0.000000D+00  0.000000D+00
     13   0.000000D+00  0.388409D+00  0.802948D-01  0.000000D+00  0.000000D+00
     14   0.271098D+00  0.000000D+00  0.000000D+00  0.000000D+00  0.000000D+00
     15   0.000000D+00  0.000000D+00  0.000000D+00  0.000000D+00 -0.129025D+00
     16   0.000000D+00  0.000000D+00  0.000000D+00 -0.819778D-01  0.000000D+00
               681           682           683           684           685 
      1  -0.149133D+03 -0.149106D+03 -0.149102D+03 -0.149100D+03 -0.149100D+03
      2   0.000000D+00  0.000000D+00  0.000000D+00  0.753042D-01  0.000000D+00
      3   0.000000D+00  0.873493D-01 -0.238558D+00  0.000000D+00  0.000000D+00
      4   0.224384D-01  0.000000D+00  0.000000D+00  0.000000D+00  0.000000D+00
      5   0.000000D+00  0.000000D+00  0.000000D+00 -0.208120D+00  0.000000D+00
      6   0.000000D+00 -0.208799D+00  0.700255D+00  0.000000D+00  0.000000D+00
      7  -0.614934D-01  0.000000D+00  0.000000D+00  0.000000D+00  0.000000D+00
      8   0.000000D+00 -0.132904D+00 -0.103768D+01  0.000000D+00  0.000000D+00
      9   0.000000D+00  0.000000D+00  0.000000D+00 -0.295127D+00  0.000000D+00
     10   0.000000D+00  0.000000D+00  0.000000D+00  0.000000D+00  0.275526D+00
     11   0.277599D+00  0.000000D+00  0.000000D+00  0.000000D+00  0.000000D+00
     12   0.474123D+00  0.000000D+00  0.000000D+00  0.000000D+00  0.000000D+00
     13  -0.196097D+00  0.000000D+00  0.000000D+00  0.000000D+00  0.000000D+00
     14   0.000000D+00  0.000000D+00  0.000000D+00  0.000000D+00 -0.230329D-01
     15   0.000000D+00  0.000000D+00  0.000000D+00  0.487348D-01  0.000000D+00
     16   0.000000D+00 -0.261178D+00  0.115493D+01  0.000000D+00  0.000000D+00
               686           687           688           689           690 
      1  -0.149096D+03 -0.149087D+03 -0.149081D+03 -0.149074D+03 -0.149072D+03
      2   0.000000D+00  0.000000D+00 -0.712248D-01  0.000000D+00  0.165673D-01
      3   0.000000D+00  0.000000D+00  0.000000D+00  0.000000D+00  0.000000D+00
      4  -0.976785D-01  0.643657D-01  0.000000D+00  0.132058D+00  0.000000D+00
      5   0.000000D+00  0.000000D+00  0.200809D+00  0.000000D+00 -0.510551D-01
      6   0.000000D+00  0.000000D+00  0.000000D+00  0.000000D+00  0.000000D+00
      7   0.292384D+00 -0.209412D+00  0.000000D+00 -0.422129D+00  0.000000D+00
      8   0.000000D+00  0.000000D+00  0.000000D+00  0.000000D+00  0.000000D+00
      9   0.000000D+00  0.000000D+00 -0.263047D+00  0.000000D+00 -0.368097D+00
     10   0.000000D+00  0.000000D+00  0.000000D+00  0.000000D+00  0.000000D+00
     11   0.908825D-01  0.522587D+00  0.000000D+00  0.464444D-01  0.000000D+00
     12   0.215176D+00 -0.694339D+00  0.000000D+00 -0.947267D-01  0.000000D+00
     13   0.136926D+01 -0.859425D+00  0.000000D+00 -0.194729D+01  0.000000D+00
     14   0.000000D+00  0.000000D+00  0.000000D+00  0.000000D+00  0.000000D+00
     15   0.000000D+00  0.000000D+00 -0.339395D+00  0.000000D+00 -0.173734D+00
     16   0.000000D+00  0.000000D+00  0.000000D+00  0.000000D+00  0.000000D+00
               691           692           693           694           695 
      1  -0.149059D+03 -0.149047D+03 -0.149044D+03 -0.149038D+03 -0.149037D+03
      2  -0.184773D+00  0.000000D+00  0.000000D+00  0.000000D+00 -0.246404D+00
      3   0.000000D+00  0.000000D+00  0.000000D+00  0.645655D-01  0.000000D+00
      4   0.000000D+00 -0.651578D-01  0.000000D+00  0.000000D+00  0.000000D+00
      5   0.501709D+00  0.000000D+00  0.000000D+00  0.000000D+00  0.712701D+00
      6   0.000000D+00  0.000000D+00  0.000000D+00 -0.197586D+00  0.000000D+00
      7   0.000000D+00  0.205425D+00  0.000000D+00  0.000000D+00  0.000000D+00
      8   0.000000D+00  0.000000D+00  0.000000D+00  0.134316D+00  0.000000D+00
      9  -0.329767D-01  0.000000D+00  0.000000D+00  0.000000D+00  0.921944D+00
     10   0.000000D+00  0.000000D+00 -0.785682D-01  0.000000D+00  0.000000D+00
     11   0.000000D+00  0.899501D-01  0.000000D+00  0.000000D+00  0.000000D+00
     12   0.000000D+00 -0.354074D-01  0.000000D+00  0.000000D+00  0.000000D+00
     13   0.000000D+00  0.122223D+01  0.000000D+00  0.000000D+00  0.000000D+00
     14   0.000000D+00  0.000000D+00 -0.429681D-01  0.000000D+00  0.000000D+00
     15   0.107154D+00  0.000000D+00  0.000000D+00  0.000000D+00  0.114565D+01
     16   0.000000D+00  0.000000D+00  0.000000D+00  0.241845D-01  0.000000D+00
               696           697           698           699           700 
      1  -0.149034D+03 -0.149022D+03 -0.149015D+03 -0.149009D+03 -0.149004D+03
      2   0.000000D+00  0.000000D+00  0.000000D+00  0.000000D+00  0.000000D+00
      3   0.784387D-01  0.853042D-02  0.196014D-01  0.000000D+00  0.000000D+00
      4   0.000000D+00  0.000000D+00  0.000000D+00  0.000000D+00  0.000000D+00
      5   0.000000D+00  0.000000D+00  0.000000D+00  0.000000D+00  0.000000D+00
      6  -0.208636D+00 -0.286855D-01 -0.647951D-01  0.000000D+00  0.000000D+00
      7   0.000000D+00  0.000000D+00  0.000000D+00  0.000000D+00  0.000000D+00
      8   0.109605D-02  0.708748D-01 -0.186873D-01  0.000000D+00  0.000000D+00
      9   0.000000D+00  0.000000D+00  0.000000D+00  0.000000D+00  0.000000D+00
     10   0.000000D+00  0.000000D+00  0.000000D+00 -0.202251D+00  0.659013D-01
     11   0.000000D+00  0.000000D+00  0.000000D+00  0.000000D+00  0.000000D+00
     12   0.000000D+00  0.000000D+00  0.000000D+00  0.000000D+00  0.000000D+00
     13   0.000000D+00  0.000000D+00  0.000000D+00  0.000000D+00  0.000000D+00
     14   0.000000D+00  0.000000D+00  0.000000D+00  0.245942D+00 -0.777057D-01
     15   0.000000D+00  0.000000D+00  0.000000D+00  0.000000D+00  0.000000D+00
     16  -0.691605D-01  0.119955D+00 -0.339372D+00  0.000000D+00  0.000000D+00
               701           702           703           704           705 
      1  -0.149000D+03 -0.148983D+03 -0.148977D+03 -0.148968D+03 -0.148950D+03
      2   0.000000D+00  0.000000D+00  0.000000D+00  0.000000D+00  0.000000D+00
      3   0.000000D+00  0.163321D+00  0.858528D-01  0.000000D+00  0.000000D+00
      4  -0.290948D-01  0.000000D+00  0.000000D+00  0.000000D+00  0.000000D+00
      5   0.000000D+00  0.000000D+00  0.000000D+00  0.000000D+00  0.000000D+00
      6   0.000000D+00 -0.500200D+00 -0.275411D+00  0.000000D+00  0.000000D+00
      7   0.952667D-01  0.000000D+00  0.000000D+00  0.000000D+00  0.000000D+00
      8   0.000000D+00  0.786134D+00 -0.252123D-02  0.000000D+00  0.000000D+00
      9   0.000000D+00  0.000000D+00  0.000000D+00  0.000000D+00  0.000000D+00
     10   0.000000D+00  0.000000D+00  0.000000D+00  0.182613D+00 -0.341544D+00
     11   0.734094D-01  0.000000D+00  0.000000D+00  0.000000D+00  0.000000D+00
     12  -0.337089D+00  0.000000D+00  0.000000D+00  0.000000D+00  0.000000D+00
     13   0.885665D+00  0.000000D+00  0.000000D+00  0.000000D+00  0.000000D+00
     14   0.000000D+00  0.000000D+00  0.000000D+00 -0.156561D+00  0.553616D+00
     15   0.000000D+00  0.000000D+00  0.000000D+00  0.000000D+00  0.000000D+00
     16   0.000000D+00 -0.104395D+01 -0.320814D+00  0.000000D+00  0.000000D+00
               706           707           708           709           710 
      1  -0.148930D+03 -0.148925D+03 -0.148920D+03 -0.148905D+03 -0.148904D+03
      2   0.000000D+00  0.201471D-01  0.000000D+00  0.000000D+00  0.128905D+00
      3  -0.221908D+00  0.000000D+00  0.000000D+00  0.000000D+00  0.000000D+00
      4   0.000000D+00  0.000000D+00  0.198430D-01 -0.461710D-01  0.000000D+00
      5   0.000000D+00 -0.464088D-01  0.000000D+00  0.000000D+00 -0.380813D+00
      6   0.677264D+00  0.000000D+00  0.000000D+00  0.000000D+00  0.000000D+00
      7   0.000000D+00  0.000000D+00 -0.455657D-01  0.144827D+00  0.000000D+00
      8  -0.131341D+01  0.000000D+00  0.000000D+00  0.000000D+00  0.000000D+00
      9   0.000000D+00  0.291941D+00  0.000000D+00  0.000000D+00 -0.558610D+00
     10   0.000000D+00  0.000000D+00  0.000000D+00  0.000000D+00  0.000000D+00
     11   0.000000D+00  0.000000D+00 -0.430346D+00  0.549465D-01  0.000000D+00
     12   0.000000D+00  0.000000D+00  0.346167D+00  0.562423D+00  0.000000D+00
     13   0.000000D+00  0.000000D+00  0.394026D+00  0.693532D+00  0.000000D+00
     14   0.000000D+00  0.000000D+00  0.000000D+00  0.000000D+00  0.000000D+00
     15   0.000000D+00  0.380533D+00  0.000000D+00  0.000000D+00 -0.693029D+00
     16   0.152820D+01  0.000000D+00  0.000000D+00  0.000000D+00  0.000000D+00
               711           712           713           714           715 
      1  -0.148894D+03 -0.148879D+03 -0.148878D+03 -0.148850D+03 -0.148826D+03
      2   0.000000D+00  0.000000D+00 -0.336387D-01  0.000000D+00  0.000000D+00
      3   0.000000D+00  0.000000D+00  0.000000D+00  0.000000D+00 -0.327323D-01
      4  -0.115680D+00  0.000000D+00  0.000000D+00  0.113725D-01  0.000000D+00
      5   0.000000D+00  0.000000D+00  0.775469D-01  0.000000D+00  0.000000D+00
      6   0.000000D+00  0.000000D+00  0.000000D+00  0.000000D+00  0.786832D-01
      7   0.389061D+00  0.000000D+00  0.000000D+00 -0.261587D-01  0.000000D+00
      8   0.000000D+00  0.000000D+00  0.000000D+00  0.000000D+00  0.718273D-01
      9   0.000000D+00  0.000000D+00  0.524608D+00  0.000000D+00  0.000000D+00
     10   0.000000D+00 -0.170229D+00  0.000000D+00  0.000000D+00  0.000000D+00
     11   0.479149D-01  0.000000D+00  0.000000D+00  0.973748D-01  0.000000D+00
     12  -0.639849D+00  0.000000D+00  0.000000D+00 -0.784646D+00  0.000000D+00
     13   0.345434D+00  0.000000D+00  0.000000D+00 -0.203677D-01  0.000000D+00
     14   0.000000D+00 -0.164119D+00  0.000000D+00  0.000000D+00  0.000000D+00
     15   0.000000D+00  0.000000D+00  0.758792D+00  0.000000D+00  0.000000D+00
     16   0.000000D+00  0.000000D+00  0.000000D+00  0.000000D+00 -0.141004D+00
               716           717           718           719           720 
      1  -0.148811D+03 -0.148806D+03 -0.148776D+03 -0.148776D+03 -0.148754D+03
      2   0.000000D+00  0.000000D+00  0.000000D+00  0.129842D+00  0.000000D+00
      3   0.000000D+00  0.000000D+00 -0.110905D+00  0.000000D+00  0.000000D+00
      4   0.000000D+00  0.000000D+00  0.000000D+00  0.000000D+00  0.000000D+00
      5   0.000000D+00  0.000000D+00  0.000000D+00 -0.415748D+00  0.000000D+00
      6   0.000000D+00  0.000000D+00  0.368472D+00  0.000000D+00  0.000000D+00
      7   0.000000D+00  0.000000D+00  0.000000D+00  0.000000D+00  0.000000D+00
      8   0.000000D+00  0.000000D+00 -0.119510D+00  0.000000D+00  0.000000D+00
      9   0.000000D+00  0.000000D+00  0.000000D+00 -0.502499D+00  0.000000D+00
     10  -0.118948D+00 -0.466105D+00  0.000000D+00  0.000000D+00 -0.958210D-01
     11   0.000000D+00  0.000000D+00  0.000000D+00  0.000000D+00  0.000000D+00
     12   0.000000D+00  0.000000D+00  0.000000D+00  0.000000D+00  0.000000D+00
     13   0.000000D+00  0.000000D+00  0.000000D+00  0.000000D+00  0.000000D+00
     14   0.106514D+00  0.656710D+00  0.000000D+00  0.000000D+00 -0.662047D-01
     15   0.000000D+00  0.000000D+00  0.000000D+00 -0.445805D+00  0.000000D+00
     16   0.000000D+00  0.000000D+00 -0.104397D-01  0.000000D+00  0.000000D+00
               721           722           723           724           725 
      1  -0.148753D+03 -0.148727D+03 -0.148726D+03 -0.148711D+03 -0.148690D+03
      2   0.000000D+00  0.307824D+00  0.000000D+00  0.000000D+00  0.000000D+00
      3   0.000000D+00  0.000000D+00  0.000000D+00  0.831243D-02 -0.555215D-01
      4  -0.892648D-01  0.000000D+00  0.000000D+00  0.000000D+00  0.000000D+00
      5   0.000000D+00 -0.983059D+00  0.000000D+00  0.000000D+00  0.000000D+00
      6   0.000000D+00  0.000000D+00  0.000000D+00 -0.255413D-01  0.194214D+00
      7   0.320713D+00  0.000000D+00  0.000000D+00  0.000000D+00  0.000000D+00
      8   0.000000D+00  0.000000D+00  0.000000D+00 -0.115101D+00 -0.109481D+00
      9   0.000000D+00 -0.149072D+01  0.000000D+00  0.000000D+00  0.000000D+00
     10   0.000000D+00  0.000000D+00 -0.166930D+00  0.000000D+00  0.000000D+00
     11  -0.144837D+00  0.000000D+00  0.000000D+00  0.000000D+00  0.000000D+00
     12  -0.346325D+00  0.000000D+00  0.000000D+00  0.000000D+00  0.000000D+00
     13   0.195160D+01  0.000000D+00  0.000000D+00  0.000000D+00  0.000000D+00
     14   0.000000D+00  0.000000D+00  0.185380D+00  0.000000D+00  0.000000D+00
     15   0.000000D+00 -0.195388D+01  0.000000D+00  0.000000D+00  0.000000D+00
     16   0.000000D+00  0.000000D+00  0.000000D+00  0.399680D-01 -0.230219D+00
               726           727           728           729           730 
      1  -0.148678D+03 -0.148667D+03 -0.148660D+03 -0.148654D+03 -0.148649D+03
      2  -0.953686D-01  0.000000D+00  0.165316D+00  0.000000D+00  0.665998D-01
      3   0.000000D+00 -0.227487D+00  0.000000D+00  0.000000D+00  0.000000D+00
      4   0.000000D+00  0.000000D+00  0.000000D+00  0.000000D+00  0.000000D+00
      5   0.307132D+00  0.000000D+00 -0.507994D+00  0.000000D+00 -0.213411D+00
      6   0.000000D+00  0.751250D+00  0.000000D+00  0.000000D+00  0.000000D+00
      7   0.000000D+00  0.000000D+00  0.000000D+00  0.000000D+00  0.000000D+00
      8   0.000000D+00 -0.800987D+00  0.000000D+00  0.000000D+00  0.000000D+00
      9   0.592565D+00  0.000000D+00 -0.137552D+00  0.000000D+00  0.502131D-01
     10   0.000000D+00  0.000000D+00  0.000000D+00 -0.211946D+00  0.000000D+00
     11   0.000000D+00  0.000000D+00  0.000000D+00  0.000000D+00  0.000000D+00
     12   0.000000D+00  0.000000D+00  0.000000D+00  0.000000D+00  0.000000D+00
     13   0.000000D+00  0.000000D+00  0.000000D+00  0.000000D+00  0.000000D+00
     14   0.000000D+00  0.000000D+00  0.000000D+00  0.335460D+00  0.000000D+00
     15   0.733775D+00  0.000000D+00  0.210856D-02  0.000000D+00  0.239976D+00
     16   0.000000D+00  0.104981D+01  0.000000D+00  0.000000D+00  0.000000D+00
               731           732           733           734           735 
      1  -0.148618D+03 -0.148599D+03 -0.148578D+03 -0.148539D+03 -0.148520D+03
      2   0.000000D+00  0.000000D+00  0.156515D+00  0.000000D+00  0.000000D+00
      3   0.000000D+00  0.000000D+00  0.000000D+00  0.000000D+00  0.000000D+00
      4   0.134765D-02 -0.284886D-01  0.000000D+00 -0.301978D+00  0.000000D+00
      5   0.000000D+00  0.000000D+00 -0.510700D+00  0.000000D+00  0.000000D+00
      6   0.000000D+00  0.000000D+00  0.000000D+00  0.000000D+00  0.000000D+00
      7   0.731072D-02  0.996041D-01  0.000000D+00  0.105922D+01  0.000000D+00
      8   0.000000D+00  0.000000D+00  0.000000D+00  0.000000D+00  0.000000D+00
      9   0.000000D+00  0.000000D+00 -0.952613D+00  0.000000D+00  0.000000D+00
     10   0.000000D+00  0.000000D+00  0.000000D+00  0.000000D+00  0.151016D+00
     11  -0.112464D+00  0.174345D+00  0.000000D+00 -0.249724D-01  0.000000D+00
     12   0.205630D-01 -0.323563D+00  0.000000D+00 -0.222808D+00  0.000000D+00
     13   0.226366D+00  0.380548D+00  0.000000D+00  0.245056D+01  0.000000D+00
     14   0.000000D+00  0.000000D+00  0.000000D+00  0.000000D+00 -0.139715D+00
     15   0.000000D+00  0.000000D+00 -0.126353D+01  0.000000D+00  0.000000D+00
     16   0.000000D+00  0.000000D+00  0.000000D+00  0.000000D+00  0.000000D+00
               736           737           738           739           740 
      1  -0.148510D+03 -0.148509D+03 -0.148493D+03 -0.148466D+03 -0.148448D+03
      2   0.000000D+00  0.000000D+00  0.000000D+00  0.000000D+00  0.000000D+00
      3   0.000000D+00 -0.169953D+00  0.108179D+00  0.000000D+00  0.000000D+00
      4  -0.122437D+00  0.000000D+00  0.000000D+00  0.000000D+00 -0.394132D-01
      5   0.000000D+00  0.000000D+00  0.000000D+00  0.000000D+00  0.000000D+00
      6   0.000000D+00  0.610383D+00 -0.348661D+00  0.000000D+00  0.000000D+00
      7   0.423162D+00  0.000000D+00  0.000000D+00  0.000000D+00  0.142312D+00
      8   0.000000D+00 -0.109285D+01  0.753171D+00  0.000000D+00  0.000000D+00
      9   0.000000D+00  0.000000D+00  0.000000D+00  0.000000D+00  0.000000D+00
     10   0.000000D+00  0.000000D+00  0.000000D+00  0.135184D+00  0.000000D+00
     11  -0.337706D+00  0.000000D+00  0.000000D+00  0.000000D+00 -0.187755D+00
     12   0.152077D+00  0.000000D+00  0.000000D+00  0.000000D+00  0.343012D+00
     13   0.960868D+00  0.000000D+00  0.000000D+00  0.000000D+00  0.107007D+01
     14   0.000000D+00  0.000000D+00  0.000000D+00 -0.526087D+00  0.000000D+00
     15   0.000000D+00  0.000000D+00  0.000000D+00  0.000000D+00  0.000000D+00
     16   0.000000D+00  0.110967D+01 -0.891977D-01  0.000000D+00  0.000000D+00
               741           742           743           744           745 
      1  -0.148430D+03 -0.148397D+03 -0.148373D+03 -0.148354D+03 -0.148257D+03
      2   0.000000D+00  0.000000D+00  0.000000D+00  0.619647D-01  0.000000D+00
      3   0.747039D-01  0.000000D+00 -0.433485D-01  0.000000D+00  0.000000D+00
      4   0.000000D+00 -0.955583D-01  0.000000D+00  0.000000D+00  0.000000D+00
      5   0.000000D+00  0.000000D+00  0.000000D+00 -0.223441D+00  0.000000D+00
      6  -0.248471D+00  0.000000D+00  0.147335D+00  0.000000D+00  0.000000D+00
      7   0.000000D+00  0.444694D+00  0.000000D+00  0.000000D+00  0.000000D+00
      8   0.178198D+00  0.000000D+00 -0.213490D+00  0.000000D+00  0.000000D+00
      9   0.000000D+00  0.000000D+00  0.000000D+00 -0.613632D+00  0.000000D+00
     10   0.000000D+00  0.000000D+00  0.000000D+00  0.000000D+00  0.334540D+00
     11   0.000000D+00 -0.116201D+00  0.000000D+00  0.000000D+00  0.000000D+00
     12   0.000000D+00 -0.620357D-03  0.000000D+00  0.000000D+00  0.000000D+00
     13   0.000000D+00  0.252999D+01  0.000000D+00  0.000000D+00  0.000000D+00
     14   0.000000D+00  0.000000D+00  0.000000D+00  0.000000D+00 -0.231825D+00
     15   0.000000D+00  0.000000D+00  0.000000D+00 -0.444139D+00  0.000000D+00
     16  -0.226908D+00  0.000000D+00  0.997445D+00  0.000000D+00  0.000000D+00
               746           747 
      1  -0.148034D+03 -0.147966D+03
      2   0.000000D+00  0.000000D+00
      3   0.000000D+00  0.521356D-01
      4   0.429697D-01  0.000000D+00
      5   0.000000D+00  0.000000D+00
      6   0.000000D+00 -0.245246D+00
      7  -0.252112D+00  0.000000D+00
      8   0.000000D+00  0.382071D+00
      9   0.000000D+00  0.000000D+00
     10   0.000000D+00  0.000000D+00
     11  -0.110679D+00  0.000000D+00
     12  -0.470235D-01  0.000000D+00
     13  -0.834691D+00  0.000000D+00
     14   0.000000D+00  0.000000D+00
     15   0.000000D+00  0.000000D+00
     16   0.000000D+00 -0.248173D+00
 Unable to Open any file for archive entry.
 1\1\GINC-HEL13\SP\RSVWN5 TD-FC\Gen\C2H4O1\SABYASACHI\21-Mar-2022\0\\#P
  TD(Nstates=10000) svwn5/Gen SCF(maxcycles=100) Int(Grid=ultrafine)\\x
 GDB7_00001_tier4.com\\0,1\C,0,0.,0.729549,-0.367364\C,0,0.,-0.729549,-
 0.367364\O,0,0.,0.,0.845033\H,0,-0.918945,1.264243,-0.587975\H,0,0.918
 945,1.264243,-0.587975\H,0,0.918945,-1.264243,-0.587975\H,0,-0.918945,
 -1.264243,-0.587975\\Version=EM64L-G16RevC.01\State=1-A1\HF=-152.41301
 11\RMSD=8.382e-09\PG=C02V [C2(O1),SGV(C2),X(H4)]\\@
 The archive entry for this job was punched.


 MY GROUP MEETINGS AREN'T VERY STRUCTURED.
     -- PROF. M. S. GORDON, OCT. 5, 1984
 Job cpu time:       0 days  0 hours  1 minutes 57.5 seconds.
 Elapsed time:       0 days  0 hours  0 minutes 15.0 seconds.
 File lengths (MBytes):  RWF=    280 Int=      0 D2E=      0 Chk=    165 Scr=      1
 Normal termination of Gaussian 16 at Mon Mar 21 04:00:17 2022.
