 Entering Gaussian System, Link 0=g16
 Input=000010.com
 Output=000010.log
 Initial command:
 /home/sabyasachi/g16/l1.exe "/scratch/sabyasachi/PBS_7975847.helios/Gau-139805.inp" -scrdir="/scratch/sabyasachi/PBS_7975847.helios/"
 Entering Link 1 = /home/sabyasachi/g16/l1.exe PID=    139806.
  
 Copyright (c) 1988-2019, Gaussian, Inc.  All Rights Reserved.
  
 This is part of the Gaussian(R) 16 program.  It is based on
 the Gaussian(R) 09 system (copyright 2009, Gaussian, Inc.),
 the Gaussian(R) 03 system (copyright 2003, Gaussian, Inc.),
 the Gaussian(R) 98 system (copyright 1998, Gaussian, Inc.),
 the Gaussian(R) 94 system (copyright 1995, Gaussian, Inc.),
 the Gaussian 92(TM) system (copyright 1992, Gaussian, Inc.),
 the Gaussian 90(TM) system (copyright 1990, Gaussian, Inc.),
 the Gaussian 88(TM) system (copyright 1988, Gaussian, Inc.),
 the Gaussian 86(TM) system (copyright 1986, Carnegie Mellon
 University), and the Gaussian 82(TM) system (copyright 1983,
 Carnegie Mellon University). Gaussian is a federally registered
 trademark of Gaussian, Inc.
  
 This software contains proprietary and confidential information,
 including trade secrets, belonging to Gaussian, Inc.
  
 This software is provided under written license and may be
 used, copied, transmitted, or stored only in accord with that
 written license.
  
 The following legend is applicable only to US Government
 contracts under FAR:
  
                    RESTRICTED RIGHTS LEGEND
  
 Use, reproduction and disclosure by the US Government is
 subject to restrictions as set forth in subparagraphs (a)
 and (c) of the Commercial Computer Software - Restricted
 Rights clause in FAR 52.227-19.
  
 Gaussian, Inc.
 340 Quinnipiac St., Bldg. 40, Wallingford CT 06492
  
  
 ---------------------------------------------------------------
 Warning -- This program may not be used in any manner that
 competes with the business of Gaussian, Inc. or will provide
 assistance to any competitor of Gaussian, Inc.  The licensee
 of this program is prohibited from giving any competitor of
 Gaussian, Inc. access to this program.  By using this program,
 the user acknowledges that Gaussian, Inc. is engaged in the
 business of creating and licensing software in the field of
 computational chemistry and represents and warrants to the
 licensee that it is not a competitor of Gaussian, Inc. and that
 it will not use this program in any manner prohibited above.
 ---------------------------------------------------------------
  

 Cite this work as:
 Gaussian 16, Revision C.01,
 M. J. Frisch, G. W. Trucks, H. B. Schlegel, G. E. Scuseria, 
 M. A. Robb, J. R. Cheeseman, G. Scalmani, V. Barone, 
 G. A. Petersson, H. Nakatsuji, X. Li, M. Caricato, A. V. Marenich, 
 J. Bloino, B. G. Janesko, R. Gomperts, B. Mennucci, H. P. Hratchian, 
 J. V. Ortiz, A. F. Izmaylov, J. L. Sonnenberg, D. Williams-Young, 
 F. Ding, F. Lipparini, F. Egidi, J. Goings, B. Peng, A. Petrone, 
 T. Henderson, D. Ranasinghe, V. G. Zakrzewski, J. Gao, N. Rega, 
 G. Zheng, W. Liang, M. Hada, M. Ehara, K. Toyota, R. Fukuda, 
 J. Hasegawa, M. Ishida, T. Nakajima, Y. Honda, O. Kitao, H. Nakai, 
 T. Vreven, K. Throssell, J. A. Montgomery, Jr., J. E. Peralta, 
 F. Ogliaro, M. J. Bearpark, J. J. Heyd, E. N. Brothers, K. N. Kudin, 
 V. N. Staroverov, T. A. Keith, R. Kobayashi, J. Normand, 
 K. Raghavachari, A. P. Rendell, J. C. Burant, S. S. Iyengar, 
 J. Tomasi, M. Cossi, J. M. Millam, M. Klene, C. Adamo, R. Cammi, 
 J. W. Ochterski, R. L. Martin, K. Morokuma, O. Farkas, 
 J. B. Foresman, and D. J. Fox, Gaussian, Inc., Wallingford CT, 2019.
 
 ******************************************
 Gaussian 16:  EM64L-G16RevC.01  3-Jul-2019
                21-Mar-2022 
 ******************************************
 %mem=64gb
 %nproc=8
 Will use up to    8 processors via shared memory.
 ---------------------------------------------------------------------
 #P TD(Nstates=10000) svwn5/Gen SCF(maxcycles=100) Int(Grid=ultrafine)
 ---------------------------------------------------------------------
 1/38=1,172=1/1;
 2/12=2,17=6,18=5,40=1/2;
 3/5=7,11=9,25=1,30=1,74=201,75=-5/1,2,3,8;
 4//1;
 5/5=2,7=100,38=5/2;
 8/6=1,10=1,108=10000/1;
 9/41=10000,42=1,70=2/14;
 6/7=2,8=2,9=2,10=2/1;
 99/5=1,9=1/99;
 Leave Link    1 at Mon Mar 21 19:55:05 2022, MaxMem=  8589934592 cpu:               0.4 elap:               0.1
 (Enter /home/sabyasachi/g16/l101.exe)
 ---------------------
 xGDB7_00001_tier4.com
 ---------------------
 Symbolic Z-matrix:
 Charge =  0 Multiplicity = 1
 6                     0.        0.        0.66087 
 6                     0.        0.       -0.66087 
 1                     0.        0.92259   1.22926 
 1                     0.       -0.92259   1.22926 
 1                     0.        0.92259  -1.22926 
 1                     0.       -0.92259  -1.22926 
 
 ITRead=  0  0  0  0  0  0
 MicOpt= -1 -1 -1 -1 -1 -1
 NAtoms=      6 NQM=        6 NQMF=       0 NMMI=      0 NMMIF=      0
                NMic=       0 NMicF=      0.
                    Isotopes and Nuclear Properties:
 (Nuclear quadrupole moments (NQMom) in fm**2, nuclear magnetic moments (NMagM)
  in nuclear magnetons)

  Atom         1           2           3           4           5           6
 IAtWgt=          12          12           1           1           1           1
 AtmWgt=  12.0000000  12.0000000   1.0078250   1.0078250   1.0078250   1.0078250
 NucSpn=           0           0           1           1           1           1
 AtZEff=  -0.0000000  -0.0000000  -0.0000000  -0.0000000  -0.0000000  -0.0000000
 NQMom=    0.0000000   0.0000000   0.0000000   0.0000000   0.0000000   0.0000000
 NMagM=    0.0000000   0.0000000   2.7928460   2.7928460   2.7928460   2.7928460
 AtZNuc=   6.0000000   6.0000000   1.0000000   1.0000000   1.0000000   1.0000000
 Leave Link  101 at Mon Mar 21 19:55:05 2022, MaxMem=  8589934592 cpu:               0.7 elap:               0.1
 (Enter /home/sabyasachi/g16/l202.exe)
                          Input orientation:                          
 ---------------------------------------------------------------------
 Center     Atomic      Atomic             Coordinates (Angstroms)
 Number     Number       Type             X           Y           Z
 ---------------------------------------------------------------------
      1          6           0        0.000000    0.000000    0.660866
      2          6           0        0.000000    0.000000   -0.660866
      3          1           0        0.000000    0.922586    1.229258
      4          1           0        0.000000   -0.922586    1.229258
      5          1           0        0.000000    0.922586   -1.229258
      6          1           0        0.000000   -0.922586   -1.229258
 ---------------------------------------------------------------------
                    Distance matrix (angstroms):
                    1          2          3          4          5
     1  C    0.000000
     2  C    1.321732   0.000000
     3  H    1.083621   2.103267   0.000000
     4  H    1.083621   2.103267   1.845172   0.000000
     5  H    2.103267   1.083621   2.458516   3.073916   0.000000
     6  H    2.103267   1.083621   3.073916   2.458516   1.845172
                    6
     6  H    0.000000
 Stoichiometry    C2H4
 Framework group  D2H[C2"(C.C),SG(H4)]
 Deg. of freedom     3
 Full point group                 D2H     NOp   8
 Largest Abelian subgroup         D2H     NOp   8
 Largest concise Abelian subgroup D2      NOp   4
                         Standard orientation:                         
 ---------------------------------------------------------------------
 Center     Atomic      Atomic             Coordinates (Angstroms)
 Number     Number       Type             X           Y           Z
 ---------------------------------------------------------------------
      1          6           0        0.000000    0.000000    0.660866
      2          6           0        0.000000    0.000000   -0.660866
      3          1           0        0.000000    0.922586    1.229258
      4          1           0       -0.000000   -0.922586    1.229258
      5          1           0        0.000000    0.922586   -1.229258
      6          1           0       -0.000000   -0.922586   -1.229258
 ---------------------------------------------------------------------
 Rotational constants (GHZ):         147.2849410          30.4932883          25.2629480
 Leave Link  202 at Mon Mar 21 19:55:05 2022, MaxMem=  8589934592 cpu:               0.1 elap:               0.0
 (Enter /home/sabyasachi/g16/l301.exe)
 General basis read from cards:  (5D, 7F)
 Centers:       3      4      5      6
 S 3 1.00
     Exponent=  1.3010701000D+01 Coefficients=  1.9682158000D-02
     Exponent=  1.9622572000D+00 Coefficients=  1.3796524000D-01
     Exponent=  4.4453796000D-01 Coefficients=  4.7831935000D-01
 S 1 1.00
     Exponent=  1.2194962000D-01 Coefficients=  1.0000000000D+00
 P 1 1.00
     Exponent=  8.0000000000D-01 Coefficients=  1.0000000000D+00
 P 1 1.00
     Exponent=  1.1704099050D-01 Coefficients=  1.0000000000D+00
 ****
 Centers:       1      2
 S 5 1.00
     Exponent=  1.2384016938D+03 Coefficients=  5.4568832082D-03
     Exponent=  1.8629004992D+02 Coefficients=  4.0638409211D-02
     Exponent=  4.2251176346D+01 Coefficients=  1.8025593888D-01
     Exponent=  1.1676557932D+01 Coefficients=  4.6315121755D-01
     Exponent=  3.5930506482D+00 Coefficients=  4.4087173314D-01
 S 1 1.00
     Exponent=  4.0245147363D-01 Coefficients=  1.0000000000D+00
 S 1 1.00
     Exponent=  1.3090182668D-01 Coefficients=  1.0000000000D+00
 S 1 1.00
     Exponent=  6.7053540256D-02 Coefficients=  1.0000000000D+00
 P 3 1.00
     Exponent=  9.4680970621D+00 Coefficients=  3.8387871728D-02
     Exponent=  2.0103545142D+00 Coefficients=  2.1117025112D-01
     Exponent=  5.4771004707D-01 Coefficients=  5.1328172114D-01
 P 1 1.00
     Exponent=  1.5268613795D-01 Coefficients=  1.0000000000D+00
 D 1 1.00
     Exponent=  8.0000000000D-01 Coefficients=  1.0000000000D+00
 D 1 1.00
     Exponent=  1.1713185140D-01 Coefficients=  1.0000000000D+00
 ****
 Ernie: Thresh=  0.10000D-02 Tol=  0.10000D-05 Strict=F.
 There are    18 symmetry adapted cartesian basis functions of AG  symmetry.
 There are     4 symmetry adapted cartesian basis functions of B1G symmetry.
 There are     6 symmetry adapted cartesian basis functions of B2G symmetry.
 There are    10 symmetry adapted cartesian basis functions of B3G symmetry.
 There are     4 symmetry adapted cartesian basis functions of AU  symmetry.
 There are    18 symmetry adapted cartesian basis functions of B1U symmetry.
 There are    10 symmetry adapted cartesian basis functions of B2U symmetry.
 There are     6 symmetry adapted cartesian basis functions of B3U symmetry.
 There are    16 symmetry adapted basis functions of AG  symmetry.
 There are     4 symmetry adapted basis functions of B1G symmetry.
 There are     6 symmetry adapted basis functions of B2G symmetry.
 There are    10 symmetry adapted basis functions of B3G symmetry.
 There are     4 symmetry adapted basis functions of AU  symmetry.
 There are    16 symmetry adapted basis functions of B1U symmetry.
 There are    10 symmetry adapted basis functions of B2U symmetry.
 There are     6 symmetry adapted basis functions of B3U symmetry.
    72 basis functions,   104 primitive gaussians,    76 cartesian basis functions
     8 alpha electrons        8 beta electrons
       nuclear repulsion energy        33.5201042511 Hartrees.
 IExCor=  201 DFT=T Ex=S Corr=VWN5 ExCW=0 ScaHFX=  0.000000
 ScaDFX=  1.000000  1.000000  1.000000  1.000000 ScalE2=  1.000000  1.000000
 IRadAn=      5 IRanWt=     -1 IRanGd=            0 ICorTp=0 IEmpDi=  4
 NAtoms=    6 NActive=    6 NUniq=    2 SFac= 4.00D+00 NAtFMM=   60 NAOKFM=F Big=F
 Integral buffers will be    131072 words long.
 Regular integral format.
 Two-electron integral symmetry is turned on.
 Leave Link  301 at Mon Mar 21 19:55:06 2022, MaxMem=  8589934592 cpu:               0.6 elap:               0.1
 (Enter /home/sabyasachi/g16/l302.exe)
 NPDir=0 NMtPBC=     1 NCelOv=     1 NCel=       1 NClECP=     1 NCelD=      1
         NCelK=      1 NCelE2=     1 NClLst=     1 CellRange=     0.0.
 One-electron integrals computed using PRISM.
 One-electron integral symmetry used in STVInt
 NBasis=    72 RedAO= T EigKep=  8.68D-05  NBF=    16     4     6    10     4    16    10     6
 NBsUse=    72 1.00D-06 EigRej= -1.00D+00 NBFU=    16     4     6    10     4    16    10     6
 Precomputing XC quadrature grid using
 IXCGrd= 4 IRadAn=           5 IRanWt=          -1 IRanGd=           0 AccXCQ= 0.00D+00.
 Generated NRdTot=       0 NPtTot=           0 NUsed=           0 NTot=          32
 NSgBfM=    76    76    76    76    76 MxSgAt=     6 MxSgA2=     6.
 Leave Link  302 at Mon Mar 21 19:55:06 2022, MaxMem=  8589934592 cpu:               1.0 elap:               0.2
 (Enter /home/sabyasachi/g16/l303.exe)
 DipDrv:  MaxL=1.
 Leave Link  303 at Mon Mar 21 19:55:06 2022, MaxMem=  8589934592 cpu:               0.3 elap:               0.1
 (Enter /home/sabyasachi/g16/l308.exe)
 Leave Link  308 at Mon Mar 21 19:55:06 2022, MaxMem=  8589934592 cpu:               0.2 elap:               0.1
 (Enter /home/sabyasachi/g16/l401.exe)
 ExpMin= 6.71D-02 ExpMax= 1.24D+03 ExpMxC= 1.86D+02 IAcc=3 IRadAn=         5 AccDes= 0.00D+00
 Harris functional with IExCor=  201 and IRadAn=       5 diagonalized for initial guess.
 HarFok:  IExCor=  201 AccDes= 0.00D+00 IRadAn=         5 IDoV= 1 UseB2=F ITyADJ=14
 ICtDFT=  3500011 ScaDFX=  1.000000  1.000000  1.000000  1.000000
 FoFCou: FMM=F IPFlag=           0 FMFlag=      100000 FMFlg1=           0
         NFxFlg=           0 DoJE=T BraDBF=F KetDBF=T FulRan=T
         wScrn=  0.000000 ICntrl=       500 IOpCl=  0 I1Cent=   200000004 NGrid=           0
         NMat0=    1 NMatS0=      1 NMatT0=    0 NMatD0=    1 NMtDS0=    0 NMtDT0=    0
 Petite list used in FoFCou.
 Harris En= -77.8603091032403    
 JPrj=0 DoOrth=F DoCkMO=F.
 Initial guess orbital symmetries:
       Occupied  (AG) (B1U) (AG) (B1U) (B2U) (AG) (B3G) (B3U)
       Virtual   (B2G) (AG) (B2U) (B1U) (AG) (B3G) (AG) (B3U) (B1G)
                 (B1U) (B2U) (B2G) (B1U) (AU) (AG) (B2U) (B3U)
                 (B1U) (B3G) (B1U) (AG) (B3G) (B2U) (AG) (B1G)
                 (B1U) (B2G) (B1U) (AU) (B3G) (AG) (B3U) (B2G)
                 (B3G) (B2U) (AG) (B1U) (B1U) (AG) (B2U) (B1U)
                 (B3G) (B3U) (B1G) (AU) (B2U) (AG) (B2G) (AG) (B2U)
                 (B1U) (B3U) (B3G) (B1G) (B3G) (B1U) (AU) (AG)
                 (B2G) (AG) (B2U) (B1U) (B1U) (B3G)
 The electronic state of the initial guess is 1-AG.
 Leave Link  401 at Mon Mar 21 19:55:06 2022, MaxMem=  8589934592 cpu:               1.2 elap:               0.2
 (Enter /home/sabyasachi/g16/l502.exe)
 Keep J ints in memory in symmetry-blocked form, NReq=10672690.
 FoFCou: FMM=F IPFlag=           0 FMFlag=           0 FMFlg1=           0
         NFxFlg=           0 DoJE=F BraDBF=F KetDBF=F FulRan=T
         wScrn=  0.000000 ICntrl=       600 IOpCl=  0 I1Cent=           0 NGrid=           0
         NMat0=    1 NMatS0=   2628 NMatT0=    0 NMatD0=    1 NMtDS0=    0 NMtDT0=    0
 Petite list used in FoFCou.
 Closed shell SCF:
 Using DIIS extrapolation, IDIIS=  1040.
 NGot=  8589934592 LenX=  8589457632 LenY=  8589451415
 Requested convergence on RMS density matrix=1.00D-08 within 100 cycles.
 Requested convergence on MAX density matrix=1.00D-06.
 Requested convergence on             energy=1.00D-06.
 No special actions if energy rises.
 Integral accuracy reduced to 1.0D-05 until final iterations.

 Cycle   1  Pass 0  IDiag  1:
 E= -77.6808845704628    
 DIIS: error= 4.61D-02 at cycle   1 NSaved=   1.
 NSaved= 1 IEnMin= 1 EnMin= -77.6808845704628     IErMin= 1 ErrMin= 4.61D-02
 ErrMax= 4.61D-02  0.00D+00 EMaxC= 1.00D-01 BMatC= 7.51D-02 BMatP= 7.51D-02
 IDIUse=3 WtCom= 5.39D-01 WtEn= 4.61D-01
 Coeff-Com:  0.100D+01
 Coeff-En:   0.100D+01
 Coeff:      0.100D+01
 Gap=     0.171 Goal=   None    Shift=    0.000
 GapD=    0.171 DampG=1.000 DampE=0.500 DampFc=0.5000 IDamp=-1.
 Damping current iteration by 5.00D-01
 RMSDP=9.32D-03 MaxDP=1.44D-01              OVMax= 2.16D-01

 Cycle   2  Pass 0  IDiag  1:
 E= -77.7098664148525     Delta-E=       -0.028981844390 Rises=F Damp=T
 DIIS: error= 8.78D-03 at cycle   2 NSaved=   2.
 NSaved= 2 IEnMin= 2 EnMin= -77.7098664148525     IErMin= 2 ErrMin= 8.78D-03
 ErrMax= 8.78D-03  0.00D+00 EMaxC= 1.00D-01 BMatC= 4.73D-03 BMatP= 7.51D-02
 IDIUse=3 WtCom= 9.12D-01 WtEn= 8.78D-02
 Coeff-Com:  0.183D+00 0.817D+00
 Coeff-En:   0.311D+00 0.689D+00
 Coeff:      0.194D+00 0.806D+00
 Gap=     0.220 Goal=   None    Shift=    0.000
 RMSDP=1.71D-03 MaxDP=3.08D-02 DE=-2.90D-02 OVMax= 1.32D-01

 Cycle   3  Pass 0  IDiag  1:
 E= -77.7700990673368     Delta-E=       -0.060232652484 Rises=F Damp=F
 DIIS: error= 1.22D-03 at cycle   3 NSaved=   3.
 NSaved= 3 IEnMin= 3 EnMin= -77.7700990673368     IErMin= 3 ErrMin= 1.22D-03
 ErrMax= 1.22D-03  0.00D+00 EMaxC= 1.00D-01 BMatC= 3.99D-05 BMatP= 4.73D-03
 IDIUse=3 WtCom= 9.88D-01 WtEn= 1.22D-02
 Coeff-Com:  0.151D-01 0.993D-01 0.886D+00
 Coeff-En:   0.000D+00 0.000D+00 0.100D+01
 Coeff:      0.149D-01 0.981D-01 0.887D+00
 Gap=     0.213 Goal=   None    Shift=    0.000
 RMSDP=6.07D-04 MaxDP=1.21D-02 DE=-6.02D-02 OVMax= 3.25D-03

 Cycle   4  Pass 0  IDiag  1:
 E= -77.7701450350774     Delta-E=       -0.000045967741 Rises=F Damp=F
 DIIS: error= 2.44D-04 at cycle   4 NSaved=   4.
 NSaved= 4 IEnMin= 4 EnMin= -77.7701450350774     IErMin= 4 ErrMin= 2.44D-04
 ErrMax= 2.44D-04  0.00D+00 EMaxC= 1.00D-01 BMatC= 2.99D-06 BMatP= 3.99D-05
 IDIUse=3 WtCom= 9.98D-01 WtEn= 2.44D-03
 Coeff-Com:  0.501D-03 0.148D-01 0.238D+00 0.746D+00
 Coeff-En:   0.000D+00 0.000D+00 0.000D+00 0.100D+01
 Coeff:      0.500D-03 0.148D-01 0.238D+00 0.747D+00
 Gap=     0.214 Goal=   None    Shift=    0.000
 RMSDP=7.17D-05 MaxDP=1.25D-03 DE=-4.60D-05 OVMax= 6.79D-04

 Cycle   5  Pass 0  IDiag  1:
 E= -77.7701483495457     Delta-E=       -0.000003314468 Rises=F Damp=F
 DIIS: error= 2.56D-05 at cycle   5 NSaved=   5.
 NSaved= 5 IEnMin= 5 EnMin= -77.7701483495457     IErMin= 5 ErrMin= 2.56D-05
 ErrMax= 2.56D-05  0.00D+00 EMaxC= 1.00D-01 BMatC= 3.14D-08 BMatP= 2.99D-06
 IDIUse=1 WtCom= 1.00D+00 WtEn= 0.00D+00
 Coeff-Com: -0.311D-03-0.113D-03 0.247D-01 0.139D+00 0.837D+00
 Coeff:     -0.311D-03-0.113D-03 0.247D-01 0.139D+00 0.837D+00
 Gap=     0.214 Goal=   None    Shift=    0.000
 RMSDP=7.05D-06 MaxDP=6.42D-05 DE=-3.31D-06 OVMax= 6.97D-05

 Initial convergence to 1.0D-05 achieved.  Increase integral accuracy.
 Cycle   6  Pass 1  IDiag  1:
 E= -77.7701500472436     Delta-E=       -0.000001697698 Rises=F Damp=F
 DIIS: error= 2.52D-06 at cycle   1 NSaved=   1.
 NSaved= 1 IEnMin= 1 EnMin= -77.7701500472436     IErMin= 1 ErrMin= 2.52D-06
 ErrMax= 2.52D-06  0.00D+00 EMaxC= 1.00D-01 BMatC= 1.99D-10 BMatP= 1.99D-10
 IDIUse=1 WtCom= 1.00D+00 WtEn= 0.00D+00
 Coeff-Com:  0.100D+01
 Coeff:      0.100D+01
 Gap=     0.214 Goal=   None    Shift=    0.000
 RMSDP=7.05D-06 MaxDP=6.42D-05 DE=-1.70D-06 OVMax= 1.13D-05

 Cycle   7  Pass 1  IDiag  1:
 E= -77.7701500472435     Delta-E=        0.000000000000 Rises=F Damp=F
 DIIS: error= 2.68D-06 at cycle   2 NSaved=   2.
 NSaved= 2 IEnMin= 1 EnMin= -77.7701500472436     IErMin= 1 ErrMin= 2.52D-06
 ErrMax= 2.68D-06  0.00D+00 EMaxC= 1.00D-01 BMatC= 2.80D-10 BMatP= 1.99D-10
 IDIUse=1 WtCom= 1.00D+00 WtEn= 0.00D+00
 Coeff-Com:  0.548D+00 0.452D+00
 Coeff:      0.548D+00 0.452D+00
 Gap=     0.214 Goal=   None    Shift=    0.000
 RMSDP=2.77D-07 MaxDP=4.06D-06 DE= 1.71D-13 OVMax= 5.55D-06

 Cycle   8  Pass 1  IDiag  1:
 E= -77.7701500475569     Delta-E=       -0.000000000313 Rises=F Damp=F
 DIIS: error= 2.24D-07 at cycle   3 NSaved=   3.
 NSaved= 3 IEnMin= 3 EnMin= -77.7701500475569     IErMin= 3 ErrMin= 2.24D-07
 ErrMax= 2.24D-07  0.00D+00 EMaxC= 1.00D-01 BMatC= 3.26D-12 BMatP= 1.99D-10
 IDIUse=1 WtCom= 1.00D+00 WtEn= 0.00D+00
 Coeff-Com:  0.363D-01 0.111D+00 0.853D+00
 Coeff:      0.363D-01 0.111D+00 0.853D+00
 Gap=     0.214 Goal=   None    Shift=    0.000
 RMSDP=3.35D-08 MaxDP=4.54D-07 DE=-3.13D-10 OVMax= 4.65D-07

 Cycle   9  Pass 1  IDiag  1:
 E= -77.7701500475614     Delta-E=       -0.000000000004 Rises=F Damp=F
 DIIS: error= 1.72D-08 at cycle   4 NSaved=   4.
 NSaved= 4 IEnMin= 4 EnMin= -77.7701500475614     IErMin= 4 ErrMin= 1.72D-08
 ErrMax= 1.72D-08  0.00D+00 EMaxC= 1.00D-01 BMatC= 1.01D-14 BMatP= 3.26D-12
 IDIUse=1 WtCom= 1.00D+00 WtEn= 0.00D+00
 Coeff-Com:  0.532D-03 0.138D-01 0.995D-01 0.886D+00
 Coeff:      0.532D-03 0.138D-01 0.995D-01 0.886D+00
 Gap=     0.214 Goal=   None    Shift=    0.000
 RMSDP=9.21D-09 MaxDP=9.19D-08 DE=-4.43D-12 OVMax= 3.85D-08

 SCF Done:  E(RS-VWN5) =  -77.7701500476     A.U. after    9 cycles
            NFock=  9  Conv=0.92D-08     -V/T= 2.0070
 KE= 7.723168781792D+01 PE=-2.476685206486D+02 EE= 5.914657853206D+01
 Leave Link  502 at Mon Mar 21 19:55:06 2022, MaxMem=  8589934592 cpu:               2.1 elap:               0.3
 (Enter /home/sabyasachi/g16/l801.exe)
 DoSCS=F DFT=T ScalE2(SS,OS)=  1.000000  1.000000
 ExpMin= 6.71D-02 ExpMax= 1.24D+03 ExpMxC= 1.86D+02 IAcc=3 IRadAn=         5 AccDes= 0.00D+00
 HarFok:  IExCor=  205 AccDes= 0.00D+00 IRadAn=         5 IDoV=-2 UseB2=F ITyADJ=14
 ICtDFT= 12500011 ScaDFX=  1.000000  1.000000  1.000000  1.000000
 Largest valence mixing into a core orbital is  8.71D-05
 Largest core mixing into a valence orbital is  1.19D-06
 Range of M.O.s used for correlation:     3    72
 NBasis=    72 NAE=     8 NBE=     8 NFC=     2 NFV=     0
 NROrb=     70 NOA=     6 NOB=     6 NVA=    64 NVB=    64

 **** Warning!!: The largest alpha MO coefficient is  0.37021902D+02

 Leave Link  801 at Mon Mar 21 19:55:06 2022, MaxMem=  8589934592 cpu:               0.5 elap:               0.1
 (Enter /home/sabyasachi/g16/l914.exe)
 RHF ground state
 Keep J ints in memory in symmetry-blocked form, NReq=205705182.
 FoFCou: FMM=F IPFlag=           0 FMFlag=           0 FMFlg1=           0
         NFxFlg=           0 DoJE=F BraDBF=F KetDBF=F FulRan=T
         wScrn=  0.000000 ICntrl=       600 IOpCl=  0 I1Cent=           0 NGrid=           0
         NMat0=    1 NMatS0=   2628 NMatT0=    0 NMatD0=    1 NMtDS0=    0 NMtDT0=    0
 Petite list used in FoFCou.
 MDV=  8589934592 DFT=T DoStab=F Mixed=F DoRPA=T DoScal=T NonHer=F
 Making orbital integer symmetry assigments:
 Orbital symmetries:
       Occupied  (AG) (B1U) (AG) (B1U) (B2U) (AG) (B3G) (B3U)
       Virtual   (B2G) (AG) (B1U) (B2U) (AG) (B3G) (AG) (B3U) (B1G)
                 (B1U) (B2U) (B2G) (B1U) (AU) (AG) (B2U) (B3U)
                 (B1U) (B3G) (AG) (B2U) (B3G) (B1U) (AG) (B1G)
                 (B2G) (B1U) (B1U) (AU) (B3G) (AG) (B3U) (B2G)
                 (B3G) (B2U) (AG) (B1U) (AG) (B1U) (B2U) (B1U)
                 (B3G) (B1G) (B3U) (AU) (B2U) (B2G) (AG) (AG) (B3G)
                 (B2U) (B1U) (B3U) (B1G) (B3G) (B1U) (AU) (AG)
                 (B2G) (AG) (B2U) (B1U) (B1U) (B3G)
   384 initial guesses have been made.
 Convergence on wavefunction:    0.001000000000000
 Davidson Disk Diagonalization:  ConvIn= 1.00D-03 SkipCon=T Conv= 1.00D-03.
 Max sub-space:  1536 roots to seek:   768 dimension of matrix:          768
 *** WARNING: Number of orthogonal guesses is          384
 Iteration     1 Dimension   384 NMult     0 NNew    384
 CISAX will form   384 AO SS matrices at one time.
 NMat=   384 NSing=   384 JSym2X=-1.
 New state      1 was old state      2
 New state      2 was old state      3
 New state      3 was old state      1
 New state     10 was old state     12
 New state     11 was old state     10
 New state     12 was old state     11
 New state     15 was old state     16
 New state     16 was old state     15
 New state     20 was old state     21
 New state     21 was old state     22
 New state     22 was old state     24
 New state     23 was old state     20
 New state     24 was old state     23
 New state     28 was old state     30
 New state     30 was old state     33
 New state     32 was old state     35
 New state     33 was old state     28
 New state     34 was old state     32
 New state     35 was old state     36
 New state     36 was old state     34
 New state     37 was old state     38
 New state     38 was old state     41
 New state     39 was old state     37
 New state     40 was old state     42
 New state     41 was old state     40
 New state     42 was old state     39
 New state     44 was old state     45
 New state     45 was old state     44
 New state     46 was old state     47
 New state     47 was old state     50
 New state     48 was old state     46
 New state     49 was old state     51
 New state     50 was old state     48
 New state     51 was old state     49
 New state     53 was old state     55
 New state     55 was old state     56
 New state     56 was old state     53
 New state     60 was old state     61
 New state     61 was old state     60
 New state     63 was old state     64
 New state     64 was old state     63
 New state     65 was old state     66
 New state     66 was old state     69
 New state     67 was old state     65
 New state     69 was old state     70
 New state     70 was old state     72
 New state     71 was old state     73
 New state     72 was old state     74
 New state     73 was old state     67
 New state     74 was old state     71
 New state     75 was old state     76
 New state     76 was old state     75
 New state     78 was old state     80
 New state     79 was old state     78
 New state     80 was old state     79
 New state     82 was old state     83
 New state     83 was old state     82
 New state     84 was old state     85
 New state     85 was old state     84
 New state     86 was old state     89
 New state     87 was old state     86
 New state     89 was old state     87
 New state     92 was old state     95
 New state     93 was old state     94
 New state     94 was old state     92
 New state     95 was old state     99
 New state     96 was old state     98
 New state     97 was old state     96
 New state     98 was old state     93
 New state     99 was old state    104
 New state    100 was old state    101
 New state    101 was old state     97
 New state    102 was old state    105
 New state    103 was old state    106
 New state    104 was old state    100
 New state    105 was old state    108
 New state    106 was old state    109
 New state    108 was old state    103
 New state    109 was old state    110
 New state    110 was old state    102
 New state    111 was old state    112
 New state    112 was old state    114
 New state    114 was old state    117
 New state    115 was old state    111
 New state    116 was old state    115
 New state    117 was old state    118
 New state    118 was old state    116
 New state    119 was old state    122
 New state    120 was old state    121
 New state    121 was old state    120
 New state    122 was old state    124
 New state    123 was old state    119
 New state    124 was old state    123
 New state    127 was old state    134
 New state    130 was old state    127
 New state    132 was old state    133
 New state    133 was old state    138
 New state    134 was old state    130
 New state    135 was old state    136
 New state    136 was old state    139
 New state    137 was old state    135
 New state    138 was old state    132
 New state    139 was old state    141
 New state    140 was old state    142
 New state    141 was old state    140
 New state    142 was old state    137
 New state    147 was old state    148
 New state    148 was old state    149
 New state    149 was old state    151
 New state    151 was old state    154
 New state    152 was old state    147
 New state    154 was old state    157
 New state    155 was old state    152
 New state    156 was old state    158
 New state    157 was old state    155
 New state    158 was old state    159
 New state    159 was old state    156
 New state    160 was old state    162
 New state    161 was old state    164
 New state    162 was old state    163
 New state    163 was old state    160
 New state    164 was old state    161
 New state    166 was old state    167
 New state    167 was old state    168
 New state    168 was old state    166
 New state    171 was old state    172
 New state    172 was old state    173
 New state    173 was old state    174
 New state    174 was old state    171
 New state    176 was old state    178
 New state    177 was old state    179
 New state    178 was old state    176
 New state    179 was old state    180
 New state    180 was old state    177
 New state    181 was old state    185
 New state    182 was old state    184
 New state    184 was old state    182
 New state    185 was old state    181
 New state    189 was old state    190
 New state    190 was old state    193
 New state    191 was old state    192
 New state    192 was old state    189
 New state    193 was old state    191
 New state    198 was old state    199
 New state    199 was old state    198
 New state    203 was old state    204
 New state    204 was old state    205
 New state    205 was old state    203
 New state    206 was old state    207
 New state    207 was old state    209
 New state    208 was old state    210
 New state    209 was old state    208
 New state    210 was old state    206
 New state    211 was old state    212
 New state    212 was old state    215
 New state    213 was old state    217
 New state    214 was old state    216
 New state    215 was old state    213
 New state    216 was old state    211
 New state    217 was old state    219
 New state    218 was old state    220
 New state    219 was old state    214
 New state    220 was old state    221
 New state    221 was old state    218
 New state    224 was old state    225
 New state    225 was old state    224
 New state    226 was old state    228
 New state    227 was old state    230
 New state    228 was old state    231
 New state    229 was old state    227
 New state    230 was old state    229
 New state    231 was old state    226
 New state    237 was old state    239
 New state    238 was old state    240
 New state    239 was old state    238
 New state    240 was old state    237
 New state    243 was old state    245
 New state    244 was old state    243
 New state    245 was old state    246
 New state    246 was old state    248
 New state    247 was old state    244
 New state    248 was old state    247
 New state    252 was old state    253
 New state    253 was old state    252
 New state    254 was old state    255
 New state    255 was old state    257
 New state    256 was old state    258
 New state    257 was old state    259
 New state    258 was old state    256
 New state    259 was old state    254
 New state    260 was old state    261
 New state    261 was old state    262
 New state    262 was old state    260
 New state    268 was old state    269
 New state    269 was old state    268
 New state    275 was old state    276
 New state    276 was old state    275
 New state    279 was old state    281
 New state    280 was old state    279
 New state    281 was old state    282
 New state    282 was old state    284
 New state    284 was old state    286
 New state    286 was old state    280
 New state    288 was old state    289
 New state    289 was old state    291
 New state    290 was old state    288
 New state    291 was old state    290
 New state    293 was old state    294
 New state    294 was old state    293
 New state    296 was old state    299
 New state    298 was old state    296
 New state    299 was old state    298
 New state    301 was old state    302
 New state    302 was old state    301
 New state    303 was old state    305
 New state    305 was old state    303
 New state    306 was old state    307
 New state    307 was old state    311
 New state    308 was old state    309
 New state    309 was old state    312
 New state    311 was old state    308
 New state    312 was old state    313
 New state    313 was old state    306
 New state    320 was old state    321
 New state    321 was old state    323
 New state    322 was old state    320
 New state    323 was old state    322
 New state    341 was old state    343
 New state    343 was old state    341
 New state    351 was old state    352
 New state    352 was old state    351
 New state    354 was old state    355
 New state    355 was old state    354
 Excitation Energies [eV] at current iteration:
 Root      1 :     7.532919011859062
 Root      2 :     7.541476932340601
 Root      3 :     7.928135908352673
 Root      4 :     8.219281653054333
 Root      5 :     8.887059517988817
 Root      6 :     9.025398149629035
 Root      7 :     9.396950643057176
 Root      8 :     9.714500824437419
 Root      9 :     9.972930994656425
 Root     10 :    10.526006194280960
 Root     11 :    10.559329447333230
 Root     12 :    10.687582942948590
 Root     13 :    10.991031991636910
 Root     14 :    10.998554864027450
 Root     15 :    11.377723265463820
 Root     16 :    11.410317541118970
 Root     17 :    11.533559469421800
 Root     18 :    11.578635946099830
 Root     19 :    11.739356793003400
 Root     20 :    12.047328662003110
 Root     21 :    12.166592804635100
 Root     22 :    12.318021154192690
 Root     23 :    12.340871376644600
 Root     24 :    12.370541254004140
 Root     25 :    12.529890662184610
 Root     26 :    12.786967652560760
 Root     27 :    12.828700065847900
 Root     28 :    13.294359543081430
 Root     29 :    13.537591706003100
 Root     30 :    13.556564426543910
 Root     31 :    13.640847974057160
 Root     32 :    13.699684885264290
 Root     33 :    13.803982849127840
 Root     34 :    13.819119736004060
 Root     35 :    13.900702706451150
 Root     36 :    14.003955470758580
 Root     37 :    14.555905827032770
 Root     38 :    14.563109434167740
 Root     39 :    14.666934181763730
 Root     40 :    14.706116014476400
 Root     41 :    14.765505199523600
 Root     42 :    14.822884741057840
 Root     43 :    15.012256905117140
 Root     44 :    15.180348361654590
 Root     45 :    15.216256493359320
 Root     46 :    15.235827075091760
 Root     47 :    15.393933112078710
 Root     48 :    15.677982271912000
 Root     49 :    15.680152474829520
 Root     50 :    15.704264289180630
 Root     51 :    15.776336050491610
 Root     52 :    15.802428703388410
 Root     53 :    15.900618961371240
 Root     54 :    15.967450984345620
 Root     55 :    16.092028104246180
 Root     56 :    16.148211108789390
 Root     57 :    16.357050763210020
 Root     58 :    16.374301311227420
 Root     59 :    16.535044532964620
 Root     60 :    16.879453079156530
 Root     61 :    16.894331878745400
 Root     62 :    16.992550196881690
 Root     63 :    17.000100145483010
 Root     64 :    17.101592921599630
 Root     65 :    17.354398252797140
 Root     66 :    17.594667888883490
 Root     67 :    17.611410168981350
 Root     68 :    17.623343588716720
 Root     69 :    17.838277916857930
 Root     70 :    17.845715898798200
 Root     71 :    17.853198737032720
 Root     72 :    17.988885295644280
 Root     73 :    18.008525388717440
 Root     74 :    18.012224196021210
 Root     75 :    18.118372321866350
 Root     76 :    18.136907859916320
 Root     77 :    18.193535521989200
 Root     78 :    18.355174589718450
 Root     79 :    18.382366523736890
 Root     80 :    18.426808008982010
 Root     81 :    18.464200590797500
 Root     82 :    18.471028395101610
 Root     83 :    18.543310526308720
 Root     84 :    18.799895783232980
 Root     85 :    18.985976041919400
 Root     86 :    19.056461901908700
 Root     87 :    19.303621210406790
 Root     88 :    19.328939075243620
 Root     89 :    19.341250605799390
 Root     90 :    19.390283925018720
 Root     91 :    19.538536001523620
 Root     92 :    19.664967918210110
 Root     93 :    19.771106027274200
 Root     94 :    19.796012183312800
 Root     95 :    19.825170227419960
 Root     96 :    19.986177149770540
 Root     97 :    20.050800130315360
 Root     98 :    20.067439232090940
 Root     99 :    20.448857757645920
 Root    100 :    20.485365100192920
 Root    101 :    20.507537933014500
 Root    102 :    20.523356532615890
 Root    103 :    20.549232553544840
 Root    104 :    20.600638809024620
 Root    105 :    20.672220893351620
 Root    106 :    20.777952871406310
 Root    107 :    20.783426138480650
 Root    108 :    20.929035943244960
 Root    109 :    20.991025862013860
 Root    110 :    21.206351807150290
 Root    111 :    21.508681949157280
 Root    112 :    21.576067809416540
 Root    113 :    21.665567926135100
 Root    114 :    21.719937992355510
 Root    115 :    21.773023929942810
 Root    116 :    21.913394824766350
 Root    117 :    22.018889216721700
 Root    118 :    22.086887399153490
 Root    119 :    22.234189616348680
 Root    120 :    22.278773254804200
 Root    121 :    22.389993258867840
 Root    122 :    22.398871496006180
 Root    123 :    22.533796588769960
 Root    124 :    22.677495817474950
 Root    125 :    22.805960489453140
 Root    126 :    22.894148260546570
 Root    127 :    22.956779965619070
 Root    128 :    22.971166270067360
 Root    129 :    22.980363959761580
 Root    130 :    23.086685922644200
 Root    131 :    23.110971640421520
 Root    132 :    23.175034132802500
 Root    133 :    23.423621358945720
 Root    134 :    23.466223959847470
 Root    135 :    23.482183378152880
 Root    136 :    23.582637196639920
 Root    137 :    23.633711036432210
 Root    138 :    23.680056735565520
 Root    139 :    23.696353335314680
 Root    140 :    24.008244868370120
 Root    141 :    24.015216665464470
 Root    142 :    24.339106299136680
 Root    143 :    24.418951586155520
 Root    144 :    24.602458952166740
 Root    145 :    24.771420057808460
 Root    146 :    25.156054819743840
 Root    147 :    25.249121930121350
 Root    148 :    25.281471555335500
 Root    149 :    25.323745795211250
 Root    150 :    25.396307267727500
 Root    151 :    25.468419346883380
 Root    152 :    25.581050020813770
 Root    153 :    25.599799455685530
 Root    154 :    25.671216693014380
 Root    155 :    25.918141307062580
 Root    156 :    26.148501916910100
 Root    157 :    26.246531362712120
 Root    158 :    26.341514011811200
 Root    159 :    26.387666638803450
 Root    160 :    26.787366672954270
 Root    161 :    27.026065519579070
 Root    162 :    27.109944433987920
 Root    163 :    27.193938385533240
 Root    164 :    27.288947131439440
 Root    165 :    27.488655258212890
 Root    166 :    27.556776376496360
 Root    167 :    27.650264149711940
 Root    168 :    27.883536623287140
 Root    169 :    28.024506496766660
 Root    170 :    28.026374661780070
 Root    171 :    28.975357553238970
 Root    172 :    29.048199927173950
 Root    173 :    29.260900153298020
 Root    174 :    29.428111732084270
 Root    175 :    29.491181290192870
 Root    176 :    29.632625044857190
 Root    177 :    29.646184591895330
 Root    178 :    29.912373139582890
 Root    179 :    29.986303443876470
 Root    180 :    29.996588780861790
 Root    181 :    30.109100751721200
 Root    182 :    30.118346171381130
 Root    183 :    30.183289529592950
 Root    184 :    30.260043728217370
 Root    185 :    30.363757506984750
 Root    186 :    30.383454525543800
 Root    187 :    30.760981377649550
 Root    188 :    30.922320806823010
 Root    189 :    31.946865852437030
 Root    190 :    32.252046773538910
 Root    191 :    32.276208633259060
 Root    192 :    32.461578031618140
 Root    193 :    32.662728888143600
 Root    194 :    32.671542029782200
 Root    195 :    32.775137796290530
 Root    196 :    32.850206113973800
 Root    197 :    33.228340563652320
 Root    198 :    33.840778292419290
 Root    199 :    33.988403939134440
 Root    200 :    33.989751096837740
 Root    201 :    34.004322414803370
 Root    202 :    34.040910519646050
 Root    203 :    34.521809510559710
 Root    204 :    34.678887582621980
 Root    205 :    35.018355670563240
 Root    206 :    35.317113440954230
 Root    207 :    35.542550613578930
 Root    208 :    35.571350162048860
 Root    209 :    35.663729732538440
 Root    210 :    36.183565482256250
 Root    211 :    36.556770830999150
 Root    212 :    36.761881817112840
 Root    213 :    36.935560237549500
 Root    214 :    37.056362056073600
 Root    215 :    37.201987659402660
 Root    216 :    37.278627517184320
 Root    217 :    37.445166042259960
 Root    218 :    37.517434807269050
 Root    219 :    37.522653869797840
 Root    220 :    37.773747724036890
 Root    221 :    37.816396598931910
 Root    222 :    38.530198958506690
 Root    223 :    39.185012235830720
 Root    224 :    39.218915426795980
 Root    225 :    39.337399147385680
 Root    226 :    39.966974580755820
 Root    227 :    40.214924525226810
 Root    228 :    40.532195194517830
 Root    229 :    40.804621761628070
 Root    230 :    40.818922894556440
 Root    231 :    40.855877479094690
 Root    232 :    40.907855635010500
 Root    233 :    41.209914152790480
 Root    234 :    41.598807508382810
 Root    235 :    41.982635640430960
 Root    236 :    42.331407419185380
 Root    237 :    42.623191716642740
 Root    238 :    42.813521328495660
 Root    239 :    42.921644594051310
 Root    240 :    43.141341544009180
 Root    241 :    43.586757931063580
 Root    242 :    44.225771306470520
 Root    243 :    44.577386541234380
 Root    244 :    44.657072638804710
 Root    245 :    44.692025751627970
 Root    246 :    45.263686495861100
 Root    247 :    45.393450844396860
 Root    248 :    45.513131289927460
 Root    249 :    45.865832189415310
 Root    250 :    46.135884771350030
 Root    251 :    46.846426038775350
 Root    252 :    47.257561545344100
 Root    253 :    47.445247758990170
 Root    254 :    47.521508553191010
 Root    255 :    48.338682557640390
 Root    256 :    48.351170442474820
 Root    257 :    48.642192635668410
 Root    258 :    48.737762363200050
 Root    259 :    49.243669606042780
 Root    260 :    50.351570109427570
 Root    261 :    50.855312144094390
 Root    262 :    51.054768806191350
 Root    263 :    51.129430465466950
 Root    264 :    51.814266856983740
 Root    265 :    52.358656783924230
 Root    266 :    52.625328136171060
 Root    267 :    52.987348309756930
 Root    268 :    53.096953274105180
 Root    269 :    53.530192390960080
 Root    270 :    54.303326598719770
 Root    271 :    54.438387592793350
 Root    272 :    54.973315329248010
 Root    273 :    55.121498904923790
 Root    274 :    55.958146788105340
 Root    275 :    56.014703746441280
 Root    276 :    56.198446648079080
 Root    277 :    56.510278108587310
 Root    278 :    56.658856984226730
 Root    279 :    57.095307699680720
 Root    280 :    57.179658916476210
 Root    281 :    57.202637609356450
 Root    282 :    57.594415652441660
 Root    283 :    57.662583472992170
 Root    284 :    57.923659686934920
 Root    285 :    57.981393617017720
 Root    286 :    58.240252212116060
 Root    287 :    58.715798900414130
 Root    288 :    59.033350447749260
 Root    289 :    59.079483207762770
 Root    290 :    59.157630745890480
 Root    291 :    59.190182527574190
 Root    292 :    59.696157225549740
 Root    293 :    60.246766262877150
 Root    294 :    60.275308135776420
 Root    295 :    60.374572878886810
 Root    296 :    60.613855323334310
 Root    297 :    60.715270499765450
 Root    298 :    60.997148036882050
 Root    299 :    61.043115209460830
 Root    300 :    61.513620062285960
 Root    301 :    62.025754534052110
 Root    302 :    62.083157382645160
 Root    303 :    62.225549806948220
 Root    304 :    62.237101070009590
 Root    305 :    62.302761818232180
 Root    306 :    64.005529716509330
 Root    307 :    64.434277768228380
 Root    308 :    64.503958929542080
 Root    309 :    64.513780456271480
 Root    310 :    64.517509933654850
 Root    311 :    64.522614964293980
 Root    312 :    64.670002107054700
 Root    313 :    64.875756250715920
 Root    314 :    65.066196350758130
 Root    315 :    65.268389432679610
 Root    316 :    67.063876558313320
 Root    317 :    68.147401222860150
 Root    318 :    68.629557528383390
 Root    319 :    68.712607030747690
 Root    320 :    68.840540831635640
 Root    321 :    69.122633017506520
 Root    322 :    69.226656785825110
 Root    323 :    69.294616395201700
 Root    324 :    69.673883179898060
 Root    325 :    70.106243168997320
 Root    326 :    70.220780545671330
 Root    327 :    70.737385118465440
 Root    328 :    71.224552288653650
 Root    329 :    71.994649679596960
 Root    330 :    72.062746219408980
 Root    331 :    72.094708818035360
 Root    332 :    72.939520653242130
 Root    333 :    73.070554067944310
 Root    334 :    73.243887194481430
 Root    335 :    73.857170141488140
 Root    336 :    74.151202061652040
 Root    337 :    74.355875189389910
 Root    338 :    74.970696076111040
 Root    339 :    75.529482087923970
 Root    340 :    75.644155800468000
 Root    341 :    75.813782395412730
 Root    342 :    75.853039196940560
 Root    343 :    76.291213546445600
 Root    344 :    76.872523907175690
 Root    345 :    77.588650584348190
 Root    346 :    78.090931225915240
 Root    347 :    78.212556723762750
 Root    348 :    79.289742465481650
 Root    349 :    79.940355895229020
 Root    350 :    80.295358956439430
 Root    351 :    80.734186449274200
 Root    352 :    80.909505984018780
 Root    353 :    82.255363237350550
 Root    354 :    82.786198285739000
 Root    355 :    82.850886826195990
 Root    356 :    83.915727147124160
 Root    357 :    84.528619394876370
 Root    358 :    84.593024728639780
 Root    359 :    84.699458005730190
 Root    360 :    85.384471768814360
 Root    361 :    85.464915546584900
 Root    362 :    86.179122099613790
 Root    363 :    86.506519301524730
 Root    364 :    87.808258115887370
 Root    365 :    87.884132664691800
 Root    366 :    88.862653814076880
 Root    367 :    89.271710727937490
 Root    368 :    89.930286887802790
 Root    369 :    91.657503041219800
 Root    370 :    91.992375741688790
 Root    371 :    92.539313512592570
 Root    372 :    93.273450735063760
 Root    373 :    94.801296186994700
 Root    374 :    95.133753704087700
 Root    375 :    96.409270388117160
 Root    376 :    96.838619039783510
 Root    377 :    97.990533510849120
 Root    378 :    98.872259732209440
 Root    379 :    99.834492903487050
 Root    380 :   101.635014634115700
 Root    381 :   102.878932218152700
 Root    382 :   103.337994530710400
 Root    383 :   105.210815115504500
 Root    384 :   109.771342463748100
 Convergence achieved for final wavefunctions.
 ***********************************************************************
 Excited states from <AA,BB:AA,BB> singles matrix:
 ***********************************************************************
 
 1PDM for each excited state written to RWF  633
 Ground to excited state transition densities written to RWF  633
 Ground to excited state transition electric dipole moments (Au):
       state          X           Y           Z        Dip. S.      Osc.
         1        -0.0000      0.0000      0.0000      0.0000      0.0000
         2        -0.6093      0.0000     -0.0000      0.3712      0.0686
         3         0.0000      0.0000     -1.3178      1.7366      0.3373
         4        -0.0000     -0.0000     -0.0000      0.0000      0.0000
         5        -0.0000      0.0000      0.0000      0.0000      0.0000
         6        -0.0000     -0.0000     -0.0000      0.0000      0.0000
         7        -0.0000      0.0000      0.0000      0.0000      0.0000
         8         0.0000     -0.6324     -0.0000      0.4000      0.0952
         9         0.4621     -0.0000     -0.0000      0.2135      0.0522
        10        -0.0000      0.0000     -0.0000      0.0000      0.0000
        11         0.0000     -0.0000     -0.8369      0.7004      0.1812
        12         0.0000      0.0000     -0.0000      0.0000      0.0000
        13         0.7793      0.0000     -0.0000      0.6073      0.1635
        14        -0.0000      0.0000      0.0000      0.0000      0.0000
        15         0.0000     -0.5547      0.0000      0.3077      0.0858
        16         0.0000     -0.0000      0.0000      0.0000      0.0000
        17         0.0000      0.0000     -0.0000      0.0000      0.0000
        18         0.0000     -0.0000     -0.9304      0.8656      0.2455
        19        -0.0000     -0.0000     -0.0000      0.0000      0.0000
        20        -0.0000      0.0000     -0.0000      0.0000      0.0000
        21         0.0000     -0.4525     -0.0000      0.2047      0.0610
        22        -0.0000      0.0000      0.0000      0.0000      0.0000
        23         0.0000     -0.0000      0.0000      0.0000      0.0000
        24         0.0000     -0.8134     -0.0000      0.6616      0.2005
        25        -0.0000      0.0000      0.0000      0.0000      0.0000
        26        -0.0000     -0.0000     -0.0000      0.0000      0.0000
        27        -0.0000     -0.0000      0.0000      0.0000      0.0000
        28         0.0000     -0.0000     -0.0000      0.0000      0.0000
        29         0.0000      1.0550      0.0000      1.1130      0.3692
        30        -0.0000     -0.0000     -0.0000      0.0000      0.0000
        31         0.0000      0.0000      0.4473      0.2001      0.0669
        32        -0.0000     -0.0000     -0.0000      0.0000      0.0000
        33        -0.4980     -0.0000      0.0000      0.2480      0.0839
        34        -0.0000     -0.0000     -0.0000      0.0000      0.0000
        35         0.0000      0.0000      0.0000      0.0000      0.0000
        36        -0.0000     -0.0000      0.9549      0.9119      0.3128
        37        -0.5158     -0.0000      0.0000      0.2661      0.0949
        38         0.0000     -0.0000     -0.0000      0.0000      0.0000
        39        -0.0000     -0.0000     -0.0000      0.0000      0.0000
        40         0.0000      0.0000      0.0000      0.0000      0.0000
        41         0.0000      0.0000      0.0129      0.0002      0.0001
        42        -0.0000     -0.9288      0.0000      0.8626      0.3133
        43         0.0000     -0.0266     -0.0000      0.0007      0.0003
        44         0.1311      0.0000     -0.0000      0.0172      0.0064
        45        -0.0000      0.0000     -0.3101      0.0962      0.0359
        46        -0.7224      0.0000      0.0000      0.5219      0.1948
        47         0.0000     -0.0266      0.0000      0.0007      0.0003
        48         0.0000     -0.0000      0.1721      0.0296      0.0114
        49         0.0000     -0.0000     -0.0000      0.0000      0.0000
        50        -0.0000     -0.0000      0.0000      0.0000      0.0000
        51         0.0000      0.8145     -0.0000      0.6635      0.2564
        52         0.0000      0.0000      0.0000      0.0000      0.0000
        53         0.0000      0.0000     -0.0000      0.0000      0.0000
        54        -0.0000     -0.0000      0.0000      0.0000      0.0000
        55        -0.0000     -0.0000     -0.0000      0.0000      0.0000
        56        -1.0097      0.0000      0.0000      1.0194      0.4033
        57        -0.0000      0.0000     -0.0000      0.0000      0.0000
        58         0.0000      0.0000     -0.0000      0.0000      0.0000
        59        -0.0000      0.0000      0.0000      0.0000      0.0000
        60         0.0000      0.0000     -0.0000      0.0000      0.0000
        61        -0.0000     -0.0000      0.0000      0.0000      0.0000
        62         0.0000     -0.0000      0.3898      0.1519      0.0632
        63        -0.0000     -0.0000      0.0000      0.0000      0.0000
        64        -0.0000      0.0000      0.7092      0.5030      0.2107
        65         0.0000     -0.0000      0.0000      0.0000      0.0000
        66         0.0000      0.1173     -0.0000      0.0138      0.0059
        67         0.0000     -0.0000     -0.5751      0.3308      0.1427
        68        -0.6558      0.0000      0.0000      0.4300      0.1857
        69        -0.0000      0.5126      0.0000      0.2627      0.1148
        70        -0.0000     -0.0000     -0.0000      0.0000      0.0000
        71         0.0000      0.0000      0.0000      0.0000      0.0000
        72        -0.0000      0.0000      0.0000      0.0000      0.0000
        73        -0.0000      0.0000     -0.0000      0.0000      0.0000
        74        -0.0000     -0.0000     -0.7596      0.5770      0.2546
        75         0.0000      0.0000     -0.0000      0.0000      0.0000
        76        -0.0000     -0.0000     -0.0000      0.0000      0.0000
        77        -0.0000     -0.0000     -0.0000      0.0000      0.0000
        78         0.0000      0.0000     -0.0000      0.0000      0.0000
        79         0.0000      0.0000      0.0000      0.0000      0.0000
        80        -0.0000     -0.0000     -0.0000      0.0000      0.0000
        81         0.4015      0.0000      0.0000      0.1612      0.0729
        82         0.0000      0.2936     -0.0000      0.0862      0.0390
        83        -0.0000     -0.0000     -0.0000      0.0000      0.0000
        84        -0.0000     -0.0000      0.0000      0.0000      0.0000
        85        -0.0000     -0.0000      0.0000      0.0000      0.0000
        86        -0.0000     -0.0000     -0.1707      0.0291      0.0136
        87        -0.0000     -0.2320     -0.0000      0.0538      0.0254
        88        -0.0000     -0.0000     -0.0000      0.0000      0.0000
        89         0.0000     -0.0000      0.0000      0.0000      0.0000
        90        -0.7726      0.0000     -0.0000      0.5969      0.2835
        91         0.0000     -0.0000      0.3472      0.1206      0.0577
        92         0.0000      0.0000      0.0000      0.0000      0.0000
        93         0.0000      0.2646     -0.0000      0.0700      0.0339
        94         0.0000      0.0000      0.5406      0.2922      0.1417
        95         0.0000     -0.0000     -0.0000      0.0000      0.0000
        96        -0.0000      0.0000     -0.0000      0.0000      0.0000
        97        -0.0000     -0.0000      0.1796      0.0322      0.0158
        98        -0.0000      0.0000      0.0000      0.0000      0.0000
        99         0.0000      0.0000      0.0000      0.0000      0.0000
       100        -0.0167      0.0000     -0.0000      0.0003      0.0001
       101         0.0000      0.8717     -0.0000      0.7599      0.3818
       102        -0.0000      0.0000     -0.0000      0.0000      0.0000
       103         0.0000      0.0000      0.0000      0.0000      0.0000
       104        -0.0000      0.0000     -0.0000      0.0000      0.0000
       105        -0.0000      0.0000     -0.0000      0.0000      0.0000
       106         0.0000     -0.0000     -0.0000      0.0000      0.0000
       107        -0.0000      0.0000      0.0000      0.0000      0.0000
       108         0.0000      0.1485      0.0000      0.0221      0.0113
       109         0.0000     -0.0000     -0.3338      0.1114      0.0573
       110         0.0000      0.0000      0.0000      0.0000      0.0000
       111         0.0000     -0.0000     -0.0000      0.0000      0.0000
       112         0.0000      0.2014     -0.0000      0.0406      0.0214
       113         0.0000     -0.0000      0.0000      0.0000      0.0000
       114        -0.0000     -0.0000     -0.0000      0.0000      0.0000
       115         0.0000     -0.5613     -0.0000      0.3150      0.1681
       116         0.0000     -0.0000     -0.5530      0.3058      0.1642
       117         0.0000      0.2447     -0.0000      0.0599      0.0323
       118        -0.0000      0.0000      0.0000      0.0000      0.0000
       119        -0.0000      0.0000      0.0000      0.0000      0.0000
       120        -0.0000      0.0000      0.0000      0.0000      0.0000
       121         0.0000      0.0000     -0.0000      0.0000      0.0000
       122         0.0000      0.0000      0.0000      0.0000      0.0000
       123         0.0000     -0.0000     -0.0871      0.0076      0.0042
       124        -0.0000      0.0000      0.0000      0.0000      0.0000
       125        -0.0000     -0.0000     -0.0000      0.0000      0.0000
       126        -0.3112     -0.0000      0.0000      0.0968      0.0543
       127        -0.0000      0.0000     -0.0000      0.0000      0.0000
       128         0.0000     -0.0000      0.0000      0.0000      0.0000
       129         0.0000     -0.0000     -0.0000      0.0000      0.0000
       130         0.0000     -0.0000     -0.3757      0.1412      0.0798
       131        -0.0000      0.0000      0.0000      0.0000      0.0000
       132         0.1140      0.0000     -0.0000      0.0130      0.0074
       133        -0.0000     -0.1536      0.0000      0.0236      0.0135
       134        -0.0000     -0.0000      0.0000      0.0000      0.0000
       135        -0.0000     -0.0000      0.2575      0.0663      0.0381
       136        -0.0000      0.4861      0.0000      0.2363      0.1365
       137        -0.0000      0.0000     -0.0000      0.0000      0.0000
       138         0.0000     -0.5314     -0.0000      0.2824      0.1638
       139         0.0000      0.0000     -0.0000      0.0000      0.0000
       140        -0.5044     -0.0000     -0.0000      0.2545      0.1497
       141         0.0000     -0.5975     -0.0000      0.3570      0.2100
       142         0.0000      0.0000     -0.4279      0.1831      0.1092
       143         0.0000     -0.0000     -0.0408      0.0017      0.0010
       144         0.0000      0.0000     -0.0000      0.0000      0.0000
       145         0.0000     -0.0000      0.0000      0.0000      0.0000
       146         0.0000     -0.0000      0.0000      0.0000      0.0000
       147        -0.0000      0.0000      0.0360      0.0013      0.0008
       148         0.0000      0.0000      0.0000      0.0000      0.0000
       149        -0.0000      0.0000      0.0000      0.0000      0.0000
       150        -0.0000     -0.3061      0.0000      0.0937      0.0583
       151        -0.0000     -0.0000      0.0000      0.0000      0.0000
       152        -0.6681     -0.0000     -0.0000      0.4463      0.2797
       153         0.0000      0.0000      0.4784      0.2289      0.1435
       154         0.0000     -0.0000     -0.0000      0.0000      0.0000
       155        -0.0000      0.0000      0.0000      0.0000      0.0000
       156         0.0409     -0.0000      0.0000      0.0017      0.0011
       157         0.0000     -0.0000      0.5986      0.3583      0.2304
       158         0.0000      0.0000     -0.0000      0.0000      0.0000
       159        -0.0000      0.0000     -0.0000      0.0000      0.0000
       160         0.0000      0.0000     -0.0000      0.0000      0.0000
       161        -0.0000     -0.0000     -0.0000      0.0000      0.0000
       162         0.0000      0.0000      0.0000      0.0000      0.0000
       163         0.0000     -0.0000      0.0000      0.0000      0.0000
       164        -0.0000     -0.0000     -0.0000      0.0000      0.0000
       165        -0.0000      0.0000     -0.0000      0.0000      0.0000
       166         0.0763     -0.0000     -0.0000      0.0058      0.0039
       167         0.0000      0.0000      0.1210      0.0147      0.0099
       168        -0.0000     -0.0524     -0.0000      0.0027      0.0019
       169        -0.0000      0.0000     -0.0974      0.0095      0.0065
       170         0.0000     -0.0000     -0.0000      0.0000      0.0000
       171        -0.1354     -0.0000     -0.0000      0.0183      0.0130
       172        -0.0000     -0.0000      0.0000      0.0000      0.0000
       173         0.0000      0.0000     -0.0000      0.0000      0.0000
       174        -0.0000     -0.0000      0.0000      0.0000      0.0000
       175         0.0000      0.0000      0.0000      0.0000      0.0000
       176        -0.0000      0.0000     -0.0000      0.0000      0.0000
       177        -0.0000     -0.1541      0.0000      0.0238      0.0173
       178         0.0000      0.0000     -0.0771      0.0059      0.0044
       179         0.0000      0.0000      0.0000      0.0000      0.0000
       180         0.0000      0.0123     -0.0000      0.0002      0.0001
       181         0.0000      0.0000      0.0000      0.0000      0.0000
       182        -0.0000     -0.2108     -0.0000      0.0444      0.0328
       183         0.0000     -0.0000     -0.0000      0.0000      0.0000
       184        -0.0000      0.0000     -0.0000      0.0000      0.0000
       185         0.0000      0.0000      0.0346      0.0012      0.0009
       186         0.0000      0.0000      0.0000      0.0000      0.0000
       187         0.0000      0.0000      0.0000      0.0000      0.0000
       188        -0.0000      0.0000      0.0000      0.0000      0.0000
       189         0.0000      0.0000     -0.0347      0.0012      0.0009
       190        -0.2358      0.0000     -0.0000      0.0556      0.0439
       191         0.0000      0.0000      0.4402      0.1938      0.1532
       192         0.0000      0.0000     -0.0000      0.0000      0.0000
       193        -0.0000     -0.0000     -0.0144      0.0002      0.0002
       194         0.0000      0.0000      0.0000      0.0000      0.0000
       195        -0.0000      0.0000     -0.0000      0.0000      0.0000
       196         0.0000      0.0000      0.0000      0.0000      0.0000
       197         0.0000     -0.0000     -0.0000      0.0000      0.0000
       198        -0.0000      0.0782      0.0000      0.0061      0.0051
       199        -0.0000      0.0000      0.0000      0.0000      0.0000
       200         0.0000      0.0000     -0.2670      0.0713      0.0594
       201         0.0000     -0.0000     -0.0000      0.0000      0.0000
       202         0.0000     -0.0000      0.0000      0.0000      0.0000
       203         0.0000      0.0996     -0.0000      0.0099      0.0084
       204         0.0000      0.0000     -0.0000      0.0000      0.0000
       205         0.0000     -0.0000      0.1680      0.0282      0.0242
       206        -0.0761      0.0000      0.0000      0.0058      0.0050
       207        -0.0000     -0.0000     -0.0000      0.0000      0.0000
       208        -0.0000      0.0000      0.0000      0.0000      0.0000
       209        -0.0000     -0.0000     -0.0000      0.0000      0.0000
       210        -0.0000      0.0000     -0.0000      0.0000      0.0000
       211        -0.2861     -0.0000     -0.0000      0.0818      0.0733
       212        -0.0000     -0.0697      0.0000      0.0049      0.0044
       213        -0.0000      0.0437      0.0000      0.0019      0.0017
       214        -0.0000      0.0000      0.0000      0.0000      0.0000
       215         0.0000      0.0000      0.0000      0.0000      0.0000
       216         0.0000     -0.0000      0.1852      0.0343      0.0313
       217        -0.3476     -0.0000     -0.0000      0.1208      0.1108
       218         0.0000     -0.0000     -0.0000      0.0000      0.0000
       219        -0.0000      0.3734     -0.0000      0.1394      0.1282
       220         0.0000      0.0000     -0.0000      0.0000      0.0000
       221        -0.0000      0.0000     -0.1821      0.0331      0.0307
       222        -0.0000     -0.0000     -0.0000      0.0000      0.0000
       223        -0.0000     -0.0000     -0.0000      0.0000      0.0000
       224        -0.0000     -0.1402     -0.0000      0.0196      0.0189
       225         0.0000     -0.0000     -0.1702      0.0290      0.0279
       226         0.0000      0.0019     -0.0000      0.0000      0.0000
       227         0.0000     -0.0000      0.0000      0.0000      0.0000
       228        -0.0000     -0.0000     -0.0000      0.0000      0.0000
       229         0.0000     -0.0000      0.0000      0.0000      0.0000
       230         0.0000      0.2404      0.0000      0.0578      0.0578
       231        -0.0000      0.0000      0.1595      0.0254      0.0255
       232        -0.0000      0.0000     -0.0000      0.0000      0.0000
       233         0.0000      0.0000      0.0000      0.0000      0.0000
       234         0.0000     -0.0000     -0.0000      0.0000      0.0000
       235        -0.0000      0.0000      0.0628      0.0039      0.0041
       236        -0.0000      0.3478     -0.0000      0.1210      0.1255
       237        -0.0000      0.0000     -0.0000      0.0000      0.0000
       238        -0.0000     -0.0000     -0.0000      0.0000      0.0000
       239         0.0000      0.0000      0.0000      0.0000      0.0000
       240        -0.0000     -0.0000     -0.2570      0.0661      0.0698
       241        -0.0000      0.0000     -0.0000      0.0000      0.0000
       242        -0.0000     -0.4991     -0.0000      0.2491      0.2699
       243         0.0000      0.0000     -0.0000      0.0000      0.0000
       244         0.0000      0.0000      0.0000      0.0000      0.0000
       245         0.0000      0.0000      0.2789      0.0778      0.0851
       246         0.0000      0.0000      0.0000      0.0000      0.0000
       247        -0.0000     -0.0000     -0.0000      0.0000      0.0000
       248         0.0000     -0.0000     -0.0000      0.0000      0.0000
       249         0.0000     -0.0000     -0.0906      0.0082      0.0092
       250        -0.0000      0.0000     -0.0000      0.0000      0.0000
       251         0.0000     -0.0000     -0.0000      0.0000      0.0000
       252        -0.0000      0.0000      0.0000      0.0000      0.0000
       253        -0.1604     -0.0000      0.0000      0.0257      0.0299
       254        -0.0000      0.1519      0.0000      0.0231      0.0269
       255        -0.0000      0.1945      0.0000      0.0378      0.0448
       256         0.0000     -0.0000     -0.0000      0.0000      0.0000
       257        -0.0000      0.0000     -0.0000      0.0000      0.0000
       258        -0.3487     -0.0000     -0.0000      0.1216      0.1452
       259         0.0000      0.0000      0.2917      0.0851      0.1027
       260        -0.0000      0.0000     -0.0353      0.0012      0.0015
       261         0.0000     -0.0000      0.0000      0.0000      0.0000
       262         0.7151     -0.0000     -0.0000      0.5114      0.6397
       263        -0.0000      0.0000     -0.0000      0.0000      0.0000
       264        -0.0000     -0.0000     -0.0000      0.0000      0.0000
       265        -0.0000      0.0000      0.0000      0.0000      0.0000
       266         0.0000      0.0000     -0.0000      0.0000      0.0000
       267        -0.0000      0.0000      0.0991      0.0098      0.0128
       268         0.1151      0.0000      0.0000      0.0133      0.0172
       269        -0.0000      0.0000      0.0000      0.0000      0.0000
       270         0.0000     -0.0000      0.2371      0.0562      0.0748
       271        -0.0000     -0.0000     -0.0000      0.0000      0.0000
       272        -0.0000      0.0000      0.0000      0.0000      0.0000
       273         0.0000      0.0000      0.0000      0.0000      0.0000
       274        -0.0178      0.0000      0.0000      0.0003      0.0004
       275        -0.0000      0.0043     -0.0000      0.0000      0.0000
       276        -0.0000      0.0000      0.0000      0.0000      0.0000
       277         0.0000      0.0000      0.0000      0.0000      0.0000
       278        -0.0000     -0.0000      0.0000      0.0000      0.0000
       279        -0.0000      0.0000     -0.0000      0.0000      0.0000
       280         0.0000     -0.0000      0.0000      0.0000      0.0000
       281         0.0000     -0.0000     -0.0000      0.0000      0.0000
       282        -0.0000     -0.0000      0.0000      0.0000      0.0000
       283        -0.0000      0.0000      0.0000      0.0000      0.0000
       284         0.0000     -0.1423     -0.0000      0.0203      0.0288
       285         0.0000     -0.0000     -0.0000      0.0000      0.0000
       286         0.4335     -0.0000     -0.0000      0.1880      0.2682
       287         0.0000      0.0000     -0.0000      0.0000      0.0000
       288         0.0000      0.0000      0.0142      0.0002      0.0003
       289        -0.0000      0.0000     -0.0000      0.0000      0.0000
       290         0.0000     -0.0000      0.0000      0.0000      0.0000
       291        -0.0000      0.1186      0.0000      0.0141      0.0204
       292         0.0000      0.0000     -0.0000      0.0000      0.0000
       293        -0.0000     -0.0000     -0.0000      0.0000      0.0000
       294         0.3540     -0.0000     -0.0000      0.1253      0.1850
       295         0.0000      0.0000      0.1025      0.0105      0.0155
       296         0.0000      0.0000     -0.1559      0.0243      0.0361
       297         0.0000     -0.0000      0.0000      0.0000      0.0000
       298         0.0000     -0.0000      0.0000      0.0000      0.0000
       299         0.0000     -0.1372      0.0000      0.0188      0.0282
       300         0.2847     -0.0000     -0.0000      0.0811      0.1222
       301         0.0000      0.0000     -0.2012      0.0405      0.0615
       302        -0.0000     -0.0674      0.0000      0.0045      0.0069
       303        -0.0000     -0.0000     -0.0000      0.0000      0.0000
       304         0.0000     -0.0000      0.0000      0.0000      0.0000
       305        -0.0000      0.0000      0.0000      0.0000      0.0000
       306        -0.0000      0.0454      0.0000      0.0021      0.0032
       307         0.0000      0.0000     -0.0000      0.0000      0.0000
       308        -0.0000      0.0203     -0.0000      0.0004      0.0007
       309        -0.0000      0.0000     -0.0000      0.0000      0.0000
       310        -0.0000     -0.0000     -0.0000      0.0000      0.0000
       311         0.0000     -0.0000     -0.0792      0.0063      0.0099
       312        -0.0000     -0.0000     -0.0000      0.0000      0.0000
       313         0.0000     -0.3360      0.0000      0.1129      0.1795
       314        -0.0000      0.0000     -0.0000      0.0000      0.0000
       315        -0.0000      0.0000      0.0000      0.0000      0.0000
       316         0.0000      0.0000     -0.0000      0.0000      0.0000
       317        -0.0000      0.0000     -0.0000      0.0000      0.0000
       318        -0.0729      0.0000     -0.0000      0.0053      0.0089
       319        -0.0000      0.0000      0.0000      0.0000      0.0000
       320         0.0000     -0.0000      0.0000      0.0000      0.0000
       321         0.0000      0.0000     -0.0688      0.0047      0.0080
       322         0.0000     -0.0000      0.0000      0.0000      0.0000
       323         0.0000      0.0770      0.0000      0.0059      0.0101
       324        -0.2640      0.0000     -0.0000      0.0697      0.1190
       325         0.0000      0.0000      0.0000      0.0000      0.0000
       326        -0.0000      0.0802      0.0000      0.0064      0.0111
       327         0.0000     -0.0000      0.0000      0.0000      0.0000
       328        -0.0000      0.0000      0.0000      0.0000      0.0000
       329         0.0000     -0.0000     -0.0000      0.0000      0.0000
       330         0.0000      0.0000     -0.0869      0.0075      0.0133
       331         0.1149      0.0000     -0.0000      0.0132      0.0233
       332        -0.1634     -0.0000      0.0000      0.0267      0.0477
       333         0.0000     -0.0000      0.0656      0.0043      0.0077
       334         0.0000      0.0000      0.0000      0.0000      0.0000
       335        -0.0000      0.0000     -0.0000      0.0000      0.0000
       336         0.0000      0.0000     -0.2105      0.0443      0.0805
       337         0.0000      0.0000     -0.0000      0.0000      0.0000
       338        -0.0000     -0.0000      0.0000      0.0000      0.0000
       339        -0.0000     -0.0854      0.0000      0.0073      0.0135
       340        -0.0000     -0.0000     -0.0000      0.0000      0.0000
       341         0.0000      0.0000      0.0000      0.0000      0.0000
       342         0.0000     -0.0000      0.0000      0.0000      0.0000
       343        -0.0000      0.0000     -0.0000      0.0000      0.0000
       344         0.0000      0.0605      0.0000      0.0037      0.0069
       345         0.0000     -0.0000     -0.0000      0.0000      0.0000
       346         0.0000     -0.0000     -0.0000      0.0000      0.0000
       347         0.0000      0.0000      0.0000      0.0000      0.0000
       348        -0.0000     -0.0000     -0.0002      0.0000      0.0000
       349         0.0000     -0.0000     -0.0000      0.0000      0.0000
       350         0.0000     -0.0000     -0.1001      0.0100      0.0197
       351         0.1499      0.0000      0.0000      0.0225      0.0444
       352        -0.0861      0.0000     -0.0000      0.0074      0.0147
       353        -0.0000     -0.0000     -0.0000      0.0000      0.0000
       354        -0.0000      0.0000      0.0000      0.0000      0.0000
       355         0.0000     -0.0000     -0.0000      0.0000      0.0000
       356         0.0000     -0.0000      0.0000      0.0000      0.0000
       357        -0.0000     -0.0000      0.0000      0.0000      0.0000
       358         0.0000      0.0000      0.1145      0.0131      0.0272
       359        -0.0000     -0.0000     -0.0000      0.0000      0.0000
       360        -0.0000     -0.0000     -0.0000      0.0000      0.0000
       361         0.0000     -0.0661     -0.0000      0.0044      0.0091
       362         0.0000      0.0270      0.0000      0.0007      0.0015
       363        -0.0000      0.1804      0.0000      0.0325      0.0689
       364         0.0000     -0.0000     -0.0000      0.0000      0.0000
       365         0.0000      0.0000      0.0310      0.0010      0.0021
       366         0.0000      0.0000     -0.1396      0.0195      0.0425
       367        -0.0000     -0.0000      0.0000      0.0000      0.0000
       368         0.0000     -0.0000      0.0000      0.0000      0.0000
       369         0.0000     -0.0000     -0.0000      0.0000      0.0000
       370        -0.0000     -0.0000      0.0000      0.0000      0.0000
       371        -0.0000     -0.0000      0.0000      0.0000      0.0000
       372         0.0000     -0.0915      0.0000      0.0084      0.0191
       373        -0.0000     -0.1900     -0.0000      0.0361      0.0838
       374        -0.0000      0.0000      0.0523      0.0027      0.0064
       375        -0.0000     -0.0000      0.0000      0.0000      0.0000
       376         0.0000     -0.0000     -0.0425      0.0018      0.0043
       377        -0.0000      0.0000     -0.0000      0.0000      0.0000
       378        -0.0000      0.0000      0.0000      0.0000      0.0000
       379         0.0000      0.0000      0.0000      0.0000      0.0000
       380         0.0000      0.0000     -0.0000      0.0000      0.0000
       381         0.0000     -0.0000      0.0934      0.0087      0.0220
       382         0.0000      0.0000      0.0707      0.0050      0.0127
       383        -0.0000     -0.0066     -0.0000      0.0000      0.0001
       384         0.0000      0.0000      0.0000      0.0000      0.0000
 Ground to excited state transition velocity dipole moments (Au):
       state          X           Y           Z        Dip. S.      Osc.
         1        -0.0000      0.0000      0.0000      0.0000      0.0000
         2         0.1964     -0.0000      0.0000      0.0386      0.0928
         3        -0.0000      0.0000      0.3827      0.1464      0.3350
         4         0.0000      0.0000      0.0000      0.0000      0.0000
         5        -0.0000     -0.0000     -0.0000      0.0000      0.0000
         6         0.0000      0.0000      0.0000      0.0000      0.0000
         7         0.0000      0.0000     -0.0000      0.0000      0.0000
         8        -0.0000      0.2366     -0.0000      0.0560      0.1045
         9        -0.1850      0.0000      0.0000      0.0342      0.0623
        10         0.0000     -0.0000      0.0000      0.0000      0.0000
        11        -0.0000      0.0000      0.3218      0.1036      0.1780
        12        -0.0000     -0.0000      0.0000      0.0000      0.0000
        13        -0.3287     -0.0000     -0.0000      0.1081      0.1784
        14         0.0000      0.0000     -0.0000      0.0000      0.0000
        15         0.0000      0.2295      0.0000      0.0527      0.0840
        16        -0.0000      0.0000      0.0000      0.0000      0.0000
        17        -0.0000      0.0000     -0.0000      0.0000      0.0000
        18        -0.0000     -0.0000      0.4064      0.1652      0.2588
        19         0.0000      0.0000      0.0000      0.0000      0.0000
        20        -0.0000      0.0000      0.0000      0.0000      0.0000
        21        -0.0000      0.2091      0.0000      0.0437      0.0652
        22         0.0000      0.0000      0.0000      0.0000      0.0000
        23        -0.0000      0.0000     -0.0000      0.0000      0.0000
        24        -0.0000      0.3713      0.0000      0.1379      0.2022
        25         0.0000     -0.0000      0.0000      0.0000      0.0000
        26         0.0000     -0.0000     -0.0000      0.0000      0.0000
        27         0.0000     -0.0000     -0.0000      0.0000      0.0000
        28        -0.0000      0.0000      0.0000      0.0000      0.0000
        29        -0.0000     -0.5205     -0.0000      0.2709      0.3631
        30        -0.0000      0.0000      0.0000      0.0000      0.0000
        31        -0.0000      0.0000     -0.2346      0.0550      0.0732
        32        -0.0000      0.0000     -0.0000      0.0000      0.0000
        33         0.2617     -0.0000     -0.0000      0.0685      0.0900
        34         0.0000      0.0000      0.0000      0.0000      0.0000
        35        -0.0000     -0.0000      0.0000      0.0000      0.0000
        36         0.0000     -0.0000     -0.4953      0.2454      0.3178
        37         0.2875     -0.0000      0.0000      0.0827      0.1030
        38        -0.0000     -0.0000     -0.0000      0.0000      0.0000
        39         0.0000      0.0000     -0.0000      0.0000      0.0000
        40         0.0000      0.0000      0.0000      0.0000      0.0000
        41        -0.0000      0.0000     -0.0062      0.0000      0.0000
        42         0.0000      0.5053      0.0000      0.2554      0.3125
        43        -0.0000      0.0110      0.0000      0.0001      0.0001
        44        -0.0510     -0.0000      0.0000      0.0026      0.0031
        45         0.0000     -0.0000      0.1604      0.0257      0.0307
        46         0.4095      0.0000      0.0000      0.1677      0.1996
        47        -0.0000      0.0179     -0.0000      0.0003      0.0004
        48        -0.0000      0.0000     -0.1094      0.0120      0.0139
        49         0.0000     -0.0000      0.0000      0.0000      0.0000
        50         0.0000      0.0000     -0.0000      0.0000      0.0000
        51        -0.0000     -0.4726     -0.0000      0.2234      0.2568
        52        -0.0000     -0.0000     -0.0000      0.0000      0.0000
        53        -0.0000     -0.0000      0.0000      0.0000      0.0000
        54         0.0000     -0.0000      0.0000      0.0000      0.0000
        55         0.0000      0.0000      0.0000      0.0000      0.0000
        56         0.6241      0.0000      0.0000      0.3895      0.4376
[...]
     11   0.000000D+00  0.000000D+00  0.000000D+00 -0.153075D+00  0.000000D+00
     12   0.000000D+00  0.000000D+00  0.000000D+00  0.386762D+00  0.000000D+00
     13   0.000000D+00  0.000000D+00  0.000000D+00 -0.655201D+00  0.000000D+00
     14   0.000000D+00  0.000000D+00  0.000000D+00  0.000000D+00  0.000000D+00
     15   0.000000D+00  0.367193D+00  0.000000D+00  0.000000D+00 -0.817148D+00
     16   0.000000D+00  0.000000D+00  0.000000D+00  0.000000D+00  0.000000D+00
               316           317           318           319           320 
      1  -0.753056D+02 -0.752658D+02 -0.752481D+02 -0.752450D+02 -0.752403D+02
      2   0.000000D+00  0.000000D+00 -0.728671D-01  0.000000D+00  0.000000D+00
      3   0.000000D+00  0.000000D+00  0.000000D+00  0.000000D+00  0.000000D+00
      4   0.000000D+00  0.000000D+00  0.000000D+00  0.000000D+00  0.000000D+00
      5   0.000000D+00  0.000000D+00  0.160193D+00  0.000000D+00  0.000000D+00
      6   0.000000D+00  0.000000D+00  0.000000D+00  0.000000D+00  0.000000D+00
      7   0.000000D+00  0.000000D+00  0.000000D+00  0.000000D+00  0.000000D+00
      8   0.000000D+00  0.000000D+00  0.000000D+00  0.000000D+00  0.370147D+00
      9   0.000000D+00  0.000000D+00  0.000000D+00 -0.290557D+00  0.000000D+00
     10   0.286372D+00  0.000000D+00  0.000000D+00  0.000000D+00  0.000000D+00
     11   0.000000D+00  0.000000D+00  0.000000D+00  0.000000D+00  0.000000D+00
     12   0.000000D+00  0.000000D+00  0.000000D+00  0.000000D+00  0.000000D+00
     13   0.000000D+00  0.000000D+00  0.000000D+00  0.000000D+00  0.000000D+00
     14  -0.956857D+00  0.000000D+00  0.000000D+00  0.000000D+00  0.000000D+00
     15   0.000000D+00  0.000000D+00  0.000000D+00 -0.499410D+00  0.000000D+00
     16   0.000000D+00  0.000000D+00  0.000000D+00  0.000000D+00 -0.473780D-01
               321           322           323           324           325 
      1  -0.752299D+02 -0.752261D+02 -0.752236D+02 -0.752097D+02 -0.751938D+02
      2   0.000000D+00  0.000000D+00  0.000000D+00 -0.264012D+00  0.000000D+00
      3   0.000000D+00  0.000000D+00  0.770256D-01  0.000000D+00  0.000000D+00
      4  -0.687904D-01  0.000000D+00  0.000000D+00  0.000000D+00  0.000000D+00
      5   0.000000D+00  0.000000D+00  0.000000D+00  0.548589D+00  0.000000D+00
      6   0.000000D+00  0.000000D+00 -0.159968D+00  0.000000D+00  0.000000D+00
      7   0.135136D+00  0.000000D+00  0.000000D+00  0.000000D+00  0.000000D+00
      8   0.000000D+00  0.000000D+00  0.000000D+00  0.000000D+00  0.000000D+00
      9   0.000000D+00  0.000000D+00  0.000000D+00  0.000000D+00  0.000000D+00
     10   0.000000D+00  0.000000D+00  0.000000D+00  0.000000D+00  0.000000D+00
     11   0.000000D+00 -0.412636D+00  0.000000D+00  0.000000D+00 -0.138979D+00
     12   0.000000D+00  0.921939D-01  0.000000D+00  0.000000D+00 -0.389739D+00
     13   0.000000D+00 -0.187286D+00  0.000000D+00  0.000000D+00 -0.709705D+00
     14   0.000000D+00  0.000000D+00  0.000000D+00  0.000000D+00  0.000000D+00
     15   0.000000D+00  0.000000D+00  0.000000D+00  0.000000D+00  0.000000D+00
     16   0.000000D+00  0.000000D+00  0.000000D+00  0.000000D+00  0.000000D+00
               326           327           328           329           330 
      1  -0.751896D+02 -0.751706D+02 -0.751527D+02 -0.751244D+02 -0.751219D+02
      2   0.000000D+00  0.000000D+00  0.000000D+00  0.000000D+00  0.000000D+00
      3   0.801542D-01  0.000000D+00  0.000000D+00  0.000000D+00  0.000000D+00
      4   0.000000D+00  0.000000D+00  0.000000D+00  0.000000D+00 -0.868773D-01
      5   0.000000D+00  0.000000D+00  0.000000D+00  0.000000D+00  0.000000D+00
      6  -0.126036D+00  0.000000D+00  0.000000D+00  0.000000D+00  0.000000D+00
      7   0.000000D+00  0.000000D+00  0.000000D+00  0.000000D+00  0.179757D+00
      8   0.000000D+00  0.000000D+00 -0.373518D+00 -0.732124D+00  0.000000D+00
      9   0.000000D+00  0.000000D+00  0.000000D+00  0.000000D+00  0.000000D+00
     10   0.000000D+00  0.000000D+00  0.000000D+00  0.000000D+00  0.000000D+00
     11   0.000000D+00  0.000000D+00  0.000000D+00  0.000000D+00  0.000000D+00
     12   0.000000D+00  0.000000D+00  0.000000D+00  0.000000D+00  0.000000D+00
     13   0.000000D+00  0.000000D+00  0.000000D+00  0.000000D+00  0.000000D+00
     14   0.000000D+00  0.000000D+00  0.000000D+00  0.000000D+00  0.000000D+00
     15   0.000000D+00  0.000000D+00  0.000000D+00  0.000000D+00  0.000000D+00
     16   0.000000D+00  0.000000D+00  0.395364D+00  0.192097D-01  0.000000D+00
               331           332           333           334           335 
      1  -0.751207D+02 -0.750897D+02 -0.750849D+02 -0.750785D+02 -0.750559D+02
      2   0.114947D+00 -0.163418D+00  0.000000D+00  0.000000D+00  0.000000D+00
      3   0.000000D+00  0.000000D+00  0.000000D+00  0.000000D+00  0.000000D+00
      4   0.000000D+00  0.000000D+00  0.656370D-01  0.000000D+00  0.000000D+00
      5  -0.230415D+00  0.382857D+00  0.000000D+00  0.000000D+00  0.000000D+00
      6   0.000000D+00  0.000000D+00  0.000000D+00  0.000000D+00  0.000000D+00
      7   0.000000D+00  0.000000D+00 -0.126060D+00  0.000000D+00  0.000000D+00
      8   0.000000D+00  0.000000D+00  0.000000D+00  0.289000D+00 -0.218313D+00
      9   0.000000D+00  0.000000D+00  0.000000D+00  0.000000D+00  0.000000D+00
     10   0.000000D+00  0.000000D+00  0.000000D+00  0.000000D+00  0.000000D+00
     11   0.000000D+00  0.000000D+00  0.000000D+00  0.000000D+00  0.000000D+00
     12   0.000000D+00  0.000000D+00  0.000000D+00  0.000000D+00  0.000000D+00
     13   0.000000D+00  0.000000D+00  0.000000D+00  0.000000D+00  0.000000D+00
     14   0.000000D+00  0.000000D+00  0.000000D+00  0.000000D+00  0.000000D+00
     15   0.000000D+00  0.000000D+00  0.000000D+00  0.000000D+00  0.000000D+00
     16   0.000000D+00  0.000000D+00  0.000000D+00 -0.159594D+00 -0.278930D+00
               336           337           338           339           340 
      1  -0.750451D+02 -0.750376D+02 -0.750150D+02 -0.749945D+02 -0.749903D+02
      2   0.000000D+00  0.000000D+00  0.000000D+00  0.000000D+00  0.000000D+00
      3   0.000000D+00  0.000000D+00  0.000000D+00 -0.853930D-01  0.000000D+00
      4  -0.210517D+00  0.000000D+00  0.000000D+00  0.000000D+00  0.000000D+00
      5   0.000000D+00  0.000000D+00  0.000000D+00  0.000000D+00  0.000000D+00
      6   0.000000D+00  0.000000D+00  0.000000D+00  0.229599D+00  0.000000D+00
      7   0.523672D+00  0.000000D+00  0.000000D+00  0.000000D+00  0.000000D+00
      8   0.000000D+00  0.000000D+00  0.000000D+00  0.000000D+00  0.000000D+00
      9   0.000000D+00  0.000000D+00  0.000000D+00  0.000000D+00  0.000000D+00
     10   0.000000D+00  0.000000D+00  0.189928D+00  0.000000D+00  0.396308D-01
     11   0.000000D+00  0.000000D+00  0.000000D+00  0.000000D+00  0.000000D+00
     12   0.000000D+00  0.000000D+00  0.000000D+00  0.000000D+00  0.000000D+00
     13   0.000000D+00  0.000000D+00  0.000000D+00  0.000000D+00  0.000000D+00
     14   0.000000D+00  0.000000D+00 -0.677230D+00  0.000000D+00  0.268588D+00
     15   0.000000D+00  0.000000D+00  0.000000D+00  0.000000D+00  0.000000D+00
     16   0.000000D+00  0.000000D+00  0.000000D+00  0.000000D+00  0.000000D+00
               341           342           343           344           345 
      1  -0.749840D+02 -0.749826D+02 -0.749665D+02 -0.749451D+02 -0.749188D+02
      2   0.000000D+00  0.000000D+00  0.000000D+00  0.000000D+00  0.000000D+00
      3   0.000000D+00  0.000000D+00  0.000000D+00  0.604849D-01  0.000000D+00
      4   0.000000D+00  0.000000D+00  0.000000D+00  0.000000D+00  0.000000D+00
      5   0.000000D+00  0.000000D+00  0.000000D+00  0.000000D+00  0.000000D+00
      6   0.000000D+00  0.000000D+00  0.000000D+00 -0.172043D+00  0.000000D+00
      7   0.000000D+00  0.000000D+00  0.000000D+00  0.000000D+00  0.000000D+00
      8   0.000000D+00  0.000000D+00  0.000000D+00  0.000000D+00  0.000000D+00
      9   0.298059D-01  0.000000D+00  0.000000D+00  0.000000D+00  0.616161D+00
     10   0.000000D+00  0.000000D+00  0.000000D+00  0.000000D+00  0.000000D+00
     11   0.000000D+00 -0.104438D+00  0.148662D-02  0.000000D+00  0.000000D+00
     12   0.000000D+00 -0.866295D+00  0.238217D+00  0.000000D+00  0.000000D+00
     13   0.000000D+00  0.113155D+01  0.118893D+01  0.000000D+00  0.000000D+00
     14   0.000000D+00  0.000000D+00  0.000000D+00  0.000000D+00  0.000000D+00
     15  -0.374419D+00  0.000000D+00  0.000000D+00  0.000000D+00  0.109647D+01
     16   0.000000D+00  0.000000D+00  0.000000D+00  0.000000D+00  0.000000D+00
               346           347           348           349           350 
      1  -0.749004D+02 -0.748959D+02 -0.748563D+02 -0.748324D+02 -0.748193D+02
      2   0.000000D+00  0.000000D+00  0.000000D+00  0.000000D+00  0.000000D+00
      3   0.000000D+00  0.000000D+00  0.000000D+00  0.000000D+00  0.000000D+00
      4   0.000000D+00  0.000000D+00 -0.181265D-03  0.000000D+00 -0.100112D+00
      5   0.000000D+00  0.000000D+00  0.000000D+00  0.000000D+00  0.000000D+00
      6   0.000000D+00  0.000000D+00  0.000000D+00  0.000000D+00  0.000000D+00
      7   0.000000D+00  0.000000D+00  0.120483D-01  0.000000D+00  0.233652D+00
      8   0.000000D+00  0.000000D+00  0.000000D+00 -0.312267D+00  0.000000D+00
      9   0.000000D+00  0.000000D+00  0.000000D+00  0.000000D+00  0.000000D+00
     10   0.000000D+00  0.182123D+00  0.000000D+00  0.000000D+00  0.000000D+00
     11   0.000000D+00  0.000000D+00  0.000000D+00  0.000000D+00  0.000000D+00
     12   0.000000D+00  0.000000D+00  0.000000D+00  0.000000D+00  0.000000D+00
     13   0.000000D+00  0.000000D+00  0.000000D+00  0.000000D+00  0.000000D+00
     14   0.000000D+00 -0.278953D+00  0.000000D+00  0.000000D+00  0.000000D+00
     15   0.000000D+00  0.000000D+00  0.000000D+00  0.000000D+00  0.000000D+00
     16   0.000000D+00  0.000000D+00  0.000000D+00 -0.538760D-01  0.000000D+00
               351           352           353           354           355 
      1  -0.748032D+02 -0.747968D+02 -0.747473D+02 -0.747278D+02 -0.747254D+02
      2   0.149896D+00 -0.860520D-01  0.000000D+00  0.000000D+00  0.000000D+00
      3   0.000000D+00  0.000000D+00  0.000000D+00  0.000000D+00  0.000000D+00
      4   0.000000D+00  0.000000D+00  0.000000D+00  0.000000D+00  0.000000D+00
      5  -0.348993D+00  0.213365D+00  0.000000D+00  0.000000D+00  0.000000D+00
      6   0.000000D+00  0.000000D+00  0.000000D+00  0.000000D+00  0.000000D+00
      7   0.000000D+00  0.000000D+00  0.000000D+00  0.000000D+00  0.000000D+00
      8   0.000000D+00  0.000000D+00 -0.230871D+00  0.000000D+00  0.000000D+00
      9   0.000000D+00  0.000000D+00  0.000000D+00  0.000000D+00  0.000000D+00
     10   0.000000D+00  0.000000D+00  0.000000D+00 -0.350299D-01  0.000000D+00
     11   0.000000D+00  0.000000D+00  0.000000D+00  0.000000D+00  0.000000D+00
     12   0.000000D+00  0.000000D+00  0.000000D+00  0.000000D+00  0.000000D+00
     13   0.000000D+00  0.000000D+00  0.000000D+00  0.000000D+00  0.000000D+00
     14   0.000000D+00  0.000000D+00  0.000000D+00 -0.283103D+00  0.000000D+00
     15   0.000000D+00  0.000000D+00  0.000000D+00  0.000000D+00  0.000000D+00
     16   0.000000D+00  0.000000D+00  0.435478D+00  0.000000D+00  0.000000D+00
               356           357           358           359           360 
      1  -0.746863D+02 -0.746638D+02 -0.746614D+02 -0.746575D+02 -0.746323D+02
      2   0.000000D+00  0.000000D+00  0.000000D+00  0.000000D+00  0.000000D+00
      3   0.000000D+00  0.000000D+00  0.000000D+00  0.000000D+00  0.000000D+00
      4   0.000000D+00  0.000000D+00  0.114514D+00  0.000000D+00  0.000000D+00
      5   0.000000D+00  0.000000D+00  0.000000D+00  0.000000D+00  0.000000D+00
      6   0.000000D+00  0.000000D+00  0.000000D+00  0.000000D+00  0.000000D+00
      7   0.000000D+00  0.000000D+00 -0.303131D+00  0.000000D+00  0.000000D+00
      8   0.000000D+00  0.000000D+00  0.000000D+00  0.000000D+00  0.000000D+00
      9   0.000000D+00  0.000000D+00  0.000000D+00 -0.564255D+00 -0.197931D+00
     10   0.000000D+00  0.000000D+00  0.000000D+00  0.000000D+00  0.000000D+00
     11  -0.158942D+00  0.403009D-01  0.000000D+00  0.000000D+00  0.000000D+00
     12   0.409803D+00  0.874828D-02  0.000000D+00  0.000000D+00  0.000000D+00
     13  -0.758834D+00 -0.694433D+00  0.000000D+00  0.000000D+00  0.000000D+00
     14   0.000000D+00  0.000000D+00  0.000000D+00  0.000000D+00  0.000000D+00
     15   0.000000D+00  0.000000D+00  0.000000D+00 -0.756800D+00 -0.251981D+00
     16   0.000000D+00  0.000000D+00  0.000000D+00  0.000000D+00  0.000000D+00
               361           362           363           364           365 
      1  -0.746294D+02 -0.746031D+02 -0.745911D+02 -0.745433D+02 -0.745405D+02
      2   0.000000D+00  0.000000D+00  0.000000D+00  0.000000D+00  0.000000D+00
      3  -0.661040D-01  0.269584D-01  0.180367D+00  0.000000D+00  0.000000D+00
      4   0.000000D+00  0.000000D+00  0.000000D+00  0.000000D+00  0.309680D-01
      5   0.000000D+00  0.000000D+00  0.000000D+00  0.000000D+00  0.000000D+00
      6   0.147085D+00 -0.106691D+00 -0.463536D+00  0.000000D+00  0.000000D+00
      7   0.000000D+00  0.000000D+00  0.000000D+00  0.000000D+00 -0.971744D-01
      8   0.000000D+00  0.000000D+00  0.000000D+00  0.000000D+00  0.000000D+00
      9   0.000000D+00  0.000000D+00  0.000000D+00  0.000000D+00  0.000000D+00
     10   0.000000D+00  0.000000D+00  0.000000D+00  0.000000D+00  0.000000D+00
     11   0.000000D+00  0.000000D+00  0.000000D+00 -0.222836D+00  0.000000D+00
     12   0.000000D+00  0.000000D+00  0.000000D+00 -0.848175D-01  0.000000D+00
     13   0.000000D+00  0.000000D+00  0.000000D+00 -0.693862D+00  0.000000D+00
     14   0.000000D+00  0.000000D+00  0.000000D+00  0.000000D+00  0.000000D+00
     15   0.000000D+00  0.000000D+00  0.000000D+00  0.000000D+00  0.000000D+00
     16   0.000000D+00  0.000000D+00  0.000000D+00  0.000000D+00  0.000000D+00
               366           367           368           369           370 
      1  -0.745045D+02 -0.744895D+02 -0.744653D+02 -0.744018D+02 -0.743895D+02
      2   0.000000D+00  0.000000D+00  0.000000D+00  0.000000D+00  0.000000D+00
      3   0.000000D+00  0.000000D+00  0.000000D+00  0.000000D+00  0.000000D+00
      4  -0.139647D+00  0.000000D+00  0.000000D+00  0.000000D+00  0.000000D+00
      5   0.000000D+00  0.000000D+00  0.000000D+00  0.000000D+00  0.000000D+00
      6   0.000000D+00  0.000000D+00  0.000000D+00  0.000000D+00  0.000000D+00
      7   0.363750D+00  0.000000D+00  0.000000D+00  0.000000D+00  0.000000D+00
      8   0.000000D+00  0.716446D-01 -0.201164D+00  0.000000D+00  0.000000D+00
      9   0.000000D+00  0.000000D+00  0.000000D+00 -0.408284D+00  0.000000D+00
     10   0.000000D+00  0.000000D+00  0.000000D+00  0.000000D+00  0.000000D+00
     11   0.000000D+00  0.000000D+00  0.000000D+00  0.000000D+00 -0.315803D+00
     12   0.000000D+00  0.000000D+00  0.000000D+00  0.000000D+00  0.195145D+00
     13   0.000000D+00  0.000000D+00  0.000000D+00  0.000000D+00  0.104833D+01
     14   0.000000D+00  0.000000D+00  0.000000D+00  0.000000D+00  0.000000D+00
     15   0.000000D+00  0.000000D+00  0.000000D+00 -0.375149D+00  0.000000D+00
     16   0.000000D+00 -0.316508D+00 -0.102423D-02  0.000000D+00  0.000000D+00
               371           372           373           374           375 
      1  -0.743694D+02 -0.743424D+02 -0.742863D+02 -0.742740D+02 -0.742272D+02
      2   0.000000D+00  0.000000D+00  0.000000D+00  0.000000D+00  0.000000D+00
      3   0.000000D+00 -0.915395D-01 -0.189953D+00  0.000000D+00  0.000000D+00
      4   0.000000D+00  0.000000D+00  0.000000D+00  0.523449D-01  0.000000D+00
      5   0.000000D+00  0.000000D+00  0.000000D+00  0.000000D+00  0.000000D+00
      6   0.000000D+00  0.277367D+00  0.543534D+00  0.000000D+00  0.000000D+00
      7   0.000000D+00  0.000000D+00  0.000000D+00 -0.175613D+00  0.000000D+00
      8   0.000000D+00  0.000000D+00  0.000000D+00  0.000000D+00 -0.249766D+00
      9   0.000000D+00  0.000000D+00  0.000000D+00  0.000000D+00  0.000000D+00
     10   0.000000D+00  0.000000D+00  0.000000D+00  0.000000D+00  0.000000D+00
     11  -0.252079D+00  0.000000D+00  0.000000D+00  0.000000D+00  0.000000D+00
     12   0.333172D+00  0.000000D+00  0.000000D+00  0.000000D+00  0.000000D+00
     13  -0.233843D+00  0.000000D+00  0.000000D+00  0.000000D+00  0.000000D+00
     14   0.000000D+00  0.000000D+00  0.000000D+00  0.000000D+00  0.000000D+00
     15   0.000000D+00  0.000000D+00  0.000000D+00  0.000000D+00  0.000000D+00
     16   0.000000D+00  0.000000D+00  0.000000D+00  0.000000D+00  0.486242D+00
               376           377           378           379           380 
      1  -0.742114D+02 -0.741691D+02 -0.741367D+02 -0.741013D+02 -0.740351D+02
      2   0.000000D+00  0.000000D+00  0.000000D+00  0.000000D+00  0.000000D+00
      3   0.000000D+00  0.000000D+00  0.000000D+00  0.000000D+00  0.000000D+00
      4  -0.425285D-01  0.000000D+00  0.000000D+00  0.000000D+00  0.000000D+00
      5   0.000000D+00  0.000000D+00  0.000000D+00  0.000000D+00  0.000000D+00
      6   0.000000D+00  0.000000D+00  0.000000D+00  0.000000D+00  0.000000D+00
      7   0.122525D+00  0.000000D+00  0.000000D+00  0.000000D+00  0.000000D+00
      8   0.000000D+00  0.000000D+00  0.000000D+00  0.000000D+00  0.624123D+00
      9   0.000000D+00  0.000000D+00  0.000000D+00  0.000000D+00  0.000000D+00
     10   0.000000D+00  0.000000D+00  0.000000D+00  0.000000D+00  0.000000D+00
     11   0.000000D+00  0.000000D+00 -0.830753D-01 -0.165479D+00  0.000000D+00
     12   0.000000D+00  0.000000D+00 -0.583204D-02 -0.908807D-01  0.000000D+00
     13   0.000000D+00  0.000000D+00 -0.525739D+00 -0.594170D+00  0.000000D+00
     14   0.000000D+00  0.000000D+00  0.000000D+00  0.000000D+00  0.000000D+00
     15   0.000000D+00  0.000000D+00  0.000000D+00  0.000000D+00  0.000000D+00
     16   0.000000D+00  0.000000D+00  0.000000D+00  0.000000D+00 -0.747732D+00
               381           382           383           384 
      1  -0.739894D+02 -0.739725D+02 -0.739037D+02 -0.737361D+02
      2   0.000000D+00  0.000000D+00  0.000000D+00  0.000000D+00
      3   0.000000D+00  0.000000D+00 -0.658363D-02  0.000000D+00
      4   0.933543D-01  0.707045D-01  0.000000D+00  0.000000D+00
      5   0.000000D+00  0.000000D+00  0.000000D+00  0.000000D+00
      6   0.000000D+00  0.000000D+00 -0.387526D-05  0.000000D+00
      7  -0.319039D+00 -0.217407D+00  0.000000D+00  0.000000D+00
      8   0.000000D+00  0.000000D+00  0.000000D+00 -0.381353D+00
      9   0.000000D+00  0.000000D+00  0.000000D+00  0.000000D+00
     10   0.000000D+00  0.000000D+00  0.000000D+00  0.000000D+00
     11   0.000000D+00  0.000000D+00  0.000000D+00  0.000000D+00
     12   0.000000D+00  0.000000D+00  0.000000D+00  0.000000D+00
     13   0.000000D+00  0.000000D+00  0.000000D+00  0.000000D+00
     14   0.000000D+00  0.000000D+00  0.000000D+00  0.000000D+00
     15   0.000000D+00  0.000000D+00  0.000000D+00  0.000000D+00
     16   0.000000D+00  0.000000D+00  0.000000D+00  0.438164D+00
 Unable to Open any file for archive entry.
 1\1\GINC-HEL12\SP\RSVWN5 TD-FC\Gen\C2H4\SABYASACHI\21-Mar-2022\0\\#P T
 D(Nstates=10000) svwn5/Gen SCF(maxcycles=100) Int(Grid=ultrafine)\\xGD
 B7_00001_tier4.com\\0,1\C,0,0.,0.,0.660866\C,0,0.,0.,-0.660866\H,0,0.,
 0.922586,1.229258\H,0,0.,-0.922586,1.229258\H,0,0.,0.922586,-1.229258\
 H,0,0.,-0.922586,-1.229258\\Version=EM64L-G16RevC.01\State=1-AG\HF=-77
 .77015\RMSD=9.207e-09\PG=D02H [C2"(C1.C1),SG(H4)]\\@
 The archive entry for this job was punched.


 ...THE PHYSICISTS HAVE MADE THEIR UNIVERSE, AND IF YOU DO NOT LIKE
 IT, YOU MUST MAKE YOUR OWN.
                               -- E. R. HARRISON IN "COSMOLOGY" (1980)
 Job cpu time:       0 days  0 hours  0 minutes 32.6 seconds.
 Elapsed time:       0 days  0 hours  0 minutes  4.4 seconds.
 File lengths (MBytes):  RWF=     77 Int=      0 D2E=      0 Chk=     49 Scr=      1
 Normal termination of Gaussian 16 at Mon Mar 21 19:55:10 2022.
