
                                        *****************
                                        * O   R   C   A *
                                        *****************

                                            #,                                       
                                            ###                                      
                                            ####                                     
                                            #####                                    
                                            ######                                   
                                           ########,                                 
                                     ,,################,,,,,                         
                               ,,#################################,,                 
                          ,,##########################################,,             
                       ,#########################################, ''#####,          
                    ,#############################################,,   '####,        
                  ,##################################################,,,,####,       
                ,###########''''           ''''###############################       
              ,#####''   ,,,,##########,,,,          '''####'''          '####       
            ,##' ,,,,###########################,,,                        '##       
           ' ,,###''''                  '''############,,,                           
         ,,##''                                '''############,,,,        ,,,,,,###''
      ,#''                                            '''#######################'''  
     '                                                          ''''####''''         
             ,#######,   #######,   ,#######,      ##                                
            ,#'     '#,  ##    ##  ,#'     '#,    #''#        ######   ,####,        
            ##       ##  ##   ,#'  ##            #'  '#       #        #'  '#        
            ##       ##  #######   ##           ,######,      #####,   #    #        
            '#,     ,#'  ##    ##  '#,     ,#' ,#      #,         ##   #,  ,#        
             '#######'   ##     ##  '#######'  #'      '#     #####' # '####'        



                  #######################################################
                  #                        -***-                        #
                  #          Department of theory and spectroscopy      #
                  #    Directorship and core code : Frank Neese         #
                  #        Max Planck Institute fuer Kohlenforschung    #
                  #                Kaiser Wilhelm Platz 1               #
                  #                 D-45470 Muelheim/Ruhr               #
                  #                      Germany                        #
                  #                                                     #
                  #                  All rights reserved                #
                  #                        -***-                        #
                  #######################################################


                         Program Version 5.0.0 -  RELEASE  -
                                (SVN: $Rev: 19529$)
                ($Date: 2021-06-28 11:36:33 +0200 (Mo, 28 Jun 2021) $)


 With contributions from (in alphabetic order):
   Daniel Aravena         : Magnetic Suceptibility
   Michael Atanasov       : Ab Initio Ligand Field Theory (pilot matlab implementation)
   Alexander A. Auer      : GIAO ZORA, VPT2 properties, NMR spectrum
   Ute Becker             : Parallelization
   Giovanni Bistoni       : ED, misc. LED, open-shell LED, HFLD
   Martin Brehm           : Molecular dynamics
   Dmytro Bykov           : SCF Hessian
   Vijay G. Chilkuri      : MRCI spin determinant printing, contributions to CSF-ICE
   Dipayan Datta          : RHF DLPNO-CCSD density
   Achintya Kumar Dutta   : EOM-CC, STEOM-CC
   Dmitry Ganyushin       : Spin-Orbit,Spin-Spin,Magnetic field MRCI
   Miquel Garcia          : C-PCM Hessian, Gaussian charge scheme
   Yang Guo               : DLPNO-NEVPT2, F12-NEVPT2, CIM, IAO-localization
   Andreas Hansen         : Spin unrestricted coupled pair/coupled cluster methods
   Benjamin Helmich-Paris : MC-RPA, TRAH-SCF, COSX integrals
   Lee Huntington         : MR-EOM, pCC
   Robert Izsak           : Overlap fitted RIJCOSX, COSX-SCS-MP3, EOM
   Marcus Kettner         : VPT2
   Christian Kollmar      : KDIIS, OOCD, Brueckner-CCSD(T), CCSD density, CASPT2, CASPT2-K
   Simone Kossmann        : Meta GGA functionals, TD-DFT gradient, OOMP2, MP2 Hessian
   Martin Krupicka        : Initial AUTO-CI
   Lucas Lang             : DCDCAS
   Marvin Lechner         : AUTO-CI (C++ implementation), FIC-MRCC
   Dagmar Lenk            : GEPOL surface, SMD
   Dimitrios Liakos       : Extrapolation schemes; Compound Job, initial MDCI parallelization
   Dimitrios Manganas     : Further ROCIS development; embedding schemes
   Dimitrios Pantazis     : SARC Basis sets
   Anastasios Papadopoulos: AUTO-CI, single reference methods and gradients
   Taras Petrenko         : DFT Hessian,TD-DFT gradient, ASA, ECA, R-Raman, ABS, FL, XAS/XES, NRVS
   Peter Pinski           : DLPNO-MP2, DLPNO-MP2 Gradient
   Christoph Reimann      : Effective Core Potentials
   Marius Retegan         : Local ZFS, SOC
   Christoph Riplinger    : Optimizer, TS searches, QM/MM, DLPNO-CCSD(T), (RO)-DLPNO pert. Triples
   Tobias Risthaus        : Range-separated hybrids, TD-DFT gradient, RPA, STAB
   Michael Roemelt        : Original ROCIS implementation
   Masaaki Saitow         : Open-shell DLPNO-CCSD energy and density
   Barbara Sandhoefer     : DKH picture change effects
   Avijit Sen             : IP-ROCIS
   Kantharuban Sivalingam : CASSCF convergence, NEVPT2, FIC-MRCI
   Bernardo de Souza      : ESD, SOC TD-DFT
   Georgi Stoychev        : AutoAux, RI-MP2 NMR
   Willem Van den Heuvel  : Paramagnetic NMR
   Boris Wezisla          : Elementary symmetry handling
   Frank Wennmohs         : Technical directorship


 We gratefully acknowledge several colleagues who have allowed us to
 interface, adapt or use parts of their codes:
   Stefan Grimme, W. Hujo, H. Kruse, P. Pracht,  : VdW corrections, initial TS optimization,
                  C. Bannwarth, S. Ehlert          DFT functionals, gCP, sTDA/sTD-DF
   Ed Valeev, F. Pavosevic, A. Kumar             : LibInt (2-el integral package), F12 methods
   Garnet Chan, S. Sharma, J. Yang, R. Olivares  : DMRG
   Ulf Ekstrom                                   : XCFun DFT Library
   Mihaly Kallay                                 : mrcc  (arbitrary order and MRCC methods)
   Jiri Pittner, Ondrej Demel                    : Mk-CCSD
   Frank Weinhold                                : gennbo (NPA and NBO analysis)
   Christopher J. Cramer and Donald G. Truhlar   : smd solvation model
   Lars Goerigk                                  : TD-DFT with DH, B97 family of functionals
   V. Asgeirsson, H. Jonsson                     : NEB implementation
   FAccTs GmbH                                   : IRC, NEB, NEB-TS, DLPNO-Multilevel, CI-OPT
                                                   MM, QMMM, 2- and 3-layer-ONIOM, Crystal-QMMM,
                                                   LR-CPCM, SF, NACMEs, symmetry and pop. for TD-DFT,
                                                   nearIR, NL-DFT gradient (VV10), updates on ESD,
                                                   ML-optimized integration grids
   S Lehtola, MJT Oliveira, MAL Marques          : LibXC Library
   Liviu Ungur et al                             : ANISO software


 Your calculation uses the libint2 library for the computation of 2-el integrals
 For citations please refer to: http://libint.valeyev.net

 Your ORCA version has been built with support for libXC version: 5.1.0
 For citations please refer to: https://tddft.org/programs/libxc/

 This ORCA versions uses:
   CBLAS   interface :  Fast vector & matrix operations
   LAPACKE interface :  Fast linear algebra routines
   SCALAPACK package :  Parallel linear algebra routines
   Shared memory     :  Shared parallel matrices
   BLAS/LAPACK       :  OpenBLAS 0.3.15  USE64BITINT DYNAMIC_ARCH NO_AFFINITY Haswell SINGLE_THREADED
        Core in use  :  Haswell
   Copyright (c) 2011-2014, The OpenBLAS Project




***************************************
The coordinates will be read from file: 000005.xyz
***************************************


================================================================================

----- Orbital basis set information -----
Your calculation utilizes the basis: aug-cc-pVTZ 
    H, B-Ne : Obtained from the ccRepo (grant-hill.group.shef.ac.uk/ccrepo) Feb. 2017
              R. A. Kendall, T. H. Dunning, Jr., R. J. Harrison, J. Chem. Phys. 96, 6796 (1992)
         He : Obtained from the ccRepo (grant-hill.group.shef.ac.uk/ccrepo) Feb. 2017
              D. E. Woon, T. H. Dunning, Jr., J. Chem. Phys. 100, 2975 (1994)
  Li-Be, Na : Obtained from the ccRepo (grant-hill.group.shef.ac.uk/ccrepo) Feb. 2017
              B. P. Prascher, D. E. Woon, K. A. Peterson, T. H. Dunning, Jr., A. K. Wilson, Theor. Chem. Acc. 128, 69 (2011)
         Mg : Obtained from the Peterson Research Group Website (tyr0.chem.wsu.edu/~kipeters) Feb. 2017
              B. P. Prascher, D. E. Woon, K. A. Peterson, T. H. Dunning, Jr., A. K. Wilson, Theor. Chem. Acc. 128, 69 (2011)
      Al-Ar : Obtained from the ccRepo (grant-hill.group.shef.ac.uk/ccrepo) Feb. 2017
              D. E. Woon, T. H. Dunning, Jr., J. Chem. Phys. 98, 1358 (1993)
      Sc-Zn : Obtained from the ccRepo (grant-hill.group.shef.ac.uk/ccrepo) Feb. 2017
              N. B. Balabanov, K. A. Peterson, J. Chem. Phys. 123, 064107 (2005)
              N. B. Balabanov, K. A. Peterson, J. Chem. Phys. 125, 074110 (2006)
      Ga-Kr : Obtained from the ccRepo (grant-hill.group.shef.ac.uk/ccrepo) Feb. 2017
              A. K. Wilson, D. E. Woon, K. A. Peterson, T. H. Dunning, Jr., J. Chem. Phys. 110, 7667 (1999)
     Ag, Au : Obtained from the Peterson Research Group Website (tyr0.chem.wsu.edu/~kipeters) Feb. 2017
              K. A. Peterson, C. Puzzarini, Theor. Chem. Acc. 114, 283 (2005)

----- AuxJ basis set information -----
Your calculation utilizes the auxiliary basis: def2/J
   F. Weigend, Phys. Chem. Chem. Phys. 8, 1057 (2006).

----- AuxC basis set information -----
Your calculation utilizes the auxiliary basis: aug-cc-pVTZ/C 
  H-He, B-F, Al-Ar, Ga-Kr : Obtained from the EMSL Basis Set Exchange (bse.pnl.gov) Feb. 2017
                            F. Weigend, A. Kohn, C. Hattig, J. Chem. Phys. 116, 3175 (2002)
                   Be, Mg : Obtained from the TURBOMOLE 7.0 basis set library
                            C. Haettig, Phys. Chem. Chem. Phys. 7, 59 (2005)
                       Ne : Obtained from the EMSL Basis Set Exchange (bse.pnl.gov) Feb. 2017
                            C. Haettig, Phys. Chem. Chem. Phys. 7, 59 (2005)
                            F. Weigend, A. Kohn, C. Hattig, J. Chem. Phys. 116, 3175 (2002)
                    Sc-Zn : Obtained from the EMSL Basis Set Exchange (bse.pnl.gov) Feb. 2017
                            J. G. Hill, J. A. Platts, J. Chem. Phys. 128, 044104 (2008)

================================================================================
                                        WARNINGS
                       Please study these warnings very carefully!
================================================================================


WARNING: Post HF methods need fully converged wavefunctions
  ===> : Setting SCFConvForced true
         You can overwrite this default with %scf ConvForced false 


WARNING: MDCI localization with Augmented Hessian Foster-Boys
  ===> : Switching off randomization!

INFO   : the flag for use of the SHARK integral package has been found!

================================================================================
                                       INPUT FILE
================================================================================
NAME = 000005.com
|  1> !STEOM-DLPNO-CCSD aug-cc-pVTZ aug-cc-pVTZ/C def2/J TightSCF PrintMOs
|  2> 
|  3> *xyzfile 0 1 000005.xyz
|  4> 
|  5> %MaxCore 64000
|  6> %scf
|  7>  MaxIter 150
|  8> end
|  9> 
| 10> %pal nprocs 8
| 11> end
| 12> 
| 13> %mdci
| 14>  nroots 10
| 15>  DoRootwise true
| 16> end
| 17> 
| 18>                          ****END OF INPUT****
================================================================================

                       ****************************
                       * Single Point Calculation *
                       ****************************

---------------------------------
CARTESIAN COORDINATES (ANGSTROEM)
---------------------------------
  C      0.000000    0.000000    0.761397
  C     -0.000000   -0.000000   -0.761397
  H      0.000000    1.017110    1.157248
  H      0.880843   -0.508555    1.157248
  H     -0.880843   -0.508555    1.157248
  H      0.880843    0.508555   -1.157248
  H     -0.880843    0.508555   -1.157248
  H     -0.000000   -1.017110   -1.157248

----------------------------
CARTESIAN COORDINATES (A.U.)
----------------------------
  NO LB      ZA    FRAG     MASS         X           Y           Z
   0 C     6.0000    0    12.011    0.000000    0.000000    1.438832
   1 C     6.0000    0    12.011   -0.000000   -0.000000   -1.438832
   2 H     1.0000    0     1.008    0.000000    1.922059    2.186882
   3 H     1.0000    0     1.008    1.664552   -0.961030    2.186882
   4 H     1.0000    0     1.008   -1.664552   -0.961030    2.186882
   5 H     1.0000    0     1.008    1.664552    0.961030   -2.186882
   6 H     1.0000    0     1.008   -1.664552    0.961030   -2.186882
   7 H     1.0000    0     1.008   -0.000000   -1.922059   -2.186882

--------------------------------
INTERNAL COORDINATES (ANGSTROEM)
--------------------------------
 C      0   0   0     0.000000000000     0.00000000     0.00000000
 C      1   0   0     1.522794000000     0.00000000     0.00000000
 H      1   2   0     1.091426024200   111.26558582     0.00000000
 H      1   2   3     1.091425944751   111.26558744   239.99999723
 H      1   2   3     1.091425944751   111.26558744   120.00000277
 H      2   1   3     1.091425944751   111.26558744    59.99999723
 H      2   1   3     1.091425944751   111.26558744   300.00000277
 H      2   1   3     1.091426024200   111.26558582   180.00000000

---------------------------
INTERNAL COORDINATES (A.U.)
---------------------------
 C      0   0   0     0.000000000000     0.00000000     0.00000000
 C      1   0   0     2.877663618378     0.00000000     0.00000000
 H      1   2   0     2.062496281172   111.26558582     0.00000000
 H      1   2   3     2.062496131035   111.26558744   239.99999723
 H      1   2   3     2.062496131035   111.26558744   120.00000277
 H      2   1   3     2.062496131035   111.26558744    59.99999723
 H      2   1   3     2.062496131035   111.26558744   300.00000277
 H      2   1   3     2.062496281172   111.26558582   180.00000000

---------------------
BASIS SET INFORMATION
---------------------
There are 2 groups of distinct atoms

 Group   1 Type C   : 19s6p3d2f contracted to 5s4p3d2f pattern {88111/3111/111/11}
 Group   2 Type H   : 6s3p2d contracted to 4s3p2d pattern {3111/111/11}

Atom   0C    basis set group =>   1
Atom   1C    basis set group =>   1
Atom   2H    basis set group =>   2
Atom   3H    basis set group =>   2
Atom   4H    basis set group =>   2
Atom   5H    basis set group =>   2
Atom   6H    basis set group =>   2
Atom   7H    basis set group =>   2
---------------------------------
AUXILIARY/J BASIS SET INFORMATION
---------------------------------
There are 2 groups of distinct atoms

 Group   1 Type C   : 12s5p4d2f1g contracted to 6s4p3d1f1g pattern {711111/2111/211/2/1}
 Group   2 Type H   : 5s2p1d contracted to 3s1p1d pattern {311/2/1}

Atom   0C    basis set group =>   1
Atom   1C    basis set group =>   1
Atom   2H    basis set group =>   2
Atom   3H    basis set group =>   2
Atom   4H    basis set group =>   2
Atom   5H    basis set group =>   2
Atom   6H    basis set group =>   2
Atom   7H    basis set group =>   2
---------------------------------
AUXILIARY/C BASIS SET INFORMATION
---------------------------------
There are 2 groups of distinct atoms

 Group   1 Type C   : 9s7p6d4f2g contracted to 9s7p6d4f2g pattern {111111111/1111111/111111/1111/11}
 Group   2 Type H   : 5s4p3d2f contracted to 5s4p3d2f pattern {11111/1111/111/11}

Atom   0C    basis set group =>   1
Atom   1C    basis set group =>   1
Atom   2H    basis set group =>   2
Atom   3H    basis set group =>   2
Atom   4H    basis set group =>   2
Atom   5H    basis set group =>   2
Atom   6H    basis set group =>   2
Atom   7H    basis set group =>   2


           ************************************************************
           *        Program running with 8 parallel MPI-processes     *
           *              working on a common directory               *
           ************************************************************
------------------------------------------------------------------------------
                           ORCA GTO INTEGRAL CALCULATION
------------------------------------------------------------------------------
------------------------------------------------------------------------------
                   ___                                                        
                  /   \      - P O W E R E D   B Y -                         
                 /     \                                                     
                 |  |  |   _    _      __       _____    __    __             
                 |  |  |  | |  | |    /  \     |  _  \  |  |  /  |          
                  \  \/   | |  | |   /    \    | | | |  |  | /  /          
                 / \  \   | |__| |  /  /\  \   | |_| |  |  |/  /          
                |  |  |   |  __  | /  /__\  \  |    /   |      \           
                |  |  |   | |  | | |   __   |  |    \   |  |\   \          
                \     /   | |  | | |  |  |  |  | |\  \  |  | \   \       
                 \___/    |_|  |_| |__|  |__|  |_| \__\ |__|  \__/        
                                                                              
                      - O R C A' S   B I G   F R I E N D -                    
                                      &                                       
                       - I N T E G R A L  F E E D E R -                       
                                                                              
 v1 FN, 2020, v2 2021                                                         
------------------------------------------------------------------------------


Reading SHARK input file 000005.SHARKINP.tmp ... ok
----------------------
SHARK INTEGRAL PACKAGE
----------------------

Number of atoms                             ...      8
Number of basis functions                   ...    230
Number of shells                            ...     82
Maximum angular momentum                    ...      3
Integral batch strategy                     ... SHARK/LIBINT Hybrid
RI-J (if used) integral strategy            ... SPLIT-RIJ (Revised 2003 algorithm where possible)
Printlevel                                  ...      1
Contraction scheme used                     ... SEGMENTED contraction
Coulomb Range Separation                    ... NOT USED
Exchange Range Separation                   ... NOT USED
Finite Nucleus Model                        ... NOT USED
Auxiliary Coulomb fitting basis             ... AVAILABLE
   # of basis functions in Aux-J            ...    164
   # of shells in Aux-J                     ...     60
   Maximum angular momentum in Aux-J        ...      4
Auxiliary J/K fitting basis                 ... NOT available
Auxiliary Correlation fitting basis         ... AVAILABLE
   # of basis functions in Aux-C            ...    488
   # of shells in Aux-C                     ...    140
   Maximum angular momentum in Aux-C        ...      4
Auxiliary 'external' fitting basis          ... NOT available
Integral threshold                          ...     2.500000e-11
Primitive cut-off                           ...     2.500000e-12
Primitive pair pre-selection threshold      ...     2.500000e-12

Calculating pre-screening integrals         ... done (  0.1 sec) Dimension = 82
Organizing shell pair data                  ... done (  1.1 sec)
Shell pair information
Total number of shell pairs                 ...      3403
Shell pairs after pre-screening             ...      3403
Total number of primitive shell pairs       ...      8137
Primitive shell pairs kept                  ...      7564
          la=0 lb=0:    595 shell pairs
          la=1 lb=0:    884 shell pairs
          la=1 lb=1:    351 shell pairs
          la=2 lb=0:    612 shell pairs
          la=2 lb=1:    468 shell pairs
          la=2 lb=2:    171 shell pairs
          la=3 lb=0:    136 shell pairs
          la=3 lb=1:    104 shell pairs
          la=3 lb=2:     72 shell pairs
          la=3 lb=3:     10 shell pairs

Calculating one electron integrals          ... done (  0.0 sec)
Calculating RI/J V-Matrix + Cholesky decomp.... done (  0.1 sec)
Calculating RI/C V-Matrix + Cholesky decomp.... done (  0.8 sec)
Calculating Nuclear repulsion               ... done (  0.0 sec) ENN=     42.310745549658 Eh

SHARK setup successfully completed in   2.4 seconds

Maximum memory used throughout the entire GTOINT-calculation: 17.4 MB


           ************************************************************
           *        Program running with 8 parallel MPI-processes     *
           *              working on a common directory               *
           ************************************************************
-------------------------------------------------------------------------------
                                 ORCA SCF
-------------------------------------------------------------------------------

------------
SCF SETTINGS
------------
Hamiltonian:
 Ab initio Hamiltonian  Method          .... Hartree-Fock(GTOs)


General Settings:
 Integral files         IntName         .... 000005
 Hartree-Fock type      HFTyp           .... RHF
 Total Charge           Charge          ....    0
 Multiplicity           Mult            ....    1
 Number of Electrons    NEL             ....   18
 Basis Dimension        Dim             ....  230
 Nuclear Repulsion      ENuc            ....     42.3107455497 Eh

Convergence Acceleration:
 DIIS                   CNVDIIS         .... on
   Start iteration      DIISMaxIt       ....    12
   Startup error        DIISStart       ....  0.200000
   # of expansion vecs  DIISMaxEq       ....     5
   Bias factor          DIISBfac        ....   1.050
   Max. coefficient     DIISMaxC        ....  10.000
 Trust-Rad. Augm. Hess. CNVTRAH         .... auto
   Auto Start mean grad. ratio tolernc. ....  1.125000
   Auto Start start iteration           ....    20
   Auto Start num. interpolation iter.  ....    10
   Max. Number of Micro iterations      ....    16
   Max. Number of Macro iterations      .... Maxiter - #DIIS iter
   Number of Davidson start vectors     ....     2
   Converg. threshold I  (grad. norm)   ....   1.000e-05
   Converg. threshold II (energy diff.) ....   1.000e-08
   Grad. Scal. Fac. for Micro threshold ....   0.100
   Minimum threshold for Micro iter.    ....   0.010
   NR start threshold (gradient norm)   ....   0.001
   Initial trust radius                 ....   0.400
   Minimum AH scaling param. (alpha)    ....   1.000
   Maximum AH scaling param. (alpha)    .... 1000.000
   Orbital update algorithm             .... Taylor
   White noise on init. David. guess    .... on
   Maximum white noise                  ....   0.010
   Quad. conv. algorithm                .... NR
 SOSCF                  CNVSOSCF        .... on
   Start iteration      SOSCFMaxIt      ....   150
   Startup grad/error   SOSCFStart      ....  0.003300
 Level Shifting         CNVShift        .... on
   Level shift para.    LevelShift      ....    0.2500
   Turn off err/grad.   ShiftErr        ....    0.0010
 Zerner damping         CNVZerner       .... off
 Static damping         CNVDamp         .... on
   Fraction old density DampFac         ....    0.7000
   Max. Damping (<1)    DampMax         ....    0.9800
   Min. Damping (>=0)   DampMin         ....    0.0000
   Turn off err/grad.   DampErr         ....    0.1000
 Fernandez-Rico         CNVRico         .... off

SCF Procedure:
 Maximum # iterations   MaxIter         ....   150
 SCF integral mode      SCFMode         .... Direct
   Integral package                     .... SHARK and LIBINT hybrid scheme
 Reset frequency        DirectResetFreq ....    20
 Integral Threshold     Thresh          ....  2.500e-11 Eh
 Primitive CutOff       TCut            ....  2.500e-12 Eh

Convergence Tolerance:
 Convergence Check Mode ConvCheckMode   .... Total+1el-Energy
 Convergence forced     ConvForced      .... 1
 Energy Change          TolE            ....  1.000e-08 Eh
 1-El. energy change                    ....  1.000e-05 Eh
 Orbital Gradient       TolG            ....  1.000e-05
 Orbital Rotation angle TolX            ....  1.000e-05
 DIIS Error             TolErr          ....  5.000e-07


Diagonalization of the overlap matrix:
Smallest eigenvalue                        ... 2.801e-05
Time for diagonalization                   ...    0.012 sec
Threshold for overlap eigenvalues          ... 1.000e-08
Number of eigenvalues below threshold      ... 0
Time for construction of square roots      ...    0.216 sec
Total time needed                          ...    0.229 sec

Time for model grid setup =    0.122 sec

------------------------------
INITIAL GUESS: MODEL POTENTIAL
------------------------------
Loading Hartree-Fock densities                     ... done
Calculating cut-offs                               ... done
Initializing the effective Hamiltonian             ... done
Setting up the integral package (SHARK)            ... done
Starting the Coulomb interaction                   ... done (   0.1 sec)
Reading the grid                                   ... done
Mapping shells                                     ... done
Starting the XC term evaluation                    ... done (   0.0 sec)
Transforming the Hamiltonian                       ... done (   0.0 sec)
Diagonalizing the Hamiltonian                      ... done (   0.0 sec)
Back transforming the eigenvectors                 ... done (   0.0 sec)
Now organizing SCF variables                       ... done
                      ------------------
                      INITIAL GUESS DONE (   0.3 sec)
                      ------------------
--------------
SCF ITERATIONS
--------------
ITER       Energy         Delta-E        Max-DP      RMS-DP      [F,P]     Damp
               ***  Starting incremental Fock matrix formation  ***
  0    -79.0866751790   0.000000000000 0.02730552  0.00058781  0.2554506 0.7000
  1    -79.1491151630  -0.062439984076 0.02031609  0.00042869  0.1651318 0.7000
                               ***Turning on DIIS***
  2    -79.1862821906  -0.037167027612 0.04986861  0.00094257  0.0978212 0.0000
  3    -78.9888004751   0.197481715513 0.01626077  0.00032878  0.0376791 0.0000
  4    -79.2243705990  -0.235570123905 0.00388866  0.00009875  0.0080842 0.0000
                      *** Initiating the SOSCF procedure ***
                           *** Shutting down DIIS ***
                      *** Re-Reading the Fockian *** 
                      *** Removing any level shift *** 
ITER      Energy       Delta-E        Grad      Rot      Max-DP    RMS-DP
  5    -79.25197557  -0.0276049689  0.002427  0.002427  0.001225  0.000027
               *** Restarting incremental Fock matrix formation ***
  6    -79.26026575  -0.0082901808  0.000690  0.000860  0.000395  0.000009
  7    -79.26027034  -0.0000045879  0.000179  0.000404  0.000279  0.000006
  8    -79.26027102  -0.0000006860  0.000040  0.000027  0.000061  0.000001
  9    -79.26027105  -0.0000000293  0.000006  0.000008  0.000005  0.000000
                  ***Gradient check signals convergence***
              ***Rediagonalizing the Fockian in SOSCF/NRSCF***

               *****************************************************
               *                     SUCCESS                       *
               *           SCF CONVERGED AFTER  10 CYCLES          *
               *****************************************************


----------------
TOTAL SCF ENERGY
----------------

Total Energy       :          -79.26027105 Eh           -2156.78162 eV

Components:
Nuclear Repulsion  :           42.31074555 Eh            1151.33392 eV
Electronic Energy  :         -121.57101660 Eh           -3308.11554 eV
One Electron Energy:         -189.22880446 Eh           -5149.17755 eV
Two Electron Energy:           67.65778786 Eh            1841.06201 eV

Virial components:
Potential Energy   :         -158.42403190 Eh           -4310.93707 eV
Kinetic Energy     :           79.16376085 Eh            2154.15545 eV
Virial Ratio       :            2.00121912


---------------
SCF CONVERGENCE
---------------

  Last Energy change         ...   -3.8833e-10  Tolerance :   1.0000e-08
  Last MAX-Density change    ...    2.4162e-06  Tolerance :   1.0000e-07
  Last RMS-Density change    ...    4.8681e-08  Tolerance :   5.0000e-09
  Last Orbital Gradient      ...    7.4537e-07  Tolerance :   1.0000e-05
  Last Orbital Rotation      ...    7.9506e-07  Tolerance :   1.0000e-05

             **** THE GBW FILE WAS UPDATED (000005.gbw) ****
             **** DENSITY 000005.scfp WAS UPDATED ****
             **** ENERGY FILE WAS UPDATED (000005.en.tmp) ****
             **** THE GBW FILE WAS UPDATED (000005.gbw) ****
             **** DENSITY 000005.scfp WAS UPDATED ****
----------------
ORBITAL ENERGIES
----------------

  NO   OCC          E(Eh)            E(eV) 
   0   2.0000     -11.211307      -305.0752 
   1   2.0000     -11.210693      -305.0585 
   2   2.0000      -1.018293       -27.7092 
   3   2.0000      -0.840907       -22.8822 
   4   2.0000      -0.596555       -16.2331 
   5   2.0000      -0.596555       -16.2331 
   6   2.0000      -0.510526       -13.8921 
   7   2.0000      -0.485887       -13.2217 
   8   2.0000      -0.485887       -13.2217 
   9   0.0000       0.032250         0.8776 
  10   0.0000       0.042342         1.1522 
  11   0.0000       0.043468         1.1828 
  12   0.0000       0.043468         1.1828 
  13   0.0000       0.067756         1.8437 
  14   0.0000       0.067756         1.8437 
  15   0.0000       0.100994         2.7482 
  16   0.0000       0.120234         3.2717 
  17   0.0000       0.120234         3.2717 
  18   0.0000       0.124019         3.3747 
  19   0.0000       0.144397         3.9292 
  20   0.0000       0.144397         3.9292 
  21   0.0000       0.144590         3.9345 
  22   0.0000       0.182627         4.9695 
  23   0.0000       0.220883         6.0105 
  24   0.0000       0.220883         6.0105 
  25   0.0000       0.243170         6.6170 
  26   0.0000       0.243170         6.6170 
  27   0.0000       0.277937         7.5631 
  28   0.0000       0.277937         7.5631 
  29   0.0000       0.291627         7.9356 
  30   0.0000       0.312250         8.4967 
  31   0.0000       0.325849         8.8668 
  32   0.0000       0.325849         8.8668 
  33   0.0000       0.328631         8.9425 
  34   0.0000       0.332637         9.0515 
  35   0.0000       0.365599         9.9484 
  36   0.0000       0.365599         9.9484 
  37   0.0000       0.379364        10.3230 
  38   0.0000       0.395946        10.7742 
  39   0.0000       0.395946        10.7743 
  40   0.0000       0.405060        11.0223 
  41   0.0000       0.413883        11.2623 
  42   0.0000       0.427316        11.6279 
  43   0.0000       0.443942        12.0803 
  44   0.0000       0.443942        12.0803 
  45   0.0000       0.449109        12.2209 
  46   0.0000       0.449109        12.2209 
  47   0.0000       0.454882        12.3780 
  48   0.0000       0.471028        12.8173 
  49   0.0000       0.471028        12.8173 
  50   0.0000       0.496501        13.5105 
  51   0.0000       0.496501        13.5105 
  52   0.0000       0.504607        13.7310 
  53   0.0000       0.517751        14.0887 
  54   0.0000       0.517751        14.0887 
  55   0.0000       0.539808        14.6889 
  56   0.0000       0.571026        15.5384 
  57   0.0000       0.571026        15.5384 
  58   0.0000       0.697478        18.9793 
  59   0.0000       0.787333        21.4244 
  60   0.0000       0.787333        21.4244 
  61   0.0000       0.787710        21.4347 
  62   0.0000       0.787710        21.4347 
  63   0.0000       0.819742        22.3063 
  64   0.0000       0.826262        22.4837 
  65   0.0000       0.849993        23.1295 
  66   0.0000       0.849993        23.1295 
  67   0.0000       0.868986        23.6463 
  68   0.0000       0.868986        23.6463 
  69   0.0000       0.874428        23.7944 
  70   0.0000       0.909176        24.7399 
  71   0.0000       0.929383        25.2898 
  72   0.0000       0.955046        25.9881 
  73   0.0000       0.955046        25.9881 
  74   0.0000       0.957957        26.0673 
  75   0.0000       0.972086        26.4518 
  76   0.0000       0.984512        26.7899 
  77   0.0000       0.984512        26.7899 
  78   0.0000       1.007537        27.4165 
  79   0.0000       1.007537        27.4165 
  80   0.0000       1.015552        27.6346 
  81   0.0000       1.043561        28.3967 
  82   0.0000       1.089152        29.6373 
  83   0.0000       1.089152        29.6373 
  84   0.0000       1.101360        29.9695 
  85   0.0000       1.101360        29.9695 
  86   0.0000       1.111121        30.2351 
  87   0.0000       1.146390        31.1949 
  88   0.0000       1.146390        31.1949 
  89   0.0000       1.149986        31.2927 
  90   0.0000       1.149986        31.2927 
  91   0.0000       1.173767        31.9398 
  92   0.0000       1.240748        33.7625 
  93   0.0000       1.240748        33.7625 
  94   0.0000       1.240936        33.7676 
  95   0.0000       1.240937        33.7676 
  96   0.0000       1.277411        34.7601 
  97   0.0000       1.277411        34.7601 
  98   0.0000       1.293848        35.2074 
  99   0.0000       1.311072        35.6761 
 100   0.0000       1.406367        38.2692 
 101   0.0000       1.406367        38.2692 
 102   0.0000       1.412484        38.4356 
 103   0.0000       1.412484        38.4356 
 104   0.0000       1.437015        39.1032 
 105   0.0000       1.524093        41.4727 
 106   0.0000       1.604502        43.6607 
 107   0.0000       1.604502        43.6607 
 108   0.0000       1.622736        44.1569 
 109   0.0000       1.632692        44.4278 
 110   0.0000       1.648209        44.8500 
 111   0.0000       1.648209        44.8500 
 112   0.0000       1.672226        45.5036 
 113   0.0000       1.707112        46.4529 
 114   0.0000       1.707112        46.4529 
 115   0.0000       1.707758        46.4704 
 116   0.0000       1.718500        46.7628 
 117   0.0000       1.738258        47.3004 
 118   0.0000       1.806270        49.1511 
 119   0.0000       1.806270        49.1511 
 120   0.0000       1.835764        49.9537 
 121   0.0000       1.862184        50.6726 
 122   0.0000       1.864667        50.7402 
 123   0.0000       1.864667        50.7402 
 124   0.0000       1.930807        52.5399 
 125   0.0000       1.930807        52.5399 
 126   0.0000       1.981737        53.9258 
 127   0.0000       2.021285        55.0020 
 128   0.0000       2.021285        55.0020 
 129   0.0000       2.062817        56.1321 
 130   0.0000       2.062817        56.1321 
 131   0.0000       2.193715        59.6940 
 132   0.0000       2.193715        59.6940 
 133   0.0000       2.211208        60.1700 
 134   0.0000       2.229609        60.6707 
 135   0.0000       2.229609        60.6707 
 136   0.0000       2.272524        61.8385 
 137   0.0000       2.272524        61.8385 
 138   0.0000       2.335096        63.5412 
 139   0.0000       2.365913        64.3798 
 140   0.0000       2.405998        65.4705 
 141   0.0000       2.405998        65.4705 
 142   0.0000       2.618332        71.2484 
 143   0.0000       2.855507        77.7023 
 144   0.0000       3.104173        84.4688 
 145   0.0000       3.136007        85.3351 
 146   0.0000       3.316609        90.2495 
 147   0.0000       3.339380        90.8692 
 148   0.0000       3.339380        90.8692 
 149   0.0000       3.390086        92.2489 
 150   0.0000       3.390086        92.2489 
 151   0.0000       3.531882        96.1074 
 152   0.0000       3.531882        96.1074 
 153   0.0000       3.582439        97.4831 
 154   0.0000       3.586410        97.5912 
 155   0.0000       3.586410        97.5912 
 156   0.0000       3.648599        99.2834 
 157   0.0000       3.694348       100.5283 
 158   0.0000       3.697098       100.6031 
 159   0.0000       3.697098       100.6031 
 160   0.0000       3.723906       101.3326 
 161   0.0000       3.768011       102.5328 
 162   0.0000       3.768011       102.5328 
 163   0.0000       3.796204       103.3000 
 164   0.0000       3.814369       103.7943 
 165   0.0000       3.814369       103.7943 
 166   0.0000       3.944445       107.3338 
 167   0.0000       3.944445       107.3338 
 168   0.0000       3.951990       107.5391 
 169   0.0000       3.951990       107.5391 
 170   0.0000       3.984769       108.4311 
 171   0.0000       3.984769       108.4311 
 172   0.0000       4.095043       111.4318 
 173   0.0000       4.122900       112.1898 
 174   0.0000       4.161837       113.2493 
 175   0.0000       4.161837       113.2493 
 176   0.0000       4.186976       113.9334 
 177   0.0000       4.193225       114.1034 
 178   0.0000       4.193225       114.1034 
 179   0.0000       4.219655       114.8227 
 180   0.0000       4.219655       114.8227 
 181   0.0000       4.471056       121.6636 
 182   0.0000       4.481748       121.9546 
 183   0.0000       4.525780       123.1527 
 184   0.0000       4.525780       123.1527 
 185   0.0000       4.614447       125.5655 
 186   0.0000       4.633272       126.0777 
 187   0.0000       4.633272       126.0777 
 188   0.0000       4.772574       129.8684 
 189   0.0000       4.772574       129.8684 
 190   0.0000       4.780224       130.0765 
 191   0.0000       4.821175       131.1909 
 192   0.0000       4.821175       131.1909 
 193   0.0000       4.840937       131.7286 
 194   0.0000       4.840937       131.7286 
 195   0.0000       4.880667       132.8097 
 196   0.0000       4.972341       135.3043 
 197   0.0000       4.989112       135.7606 
 198   0.0000       5.025560       136.7524 
 199   0.0000       5.094111       138.6178 
 200   0.0000       5.094111       138.6178 
 201   0.0000       5.154411       140.2587 
 202   0.0000       5.154411       140.2587 
 203   0.0000       5.309008       144.4654 
 204   0.0000       5.309008       144.4654 
 205   0.0000       5.350569       145.5964 
 206   0.0000       5.373669       146.2250 
 207   0.0000       5.444390       148.1494 
 208   0.0000       5.479406       149.1022 
 209   0.0000       5.488118       149.3393 
 210   0.0000       5.488118       149.3393 
 211   0.0000       5.656463       153.9202 
 212   0.0000       5.656463       153.9202 
 213   0.0000       5.777619       157.2170 
 214   0.0000       5.788053       157.5009 
 215   0.0000       5.900454       160.5595 
 216   0.0000       5.900454       160.5595 
 217   0.0000       5.958126       162.1288 
 218   0.0000       6.068420       165.1301 
 219   0.0000       6.179261       168.1462 
 220   0.0000       6.179261       168.1462 
 221   0.0000       6.261430       170.3822 
 222   0.0000       6.261430       170.3822 
 223   0.0000       6.263381       170.4353 
 224   0.0000       6.683911       181.8785 
 225   0.0000       6.683911       181.8785 
 226   0.0000       6.802334       185.1009 
 227   0.0000       6.802335       185.1009 
 228   0.0000      17.382111       472.9913 
 229   0.0000      17.948832       488.4126 
------------------
MOLECULAR ORBITALS
------------------
                      0         1         2         3         4         5   
                 -11.21131 -11.21069  -1.01829  -0.84091  -0.59655  -0.59655
                   2.00000   2.00000   2.00000   2.00000   2.00000   2.00000
                  --------  --------  --------  --------  --------  --------
  0C   1s         0.692626  0.692526 -0.009510  0.006286  0.000000  0.000000
  0C   2s         0.002823  0.002258  0.339107 -0.299216 -0.000000 -0.000000
  0C   3s         0.029894  0.029566  0.069089 -0.060849 -0.000000 -0.000000
  0C   4s         0.002116 -0.006981  0.095228 -0.150453  0.000000 -0.000000
  0C   5s         0.000746 -0.002395 -0.008179  0.037519 -0.000000 -0.000000
  0C   1pz       -0.000149  0.000159 -0.030883 -0.068398 -0.000000 -0.000000
  0C   1px       -0.000000  0.000000  0.000000  0.000000  0.166190 -0.000063
  0C   1py       -0.000000  0.000000 -0.000000  0.000000 -0.000063 -0.166190
  0C   2pz       -0.001230  0.000091 -0.037487 -0.090118 -0.000000 -0.000000
  0C   2px        0.000000 -0.000000  0.000000  0.000000  0.222801 -0.000085
  0C   2py        0.000000 -0.000000 -0.000000  0.000000 -0.000085 -0.222801
  0C   3pz       -0.000047  0.001325 -0.011685 -0.056315  0.000000  0.000000
  0C   3px       -0.000000 -0.000000  0.000000  0.000000  0.158650 -0.000060
  0C   3py        0.000000 -0.000000 -0.000000  0.000000 -0.000060 -0.158650
  0C   4pz       -0.000059  0.000841 -0.000227 -0.011813  0.000000  0.000000
  0C   4px       -0.000000 -0.000000  0.000000 -0.000000  0.006679 -0.000003
  0C   4py        0.000000 -0.000000  0.000000  0.000000 -0.000003 -0.006679
  0C   1dz2       0.000009 -0.000114  0.004240  0.006717  0.000000  0.000000
  0C   1dxz       0.000000 -0.000000  0.000000  0.000000  0.003195 -0.000001
  0C   1dyz       0.000000 -0.000000 -0.000000  0.000000 -0.000001 -0.003195
  0C   1dx2y2    -0.000000  0.000000  0.000000 -0.000000  0.000004  0.009382
  0C   1dxy       0.000000 -0.000000 -0.000000 -0.000000 -0.009382  0.000004
  0C   2dz2      -0.001056  0.001740  0.010611  0.015125  0.000000  0.000000
  0C   2dxz       0.000000 -0.000000  0.000000  0.000000  0.006386 -0.000002
  0C   2dyz       0.000000 -0.000000 -0.000000  0.000000 -0.000002 -0.006386
  0C   2dx2y2    -0.000000  0.000000  0.000000 -0.000000  0.000009  0.024186
  0C   2dxy      -0.000000  0.000000 -0.000000 -0.000000 -0.024186  0.000009
  0C   3dz2      -0.000343 -0.000269  0.003011  0.007753  0.000000  0.000000
  0C   3dxz      -0.000000  0.000000  0.000000  0.000000  0.020767 -0.000008
  0C   3dyz       0.000000 -0.000000  0.000000  0.000000 -0.000008 -0.020767
  0C   3dx2y2    -0.000000  0.000000  0.000000 -0.000000  0.000008  0.020687
  0C   3dxy       0.000000  0.000000 -0.000000 -0.000000 -0.020687  0.000008
  0C   1f0       -0.000244 -0.000691 -0.006189  0.003675  0.000000  0.000000
  0C   1f+1       0.000000  0.000000 -0.000000  0.000000  0.002589 -0.000001
  0C   1f-1      -0.000000  0.000000 -0.000000  0.000000 -0.000001 -0.002589
  0C   1f+2      -0.000000  0.000000 -0.000000  0.000000  0.000000  0.001265
  0C   1f-2      -0.000000 -0.000000  0.000000 -0.000000 -0.001265  0.000000
  0C   1f+3      -0.000000  0.000000  0.000000 -0.000000  0.000000 -0.000000
  0C   1f-3       0.000583  0.000428  0.003236 -0.003497 -0.000000 -0.000000
  0C   2f0        0.001369  0.000100  0.001435 -0.000424 -0.000000  0.000000
  0C   2f+1       0.000000 -0.000000  0.000000  0.000000 -0.002344  0.000001
  0C   2f-1      -0.000000  0.000000  0.000000  0.000000  0.000001  0.002344
  0C   2f+2      -0.000000  0.000000  0.000000  0.000000  0.000001  0.002544
  0C   2f-2       0.000000  0.000000 -0.000000 -0.000000 -0.002544  0.000001
  0C   2f+3      -0.000000  0.000000  0.000000 -0.000000  0.000000 -0.000000
  0C   2f-3      -0.000529 -0.001446 -0.003447 -0.002297  0.000000 -0.000000
  1C   1s         0.692626 -0.692526 -0.009510 -0.006286 -0.000000 -0.000000
  1C   2s         0.002823 -0.002258  0.339107  0.299216  0.000000  0.000000
  1C   3s         0.029894 -0.029566  0.069089  0.060849  0.000000  0.000000
  1C   4s         0.002116  0.006981  0.095228  0.150453  0.000000  0.000000
  1C   5s         0.000746  0.002395 -0.008179 -0.037519  0.000000  0.000000
  1C   1pz        0.000149  0.000159  0.030883 -0.068398 -0.000000 -0.000000
  1C   1px        0.000000  0.000000 -0.000000  0.000000  0.166190 -0.000063
  1C   1py        0.000000  0.000000  0.000000  0.000000 -0.000063 -0.166190
  1C   2pz        0.001230  0.000091  0.037487 -0.090118 -0.000000 -0.000000
  1C   2px       -0.000000 -0.000000 -0.000000  0.000000  0.222801 -0.000085
  1C   2py       -0.000000 -0.000000  0.000000  0.000000 -0.000085 -0.222801
  1C   3pz        0.000047  0.001325  0.011685 -0.056315  0.000000  0.000000
  1C   3px        0.000000  0.000000 -0.000000  0.000000  0.158650 -0.000060
  1C   3py       -0.000000 -0.000000  0.000000  0.000000 -0.000060 -0.158650
  1C   4pz        0.000059  0.000841  0.000227 -0.011813  0.000000  0.000000
  1C   4px        0.000000 -0.000000 -0.000000 -0.000000  0.006679 -0.000003
  1C   4py       -0.000000 -0.000000 -0.000000  0.000000 -0.000003 -0.006679
  1C   1dz2       0.000009  0.000114  0.004240 -0.006717 -0.000000 -0.000000
  1C   1dxz       0.000000  0.000000  0.000000 -0.000000 -0.003195  0.000001
  1C   1dyz       0.000000  0.000000 -0.000000 -0.000000  0.000001  0.003195
  1C   1dx2y2    -0.000000 -0.000000  0.000000  0.000000 -0.000004 -0.009382
  1C   1dxy       0.000000  0.000000 -0.000000  0.000000  0.009382 -0.000004
  1C   2dz2      -0.001056 -0.001740  0.010611 -0.015125 -0.000000 -0.000000
  1C   2dxz       0.000000 -0.000000  0.000000 -0.000000 -0.006386  0.000002
  1C   2dyz       0.000000  0.000000 -0.000000 -0.000000  0.000002  0.006386
  1C   2dx2y2    -0.000000 -0.000000  0.000000  0.000000 -0.000009 -0.024186
  1C   2dxy      -0.000000 -0.000000 -0.000000  0.000000  0.024186 -0.000009
  1C   3dz2      -0.000343  0.000269  0.003011 -0.007753 -0.000000 -0.000000
  1C   3dxz      -0.000000 -0.000000  0.000000 -0.000000 -0.020767  0.000008
  1C   3dyz       0.000000  0.000000  0.000000 -0.000000  0.000008  0.020767
  1C   3dx2y2    -0.000000 -0.000000  0.000000  0.000000 -0.000008 -0.020687
  1C   3dxy       0.000000  0.000000 -0.000000  0.000000  0.020687 -0.000008
  1C   1f0        0.000244 -0.000691  0.006189  0.003675  0.000000  0.000000
  1C   1f+1      -0.000000  0.000000  0.000000  0.000000  0.002589 -0.000001
  1C   1f-1       0.000000  0.000000  0.000000  0.000000 -0.000001 -0.002589
  1C   1f+2       0.000000  0.000000  0.000000  0.000000  0.000000  0.001265
  1C   1f-2       0.000000 -0.000000 -0.000000 -0.000000 -0.001265  0.000000
  1C   1f+3       0.000000 -0.000000 -0.000000 -0.000000  0.000000 -0.000000
  1C   1f-3      -0.000583  0.000428 -0.003236 -0.003497 -0.000000 -0.000000
  1C   2f0       -0.001369  0.000100 -0.001435 -0.000424 -0.000000  0.000000
  1C   2f+1      -0.000000  0.000000 -0.000000 -0.000000 -0.002344  0.000001
  1C   2f-1       0.000000  0.000000 -0.000000  0.000000  0.000001  0.002344
  1C   2f+2       0.000000  0.000000 -0.000000  0.000000  0.000001  0.002544
  1C   2f-2      -0.000000 -0.000000  0.000000 -0.000000 -0.002544  0.000001
  1C   2f+3       0.000000 -0.000000 -0.000000 -0.000000  0.000000 -0.000000
  1C   2f-3       0.000529 -0.001446  0.003447 -0.002297  0.000000 -0.000000
  2H   1s         0.000103  0.000079  0.051814 -0.071604 -0.000041 -0.108646
  2H   2s         0.001004  0.002388  0.067680 -0.083035 -0.000051 -0.134307
  2H   3s        -0.001215  0.000336  0.009892  0.000694  0.000017  0.045102
  2H   4s        -0.000088 -0.000254  0.000391  0.003021  0.000002  0.005410
  2H   1pz        0.000082  0.000092 -0.002531  0.001621  0.000002  0.005184
  2H   1px        0.000000 -0.000000  0.000000 -0.000000  0.003370 -0.000001
  2H   1py        0.000189  0.000174 -0.004987  0.007075  0.000003  0.008044
  2H   2pz        0.000568 -0.000749 -0.004389 -0.002190  0.000001  0.001772
  2H   2px        0.000000 -0.000000 -0.000000  0.000000  0.009503 -0.000004
  2H   2py        0.000024  0.000235 -0.001324  0.002192 -0.000001 -0.002079
  2H   3pz        0.000449 -0.000072  0.001337 -0.004556 -0.000000 -0.000646
  2H   3px        0.000000 -0.000000  0.000000  0.000000  0.002065 -0.000001
  2H   3py        0.000358  0.000211  0.005172 -0.007692 -0.000009 -0.023008
  2H   1dz2      -0.000032  0.000143  0.000356  0.000733 -0.000000 -0.000042
  2H   1dxz       0.000000 -0.000000 -0.000000 -0.000000 -0.000808  0.000000
  2H   1dyz      -0.000196 -0.000054  0.001087 -0.000467 -0.000001 -0.001893
  2H   1dx2y2     0.000110  0.000168 -0.000690  0.001188  0.000000  0.001140
  2H   1dxy       0.000000  0.000000 -0.000000  0.000000 -0.001372  0.000001
  2H   2dz2      -0.000183  0.000397  0.001967 -0.000511 -0.000001 -0.001650
  2H   2dxz      -0.000000  0.000000 -0.000000 -0.000000 -0.000467  0.000000
  2H   2dyz      -0.000145 -0.000115 -0.001663  0.002161  0.000001  0.001509
  2H   2dx2y2     0.000112  0.000186  0.003482 -0.002614 -0.000001 -0.001789
  2H   2dxy      -0.000000 -0.000000  0.000000 -0.000000 -0.001281  0.000000
  3H   1s         0.000103  0.000079  0.051814 -0.071604  0.094111  0.054287
  3H   2s         0.001004  0.002388  0.067680 -0.083035  0.116339  0.067109
  3H   3s        -0.001215  0.000336  0.009892  0.000694 -0.039068 -0.022536
  3H   4s        -0.000088 -0.000254  0.000391  0.003021 -0.004687 -0.002703
  3H   1pz        0.000082  0.000092 -0.002531  0.001621 -0.004491 -0.002590
  3H   1px        0.000163  0.000151 -0.004319  0.006127 -0.005192 -0.004940
  3H   1py       -0.000094 -0.000087  0.002494 -0.003537  0.004942 -0.000518
  3H   2pz        0.000568 -0.000749 -0.004389 -0.002190 -0.001535 -0.000885
  3H   2px        0.000021  0.000203 -0.001146  0.001898  0.003934 -0.003216
  3H   2py       -0.000012 -0.000117  0.000662 -0.001096  0.003212 -0.007648
  3H   3pz        0.000449 -0.000072  0.001337 -0.004556  0.000560  0.000323
  3H   3px        0.000310  0.000183  0.004479 -0.006661  0.017775  0.009062
  3H   3py       -0.000179 -0.000106 -0.002586  0.003846 -0.009071 -0.007297
  3H   1dz2      -0.000032  0.000143  0.000356  0.000733  0.000036  0.000021
  3H   1dxz      -0.000170 -0.000046  0.000941 -0.000404  0.001218  0.001169
  3H   1dyz       0.000098  0.000027 -0.000544  0.000233 -0.001170  0.000133
  3H   1dx2y2    -0.000055 -0.000084  0.000345 -0.000594 -0.000100  0.001314
  3H   1dxy       0.000095  0.000146 -0.000597  0.001029 -0.001198  0.000101
  3H   2dz2      -0.000183  0.000397  0.001967 -0.000511  0.001429  0.000824
  3H   2dxz      -0.000126 -0.000100 -0.001440  0.001871 -0.001249 -0.000451
  3H   2dyz       0.000073  0.000058  0.000832 -0.001080  0.000451  0.000728
  3H   2dx2y2    -0.000056 -0.000093 -0.001741  0.001307 -0.001329  0.000514
  3H   2dxy       0.000097  0.000161  0.003015 -0.002264  0.001022  0.001329
  4H   1s         0.000103  0.000079  0.051814 -0.071604 -0.094069  0.054359
  4H   2s         0.001004  0.002388  0.067680 -0.083035 -0.116287  0.067198
  4H   3s        -0.001215  0.000336  0.009892  0.000694  0.039051 -0.022566
  4H   4s        -0.000088 -0.000254  0.000391  0.003021  0.004684 -0.002707
  4H   1pz        0.000082  0.000092 -0.002531  0.001621  0.004489 -0.002594
  4H   1px       -0.000163 -0.000151  0.004319 -0.006127 -0.005189  0.004944
  4H   1py       -0.000094 -0.000087  0.002494 -0.003537 -0.004942 -0.000514
  4H   2pz        0.000568 -0.000749 -0.004389 -0.002190  0.001534 -0.000886
  4H   2px       -0.000021 -0.000203  0.001146 -0.001898  0.003936  0.003213
  4H   2py       -0.000012 -0.000117  0.000662 -0.001096 -0.003217 -0.007646
  4H   3pz        0.000449 -0.000072  0.001337 -0.004556 -0.000560  0.000323
  4H   3px       -0.000310 -0.000183 -0.004479  0.006661  0.017768 -0.009075
  4H   3py       -0.000179 -0.000106 -0.002586  0.003846  0.009066 -0.007304
  4H   1dz2      -0.000032  0.000143  0.000356  0.000733 -0.000036  0.000021
  4H   1dxz       0.000170  0.000046 -0.000941  0.000404  0.001217 -0.001170
  4H   1dyz       0.000098  0.000027 -0.000544  0.000233  0.001170  0.000132
  4H   1dx2y2    -0.000055 -0.000084  0.000345 -0.000594  0.000101  0.001314
  4H   1dxy      -0.000095 -0.000146  0.000597 -0.001029 -0.001198 -0.000100
  4H   2dz2      -0.000183  0.000397  0.001967 -0.000511 -0.001429  0.000826
  4H   2dxz       0.000126  0.000100  0.001440 -0.001871 -0.001249  0.000452
  4H   2dyz       0.000073  0.000058  0.000832 -0.001080 -0.000451  0.000728
  4H   2dx2y2    -0.000056 -0.000093 -0.001741  0.001307  0.001330  0.000513
  4H   2dxy      -0.000097 -0.000161 -0.003015  0.002264  0.001021 -0.001330
  5H   1s         0.000103 -0.000079  0.051814  0.071604  0.094069 -0.054359
  5H   2s         0.001004 -0.002388  0.067680  0.083035  0.116287 -0.067198
  5H   3s        -0.001215 -0.000336  0.009892 -0.000694 -0.039051  0.022566
  5H   4s        -0.000088  0.000254  0.000391 -0.003021 -0.004684  0.002707
  5H   1pz       -0.000082  0.000092  0.002531  0.001621  0.004489 -0.002594
  5H   1px        0.000163 -0.000151 -0.004319 -0.006127 -0.005189  0.004944
  5H   1py        0.000094 -0.000087 -0.002494 -0.003537 -0.004942 -0.000514
  5H   2pz       -0.000568 -0.000749  0.004389 -0.002190  0.001534 -0.000886
  5H   2px        0.000021 -0.000203 -0.001146 -0.001898  0.003936  0.003213
  5H   2py        0.000012 -0.000117 -0.000662 -0.001096 -0.003217 -0.007646
  5H   3pz       -0.000449 -0.000072 -0.001337 -0.004556 -0.000560  0.000323
  5H   3px        0.000310 -0.000183  0.004479  0.006661  0.017768 -0.009075
  5H   3py        0.000179 -0.000106  0.002586  0.003846  0.009066 -0.007304
  5H   1dz2      -0.000032 -0.000143  0.000356 -0.000733  0.000036 -0.000021
  5H   1dxz       0.000170 -0.000046 -0.000941 -0.000404 -0.001217  0.001170
  5H   1dyz       0.000098 -0.000027 -0.000544 -0.000233 -0.001170 -0.000132
  5H   1dx2y2    -0.000055  0.000084  0.000345  0.000594 -0.000101 -0.001314
  5H   1dxy      -0.000095  0.000146  0.000597  0.001029  0.001198  0.000100
  5H   2dz2      -0.000183 -0.000397  0.001967  0.000511  0.001429 -0.000826
  5H   2dxz       0.000126 -0.000100  0.001440  0.001871  0.001249 -0.000452
  5H   2dyz       0.000073 -0.000058  0.000832  0.001080  0.000451 -0.000728
  5H   2dx2y2    -0.000056  0.000093 -0.001741 -0.001307 -0.001330 -0.000513
  5H   2dxy      -0.000097  0.000161 -0.003015 -0.002264 -0.001021  0.001330
  6H   1s         0.000103 -0.000079  0.051814  0.071604 -0.094111 -0.054287
  6H   2s         0.001004 -0.002388  0.067680  0.083035 -0.116339 -0.067109
  6H   3s        -0.001215 -0.000336  0.009892 -0.000694  0.039068  0.022536
  6H   4s        -0.000088  0.000254  0.000391 -0.003021  0.004687  0.002703
  6H   1pz       -0.000082  0.000092  0.002531  0.001621 -0.004491 -0.002590
  6H   1px       -0.000163  0.000151  0.004319  0.006127 -0.005192 -0.004940
  6H   1py        0.000094 -0.000087 -0.002494 -0.003537  0.004942 -0.000518
  6H   2pz       -0.000568 -0.000749  0.004389 -0.002190 -0.001535 -0.000885
  6H   2px       -0.000021  0.000203  0.001146  0.001898  0.003934 -0.003216
  6H   2py        0.000012 -0.000117 -0.000662 -0.001096  0.003212 -0.007648
  6H   3pz       -0.000449 -0.000072 -0.001337 -0.004556  0.000560  0.000323
  6H   3px       -0.000310  0.000183 -0.004479 -0.006661  0.017775  0.009062
  6H   3py        0.000179 -0.000106  0.002586  0.003846 -0.009071 -0.007297
  6H   1dz2      -0.000032 -0.000143  0.000356 -0.000733 -0.000036 -0.000021
  6H   1dxz      -0.000170  0.000046  0.000941  0.000404 -0.001218 -0.001169
  6H   1dyz       0.000098 -0.000027 -0.000544 -0.000233  0.001170 -0.000133
  6H   1dx2y2    -0.000055  0.000084  0.000345  0.000594  0.000100 -0.001314
  6H   1dxy       0.000095 -0.000146 -0.000597 -0.001029  0.001198 -0.000101
  6H   2dz2      -0.000183 -0.000397  0.001967  0.000511 -0.001429 -0.000824
  6H   2dxz      -0.000126  0.000100 -0.001440 -0.001871  0.001249  0.000451
  6H   2dyz       0.000073 -0.000058  0.000832  0.001080 -0.000451 -0.000728
  6H   2dx2y2    -0.000056  0.000093 -0.001741 -0.001307  0.001329 -0.000514
  6H   2dxy       0.000097 -0.000161  0.003015  0.002264 -0.001022 -0.001329
  7H   1s         0.000103 -0.000079  0.051814  0.071604  0.000041  0.108646
  7H   2s         0.001004 -0.002388  0.067680  0.083035  0.000051  0.134307
  7H   3s        -0.001215 -0.000336  0.009892 -0.000694 -0.000017 -0.045102
  7H   4s        -0.000088  0.000254  0.000391 -0.003021 -0.000002 -0.005410
  7H   1pz       -0.000082  0.000092  0.002531  0.001621  0.000002  0.005184
  7H   1px       -0.000000 -0.000000 -0.000000 -0.000000  0.003370 -0.000001
  7H   1py       -0.000189  0.000174  0.004987  0.007075  0.000003  0.008044
  7H   2pz       -0.000568 -0.000749  0.004389 -0.002190  0.000001  0.001772
  7H   2px       -0.000000 -0.000000  0.000000  0.000000  0.009503 -0.000004
  7H   2py       -0.000024  0.000235  0.001324  0.002192 -0.000001 -0.002079
  7H   3pz       -0.000449 -0.000072 -0.001337 -0.004556 -0.000000 -0.000646
  7H   3px       -0.000000  0.000000 -0.000000  0.000000  0.002065 -0.000001
  7H   3py       -0.000358  0.000211 -0.005172 -0.007692 -0.000009 -0.023008
  7H   1dz2      -0.000032 -0.000143  0.000356 -0.000733  0.000000  0.000042
  7H   1dxz       0.000000  0.000000 -0.000000  0.000000  0.000808 -0.000000
  7H   1dyz      -0.000196  0.000054  0.001087  0.000467  0.000001  0.001893
  7H   1dx2y2     0.000110 -0.000168 -0.000690 -0.001188 -0.000000 -0.001140
  7H   1dxy       0.000000 -0.000000 -0.000000 -0.000000  0.001372 -0.000001
  7H   2dz2      -0.000183 -0.000397  0.001967  0.000511  0.000001  0.001650
  7H   2dxz      -0.000000 -0.000000 -0.000000  0.000000  0.000467 -0.000000
  7H   2dyz      -0.000145  0.000115 -0.001663 -0.002161 -0.000001 -0.001509
  7H   2dx2y2     0.000112 -0.000186  0.003482  0.002614  0.000001  0.001789
  7H   2dxy      -0.000000  0.000000  0.000000  0.000000  0.001281 -0.000000
                      6         7         8         9        10        11   
                  -0.51053  -0.48589  -0.48589   0.03225   0.04234   0.04347
                   2.00000   2.00000   2.00000   0.00000   0.00000   0.00000
                  --------  --------  --------  --------  --------  --------
  0C   1s         0.000467  0.000000  0.000000  0.000039  0.003239 -0.000000
  0C   2s         0.043742 -0.000000  0.000000  0.041170  0.045086 -0.000000
  0C   3s         0.009430 -0.000000  0.000000 -0.007942  0.006746 -0.000000
  0C   4s        -0.152862  0.000000 -0.000000  2.170105  0.625985 -0.000000
  0C   5s        -0.014471 -0.000000 -0.000000  2.627588  0.261721  0.000000
  0C   1pz       -0.216517  0.000000 -0.000000  0.019035  0.002508  0.000000
  0C   1px       -0.000000 -0.165143 -0.000039  0.000000 -0.000000 -0.018608
  0C   1py        0.000000  0.000039 -0.165143  0.000000 -0.000000 -0.000114
  0C   2pz       -0.277824  0.000000 -0.000000  0.123520  0.044142 -0.000000
  0C   2px       -0.000000 -0.223847 -0.000053 -0.000000  0.000000 -0.096211
  0C   2py        0.000000  0.000053 -0.223847 -0.000000 -0.000000 -0.000589
  0C   3pz       -0.176469  0.000000 -0.000000  0.336394  1.294744 -0.000000
  0C   3px       -0.000000 -0.221660 -0.000053 -0.000000  0.000000 -0.916547
  0C   3py        0.000000  0.000053 -0.221660  0.000000 -0.000002 -0.005616
  0C   4pz       -0.013359  0.000000 -0.000000  0.191634  1.954132 -0.000000
  0C   4px        0.000000 -0.010323 -0.000002 -0.000000  0.000000 -1.507716
  0C   4py        0.000000  0.000002 -0.010323  0.000000 -0.000002 -0.009238
  0C   1dz2       0.016062 -0.000000  0.000000 -0.002293 -0.001315 -0.000000
  0C   1dxz      -0.000000 -0.013570 -0.000003  0.000000  0.000000  0.000084
  0C   1dyz       0.000000  0.000003 -0.013570 -0.000000  0.000000  0.000001
  0C   1dx2y2    -0.000000 -0.000003  0.012072  0.000000  0.000000  0.000010
  0C   1dxy       0.000000  0.012072  0.000003  0.000000 -0.000000  0.001705
  0C   2dz2       0.044548 -0.000000  0.000000 -0.049388 -0.033684  0.000000
  0C   2dxz      -0.000000 -0.034251 -0.000008 -0.000000  0.000000 -0.029497
  0C   2dyz       0.000000  0.000008 -0.034251  0.000000 -0.000000 -0.000181
  0C   2dx2y2    -0.000000 -0.000008  0.033806 -0.000000  0.000000  0.000287
  0C   2dxy       0.000000  0.033806  0.000008  0.000000 -0.000000  0.046913
  0C   3dz2       0.017743 -0.000000  0.000000 -0.117474 -0.232464  0.000000
  0C   3dxz      -0.000000  0.009784  0.000002  0.000000  0.000000 -0.073880
  0C   3dyz       0.000000 -0.000002  0.009784  0.000000 -0.000000 -0.000453
  0C   3dx2y2    -0.000000 -0.000008  0.031450 -0.000000  0.000000  0.000545
  0C   3dxy       0.000000  0.031450  0.000008  0.000000 -0.000000  0.088971
  0C   1f0       -0.005425  0.000000 -0.000000 -0.004667  0.000405 -0.000000
  0C   1f+1       0.000000  0.002137  0.000001  0.000000 -0.000000  0.000547
  0C   1f-1      -0.000000 -0.000001  0.002137 -0.000000  0.000000  0.000003
  0C   1f+2      -0.000000 -0.000000  0.001306 -0.000000  0.000000  0.000011
  0C   1f-2       0.000000  0.001306  0.000000  0.000000 -0.000000  0.001830
  0C   1f+3      -0.000000 -0.000000 -0.000000  0.000000  0.000000 -0.000000
  0C   1f-3      -0.001107  0.000000 -0.000000  0.006692  0.002480 -0.000000
  0C   2f0        0.002784 -0.000000  0.000000 -0.042124 -0.019402 -0.000000
  0C   2f+1      -0.000000  0.003087  0.000001  0.000000  0.000000  0.013460
  0C   2f-1      -0.000000 -0.000001  0.003087  0.000000  0.000000  0.000082
  0C   2f+2      -0.000000 -0.000001  0.006156 -0.000000  0.000000 -0.000012
  0C   2f-2       0.000000  0.006156  0.000001  0.000000 -0.000000 -0.002014
  0C   2f+3      -0.000000 -0.000000 -0.000000  0.000000 -0.000000 -0.000000
  0C   2f-3      -0.016033  0.000000 -0.000000  0.037416  0.009642 -0.000000
  1C   1s         0.000467 -0.000000  0.000000  0.000039 -0.003239  0.000000
  1C   2s         0.043742 -0.000000  0.000000  0.041170 -0.045086  0.000000
  1C   3s         0.009430 -0.000000  0.000000 -0.007942 -0.006746  0.000000
  1C   4s        -0.152862  0.000000 -0.000000  2.170105 -0.625985  0.000000
  1C   5s        -0.014471  0.000000 -0.000000  2.627588 -0.261721 -0.000000
  1C   1pz        0.216517 -0.000000  0.000000 -0.019035  0.002508  0.000000
  1C   1px        0.000000  0.165143  0.000039 -0.000000 -0.000000 -0.018608
  1C   1py       -0.000000 -0.000039  0.165143 -0.000000 -0.000000 -0.000114
  1C   2pz        0.277824 -0.000000  0.000000 -0.123520  0.044142 -0.000000
  1C   2px        0.000000  0.223847  0.000053  0.000000  0.000000 -0.096211
  1C   2py       -0.000000 -0.000053  0.223847  0.000000 -0.000000 -0.000589
  1C   3pz        0.176469 -0.000000  0.000000 -0.336394  1.294744 -0.000000
  1C   3px        0.000000  0.221660  0.000053  0.000000  0.000000 -0.916547
  1C   3py       -0.000000 -0.000053  0.221660 -0.000000 -0.000002 -0.005616
  1C   4pz        0.013359  0.000000  0.000000 -0.191634  1.954132 -0.000000
  1C   4px       -0.000000  0.010323  0.000002  0.000000  0.000000 -1.507716
  1C   4py       -0.000000 -0.000002  0.010323 -0.000000 -0.000002 -0.009238
  1C   1dz2       0.016062 -0.000000  0.000000 -0.002293  0.001315  0.000000
  1C   1dxz      -0.000000 -0.013570 -0.000003  0.000000 -0.000000 -0.000084
  1C   1dyz       0.000000  0.000003 -0.013570 -0.000000 -0.000000 -0.000001
  1C   1dx2y2    -0.000000 -0.000003  0.012072  0.000000 -0.000000 -0.000010
  1C   1dxy       0.000000  0.012072  0.000003  0.000000  0.000000 -0.001705
  1C   2dz2       0.044548 -0.000000  0.000000 -0.049388  0.033684 -0.000000
  1C   2dxz      -0.000000 -0.034251 -0.000008 -0.000000 -0.000000  0.029497
  1C   2dyz       0.000000  0.000008 -0.034251  0.000000  0.000000  0.000181
  1C   2dx2y2    -0.000000 -0.000008  0.033806 -0.000000 -0.000000 -0.000287
  1C   2dxy       0.000000  0.033806  0.000008  0.000000  0.000000 -0.046913
  1C   3dz2       0.017743 -0.000000  0.000000 -0.117474  0.232464 -0.000000
  1C   3dxz      -0.000000  0.009784  0.000002  0.000000 -0.000000  0.073880
  1C   3dyz       0.000000 -0.000002  0.009784  0.000000  0.000000  0.000453
  1C   3dx2y2    -0.000000 -0.000008  0.031450 -0.000000 -0.000000 -0.000545
  1C   3dxy       0.000000  0.031450  0.000008  0.000000  0.000000 -0.088971
  1C   1f0        0.005425 -0.000000  0.000000  0.004667  0.000405 -0.000000
  1C   1f+1      -0.000000 -0.002137 -0.000001 -0.000000 -0.000000  0.000547
  1C   1f-1       0.000000  0.000001 -0.002137  0.000000  0.000000  0.000003
  1C   1f+2       0.000000  0.000000 -0.001306  0.000000  0.000000  0.000011
  1C   1f-2      -0.000000 -0.001306 -0.000000 -0.000000 -0.000000  0.001830
  1C   1f+3       0.000000  0.000000  0.000000 -0.000000  0.000000 -0.000000
  1C   1f-3       0.001107 -0.000000  0.000000 -0.006692  0.002480 -0.000000
  1C   2f0       -0.002784  0.000000 -0.000000  0.042124 -0.019402 -0.000000
  1C   2f+1       0.000000 -0.003087 -0.000001 -0.000000  0.000000  0.013460
  1C   2f-1       0.000000  0.000001 -0.003087 -0.000000  0.000000  0.000082
  1C   2f+2       0.000000  0.000001 -0.006156  0.000000  0.000000 -0.000012
  1C   2f-2      -0.000000 -0.006156 -0.000001 -0.000000 -0.000000 -0.002014
  1C   2f+3      -0.000000  0.000000  0.000000 -0.000000 -0.000000 -0.000000
  1C   2f-3       0.016033 -0.000000  0.000000 -0.037416  0.009642 -0.000000
  2H   1s        -0.049819  0.000030 -0.126167  0.006560  0.004367 -0.000046
  2H   2s        -0.042484  0.000036 -0.152383 -0.184135 -0.087461  0.000800
  2H   3s         0.001784 -0.000003  0.014275 -1.033832 -0.924882  0.008194
  2H   4s         0.000758 -0.000000  0.000938 -0.667314 -1.970210  0.023255
  2H   1pz       -0.002568 -0.000001  0.004092 -0.000180  0.000604  0.000014
  2H   1px       -0.000000 -0.003392 -0.000001  0.000000 -0.000000 -0.001928
  2H   1py        0.005138 -0.000002  0.008378 -0.001973 -0.002121  0.000003
  2H   2pz       -0.016312 -0.000000  0.000563  0.029988 -0.003328 -0.000236
  2H   2px        0.000000 -0.010227 -0.000002 -0.000000  0.000000  0.014767
  2H   2py        0.002812  0.000002 -0.006466  0.068922  0.035436 -0.000254
  2H   3pz       -0.001556  0.000005 -0.019750  0.143552 -0.033639 -0.001440
  2H   3px       -0.000000 -0.013191 -0.000003 -0.000000  0.000000  0.193612
  2H   3py       -0.007878  0.000004 -0.018256  0.186342  0.221438 -0.001048
  2H   1dz2       0.002300 -0.000000  0.000500  0.001581  0.000404 -0.000008
  2H   1dxz      -0.000000  0.000344  0.000000  0.000000 -0.000000  0.000962
  2H   1dyz       0.001409  0.000000 -0.001215 -0.002301 -0.001129  0.000011
  2H   1dx2y2     0.001421 -0.000000  0.001177  0.003186  0.000774 -0.000014
  2H   1dxy       0.000000  0.001402  0.000000  0.000000 -0.000000  0.000605
  2H   2dz2       0.002854  0.000000 -0.001024  0.002012  0.010916  0.000120
  2H   2dxz       0.000000  0.000225  0.000000 -0.000000 -0.000000 -0.009434
  2H   2dyz       0.002362 -0.000000  0.001397 -0.012168  0.008627  0.000093
  2H   2dx2y2     0.000366  0.000000 -0.001897  0.001345  0.002287  0.000037
  2H   2dxy       0.000000  0.001817  0.000000  0.000000 -0.000000 -0.022283
  3H   1s        -0.049819 -0.109279  0.063057  0.006560  0.004367 -0.006538
  3H   2s        -0.042484 -0.131986  0.076160 -0.184135 -0.087462  0.112609
  3H   3s         0.001784  0.012364 -0.007135 -1.033831 -0.924886  1.154112
  3H   4s         0.000758  0.000812 -0.000469 -0.667313 -1.970219  3.275362
  3H   1pz       -0.002568  0.003544 -0.002045 -0.000180  0.000604  0.001993
  3H   1px        0.004450  0.005437 -0.005095 -0.001709 -0.001837 -0.000176
  3H   1py       -0.002569 -0.005096 -0.000450  0.000987  0.001061 -0.001023
  3H   2pz       -0.016312  0.000487 -0.000281  0.029988 -0.003328 -0.033214
  3H   2px        0.002435 -0.007406 -0.001630  0.059688  0.030689 -0.027205
  3H   2py       -0.001406 -0.001626 -0.009287 -0.034461 -0.017718  0.024323
  3H   3pz       -0.001556 -0.017106  0.009871  0.143552 -0.033638 -0.202794
  3H   3px       -0.006823 -0.016990  0.002189  0.161377  0.191771 -0.078913
  3H   3py        0.003939  0.002196 -0.014457 -0.093171 -0.110719  0.158528
  3H   1dz2       0.002300  0.000433 -0.000250  0.001581  0.000404 -0.001156
  3H   1dxz       0.001220 -0.000826  0.000675 -0.001993 -0.000977  0.001544
  3H   1dyz      -0.000704  0.000675 -0.000045  0.001151  0.000564 -0.000330
  3H   1dx2y2    -0.000710  0.000097  0.001346 -0.001593 -0.000387  0.001229
  3H   1dxy       0.001231  0.001233  0.000098  0.002759  0.000670 -0.001517
  3H   2dz2       0.002854 -0.000887  0.000512  0.002012  0.010916  0.016848
  3H   2dxz       0.002045  0.001104 -0.000507 -0.010538  0.007472  0.008965
  3H   2dyz      -0.001181 -0.000508  0.000518  0.006084 -0.004314 -0.010681
  3H   2dx2y2    -0.000183  0.001608  0.000889 -0.000672 -0.001144 -0.012322
  3H   2dxy       0.000317 -0.000969  0.001608  0.001165  0.001981 -0.001177
  4H   1s        -0.049819  0.109248  0.063109  0.006560  0.004367  0.006584
  4H   2s        -0.042484  0.131949  0.076223 -0.184135 -0.087462 -0.113409
  4H   3s         0.001784 -0.012361 -0.007140 -1.033831 -0.924886 -1.162306
  4H   4s         0.000758 -0.000812 -0.000469 -0.667313 -1.970219 -3.298617
  4H   1pz       -0.002568 -0.003543 -0.002047 -0.000180  0.000604 -0.002007
  4H   1px       -0.004450  0.005434  0.005098  0.001709  0.001837 -0.000164
  4H   1py       -0.002569  0.005097 -0.000448  0.000987  0.001061  0.001007
  4H   2pz       -0.016312 -0.000487 -0.000281  0.029988 -0.003328  0.033450
  4H   2px       -0.002435 -0.007406  0.001627 -0.059688 -0.030689 -0.027503
  4H   2py       -0.001406  0.001631 -0.009286 -0.034461 -0.017718 -0.024314
  4H   3pz       -0.001556  0.017101  0.009879  0.143552 -0.033638  0.204234
  4H   3px        0.006823 -0.016989 -0.002197 -0.161377 -0.191771 -0.080848
  4H   3py        0.003939 -0.002189 -0.014458 -0.093171 -0.110719 -0.157273
  4H   1dz2       0.002300 -0.000433 -0.000250  0.001581  0.000404  0.001165
  4H   1dxz      -0.001220 -0.000825 -0.000676  0.001993  0.000977  0.001548
  4H   1dyz      -0.000704 -0.000675 -0.000046  0.001151  0.000564  0.000345
  4H   1dx2y2    -0.000710 -0.000098  0.001346 -0.001593 -0.000387 -0.001230
  4H   1dxy      -0.001231  0.001233 -0.000097 -0.002759 -0.000670 -0.001532
  4H   2dz2       0.002854  0.000886  0.000512  0.002012  0.010916 -0.016968
  4H   2dxz      -0.002045  0.001104  0.000508  0.010538 -0.007472  0.009096
  4H   2dyz      -0.001181  0.000507  0.000518  0.006084 -0.004314  0.010640
  4H   2dx2y2    -0.000183 -0.001609  0.000888 -0.000672 -0.001144  0.012136
  4H   2dxy      -0.000317 -0.000968 -0.001609 -0.001165 -0.001981 -0.001027
  5H   1s        -0.049819  0.109248  0.063109  0.006560 -0.004367 -0.006584
  5H   2s        -0.042484  0.131949  0.076223 -0.184135  0.087462  0.113409
  5H   3s         0.001784 -0.012361 -0.007140 -1.033831  0.924886  1.162306
  5H   4s         0.000758 -0.000812 -0.000469 -0.667313  1.970219  3.298617
  5H   1pz        0.002568  0.003543  0.002047  0.000180  0.000604 -0.002007
  5H   1px        0.004450 -0.005434 -0.005098 -0.001709  0.001837 -0.000164
  5H   1py        0.002569 -0.005097  0.000448 -0.000987  0.001061  0.001007
  5H   2pz        0.016312  0.000487  0.000281 -0.029988 -0.003328  0.033450
  5H   2px        0.002435  0.007406 -0.001627  0.059688 -0.030689 -0.027503
  5H   2py        0.001406 -0.001631  0.009286  0.034461 -0.017718 -0.024314
  5H   3pz        0.001556 -0.017101 -0.009879 -0.143552 -0.033638  0.204234
  5H   3px       -0.006823  0.016989  0.002197  0.161377 -0.191771 -0.080848
  5H   3py       -0.003939  0.002189  0.014458  0.093171 -0.110719 -0.157273
  5H   1dz2       0.002300 -0.000433 -0.000250  0.001581 -0.000404 -0.001165
  5H   1dxz      -0.001220 -0.000825 -0.000676  0.001993 -0.000977 -0.001548
  5H   1dyz      -0.000704 -0.000675 -0.000046  0.001151 -0.000564 -0.000345
  5H   1dx2y2    -0.000710 -0.000098  0.001346 -0.001593  0.000387  0.001230
  5H   1dxy      -0.001231  0.001233 -0.000097 -0.002759  0.000670  0.001532
  5H   2dz2       0.002854  0.000886  0.000512  0.002012 -0.010916  0.016968
  5H   2dxz      -0.002045  0.001104  0.000508  0.010538  0.007472 -0.009096
  5H   2dyz      -0.001181  0.000507  0.000518  0.006084  0.004314 -0.010640
  5H   2dx2y2    -0.000183 -0.001609  0.000888 -0.000672  0.001144 -0.012136
  5H   2dxy      -0.000317 -0.000968 -0.001609 -0.001165  0.001981  0.001027
  6H   1s        -0.049819 -0.109279  0.063057  0.006560 -0.004367  0.006538
  6H   2s        -0.042484 -0.131986  0.076160 -0.184135  0.087462 -0.112609
  6H   3s         0.001784  0.012364 -0.007135 -1.033831  0.924886 -1.154112
  6H   4s         0.000758  0.000812 -0.000469 -0.667313  1.970219 -3.275362
  6H   1pz        0.002568 -0.003544  0.002045  0.000180  0.000604  0.001993
  6H   1px       -0.004450 -0.005437  0.005095  0.001709 -0.001837 -0.000176
  6H   1py        0.002569  0.005096  0.000450 -0.000987  0.001061 -0.001023
  6H   2pz        0.016312 -0.000487  0.000281 -0.029988 -0.003328 -0.033214
  6H   2px       -0.002435  0.007406  0.001630 -0.059688  0.030689 -0.027205
  6H   2py        0.001406  0.001626  0.009287  0.034461 -0.017718  0.024323
  6H   3pz        0.001556  0.017106 -0.009871 -0.143552 -0.033638 -0.202794
  6H   3px        0.006823  0.016990 -0.002189 -0.161377  0.191771 -0.078913
  6H   3py       -0.003939 -0.002196  0.014457  0.093171 -0.110719  0.158528
  6H   1dz2       0.002300  0.000433 -0.000250  0.001581 -0.000404  0.001156
  6H   1dxz       0.001220 -0.000826  0.000675 -0.001993  0.000977 -0.001544
  6H   1dyz      -0.000704  0.000675 -0.000045  0.001151 -0.000564  0.000330
  6H   1dx2y2    -0.000710  0.000097  0.001346 -0.001593  0.000387 -0.001229
  6H   1dxy       0.001231  0.001233  0.000098  0.002759 -0.000670  0.001517
  6H   2dz2       0.002854 -0.000887  0.000512  0.002012 -0.010916 -0.016848
  6H   2dxz       0.002045  0.001104 -0.000507 -0.010538 -0.007472 -0.008965
  6H   2dyz      -0.001181 -0.000508  0.000518  0.006084  0.004314  0.010681
  6H   2dx2y2    -0.000183  0.001608  0.000889 -0.000672  0.001144  0.012322
  6H   2dxy       0.000317 -0.000969  0.001608  0.001165 -0.001981  0.001177
  7H   1s        -0.049819  0.000030 -0.126167  0.006560 -0.004367  0.000046
  7H   2s        -0.042484  0.000036 -0.152383 -0.184135  0.087461 -0.000800
  7H   3s         0.001784 -0.000003  0.014275 -1.033832  0.924882 -0.008194
  7H   4s         0.000758 -0.000000  0.000938 -0.667314  1.970210 -0.023255
  7H   1pz        0.002568  0.000001 -0.004092  0.000180  0.000604  0.000014
  7H   1px        0.000000  0.003392  0.000001 -0.000000 -0.000000 -0.001928
  7H   1py       -0.005138  0.000002 -0.008378  0.001973 -0.002121  0.000003
  7H   2pz        0.016312  0.000000 -0.000563 -0.029988 -0.003328 -0.000236
  7H   2px       -0.000000  0.010227  0.000002  0.000000  0.000000  0.014767
  7H   2py       -0.002812 -0.000002  0.006466 -0.068922  0.035436 -0.000254
  7H   3pz        0.001556 -0.000005  0.019750 -0.143552 -0.033639 -0.001440
  7H   3px        0.000000  0.013191  0.000003  0.000000  0.000000  0.193612
  7H   3py        0.007878 -0.000004  0.018256 -0.186342  0.221438 -0.001048
  7H   1dz2       0.002300 -0.000000  0.000500  0.001581 -0.000404  0.000008
  7H   1dxz      -0.000000  0.000344  0.000000  0.000000  0.000000 -0.000962
  7H   1dyz       0.001409  0.000000 -0.001215 -0.002301  0.001129 -0.000011
  7H   1dx2y2     0.001421 -0.000000  0.001177  0.003186 -0.000774  0.000014
  7H   1dxy       0.000000  0.001402  0.000000  0.000000  0.000000 -0.000605
  7H   2dz2       0.002854  0.000000 -0.001024  0.002012 -0.010916 -0.000120
  7H   2dxz       0.000000  0.000225  0.000000 -0.000000  0.000000  0.009434
  7H   2dyz       0.002362 -0.000000  0.001397 -0.012168 -0.008627 -0.000093
  7H   2dx2y2     0.000366  0.000000 -0.001897  0.001345 -0.002287 -0.000037
  7H   2dxy       0.000000  0.001817  0.000000  0.000000  0.000000  0.022283
                     12        13        14        15        16        17   
                   0.04347   0.06776   0.06776   0.10099   0.12023   0.12023
                   0.00000   0.00000   0.00000   0.00000   0.00000   0.00000
                  --------  --------  --------  --------  --------  --------
  0C   1s        -0.000000  0.000000 -0.000000 -0.003321  0.000000 -0.000000
  0C   2s        -0.000000  0.000000  0.000000  0.014167  0.000000 -0.000000
  0C   3s        -0.000000  0.000000  0.000000 -0.010723  0.000000  0.000000
  0C   4s         0.000000  0.000000 -0.000001  1.402701 -0.000000 -0.000001
  0C   5s         0.000001 -0.000000 -0.000000  1.108665 -0.000000 -0.000000
  0C   1pz       -0.000000  0.000000  0.000000 -0.014996  0.000000  0.000000
  0C   1px        0.000114 -0.015472 -0.000026  0.000000  0.010115 -0.000008
  0C   1py       -0.018608  0.000026 -0.015472  0.000000  0.000008  0.010115
  0C   2pz       -0.000000 -0.000000 -0.000000 -0.014307 -0.000000 -0.000000
  0C   2px        0.000589 -0.092801 -0.000154 -0.000000  0.147235 -0.000121
  0C   2py       -0.096211  0.000154 -0.092801 -0.000000  0.000121  0.147235
  0C   3pz       -0.000002 -0.000000 -0.000000  1.211404 -0.000000 -0.000000
  0C   3px        0.005616 -1.267519 -0.002099 -0.000000 -1.919460  0.001580
  0C   3py       -0.916547  0.002099 -1.267519 -0.000000 -0.001580 -1.919460
  0C   4pz       -0.000003 -0.000000 -0.000000  2.548232  0.000000  0.000000
  0C   4px        0.009238 -2.586231 -0.004283  0.000000 -5.154875  0.004243
  0C   4py       -1.507716  0.004283 -2.586230  0.000000 -0.004243 -5.154875
  0C   1dz2       0.000000  0.000000  0.000000  0.005650  0.000000  0.000000
  0C   1dxz      -0.000001 -0.001590 -0.000003  0.000000  0.000353 -0.000000
  0C   1dyz       0.000084  0.000003 -0.001590  0.000000  0.000000  0.000353
  0C   1dx2y2     0.001705 -0.000004  0.002368  0.000000 -0.000004 -0.004939
  0C   1dxy      -0.000010  0.002368  0.000004  0.000000 -0.004939  0.000004
  0C   2dz2       0.000000 -0.000000  0.000000  0.007091 -0.000000  0.000000
  0C   2dxz       0.000181 -0.058999 -0.000098 -0.000000  0.073361 -0.000060
  0C   2dyz      -0.029497  0.000098 -0.058999 -0.000000  0.000060  0.073361
  0C   2dx2y2     0.046913 -0.000007  0.004288  0.000000 -0.000071 -0.086808
  0C   2dxy      -0.000287  0.004288  0.000007  0.000000 -0.086808  0.000071
  0C   3dz2       0.000000  0.000000  0.000000 -0.156966  0.000000 -0.000000
  0C   3dxz       0.000453 -0.799267 -0.001324  0.000000  0.491880 -0.000405
  0C   3dyz      -0.073880  0.001324 -0.799267 -0.000000  0.000405  0.491880
  0C   3dx2y2     0.088971  0.000034 -0.020253  0.000000  0.000309  0.375354
  0C   3dxy      -0.000545 -0.020253 -0.000034  0.000000  0.375354 -0.000309
  0C   1f0       -0.000000  0.000000  0.000000 -0.002128  0.000000  0.000000
  0C   1f+1      -0.000003  0.000956  0.000002  0.000000  0.004322 -0.000004
  0C   1f-1       0.000547 -0.000002  0.000956 -0.000000  0.000004  0.004322
  0C   1f+2       0.001830 -0.000004  0.002414  0.000000 -0.000002 -0.002480
  0C   1f-2      -0.000011  0.002414  0.000004  0.000000 -0.002480  0.000002
  0C   1f+3       0.000000  0.000000  0.000000 -0.000000  0.000000  0.000000
  0C   1f-3      -0.000000 -0.000000 -0.000000 -0.000185 -0.000000 -0.000000
[...]

Total number of grid points                  ...     9702
Total number of batches                      ...      155
Average number of points per batch           ...       62
Average number of grid points per atom       ...     1213
UseSFitting                                  ... on

 re-compute Schwartz prescreening matrix in partically contracted basis (3) ...done (   0.006 sec)
done (  324.2)
done (   31.8)
Building the initial guess                 ... done (    0.0)
Solving Root No   1 

Iter    Delta-E          Residual              Time
---------------------------------------------------
  0   0.345868672435   0.000314951025         0.005
  1   0.000908801449   0.000036570370         0.004
  2   0.000195255596   0.000006833847         0.004

      *** CONVERGENCE OF RESIDUAL NORM REACHED ***
       --- The STEOM iterations have converged ---
Solving Root No   2 

Iter    Delta-E          Residual              Time
---------------------------------------------------
  0   0.345863369114   0.000314583189         0.005
  1   0.000902804840   0.000036072596         0.004
  2   0.000193359475   0.000006682032         0.004

      *** CONVERGENCE OF RESIDUAL NORM REACHED ***
       --- The STEOM iterations have converged ---
Solving Root No   3 

Iter    Delta-E          Residual              Time
---------------------------------------------------
  0   0.370558406683   0.000316872383         0.005
  1   0.001011775866   0.000061888468         0.004
  2   0.000316621804   0.000035985046         0.004
  3   0.000108011426   0.000047317023         0.004
  4   0.000049709063   0.000014201230         0.004
  5   0.000016717309   0.000001962896         0.004

      *** CONVERGENCE OF RESIDUAL NORM REACHED ***
       --- The STEOM iterations have converged ---
Solving Root No   4 

Iter    Delta-E          Residual              Time
---------------------------------------------------
  0   0.370557152510   0.000315303629         0.005
  1   0.001007522958   0.000061383582         0.004
  2   0.000315010940   0.000036267233         0.004
  3   0.000108138609   0.000047672232         0.004
  4   0.000049545469   0.000014296797         0.004
  5   0.000016544119   0.000001926621         0.004

      *** CONVERGENCE OF RESIDUAL NORM REACHED ***
       --- The STEOM iterations have converged ---
Solving Root No   5 

Iter    Delta-E          Residual              Time
---------------------------------------------------
  0   0.365745671364   0.000287933129         0.005
  1   0.000332871777   0.000015283055         0.004
  2   0.000076796337   0.000004678592         0.004

      *** CONVERGENCE OF RESIDUAL NORM REACHED ***
       --- The STEOM iterations have converged ---
Solving Root No   6 

Iter    Delta-E          Residual              Time
---------------------------------------------------
  0   0.381222752116   0.000259333599         0.004
  1   0.000653614277   0.000039745728         0.004
  2   0.000082962324   0.000011480602         0.004
  3   0.000131158988   0.000016083908         0.004
  4   0.000071733882   0.000020064082         0.004
  5   0.000032268747   0.000004903223         0.004

      *** CONVERGENCE OF RESIDUAL NORM REACHED ***
       --- The STEOM iterations have converged ---
Solving Root No   7 

Iter    Delta-E          Residual              Time
---------------------------------------------------
  0   0.381784831946   0.000146458743         0.004
  1   0.000512639590   0.000029495594         0.004
  2   0.000768430794   0.000272540336         0.004
  3   0.001890487045   0.000296444717         0.004
  4   0.000615437358   0.000025773869         0.004
  5   0.000034203423   0.000004343696         0.004

      *** CONVERGENCE OF RESIDUAL NORM REACHED ***
       --- The STEOM iterations have converged ---
Solving Root No   8 

Iter    Delta-E          Residual              Time
---------------------------------------------------
  0   0.381775501577   0.000145740653         0.004
  1   0.000510768031   0.000029273570         0.004
  2   0.000767534124   0.000274105400         0.004
  3   0.001891118519   0.000292947847         0.004
  4   0.000616918912   0.000025196459         0.004
  5   0.000031949703   0.000003918988         0.004

      *** CONVERGENCE OF RESIDUAL NORM REACHED ***
       --- The STEOM iterations have converged ---
Solving Root No   9 

Iter    Delta-E          Residual              Time
---------------------------------------------------
  0   0.384483865258   0.000133351272         0.004
  1   0.000438637741   0.000007072772         0.004

      *** CONVERGENCE OF RESIDUAL NORM REACHED ***
       --- The STEOM iterations have converged ---
Solving Root No  10 

Iter    Delta-E          Residual              Time
---------------------------------------------------
  0   0.398561105759   0.000376143332         0.005
  1   0.000642932579   0.000032717066         0.004
  2   0.000441137955   0.000009033703         0.004

      *** CONVERGENCE OF RESIDUAL NORM REACHED ***
       --- The STEOM iterations have converged ---

------------------
STEOM-CCSD RESULTS
------------------

IROOT=  1:  0.344765 au     9.382 eV   75667.1 cm**-1
  Amplitude    Excitation
  -0.121115     5 ->  11
  -0.974182     7 ->   9
  -0.111369     8 ->   9
  Ground state amplitude: -0.000003

Percentage Active Character     99.81

  Amplitude    Excitation in Canonical Basis
  -0.856779     7 ->   9
  -0.131847     7 ->  15
  -0.436402     7 ->  21

IROOT=  2:  0.344767 au     9.382 eV   75667.7 cm**-1
  Amplitude    Excitation
   0.122029     4 ->  11
   0.111444     7 ->   9
  -0.974194     8 ->   9
  Ground state amplitude: -0.000014

Percentage Active Character     99.81

  Amplitude    Excitation in Canonical Basis
  -0.856791     8 ->   9
  -0.131813     8 ->  15
  -0.436395     8 ->  21

IROOT=  3:  0.365336 au     9.941 eV   80182.0 cm**-1
  Amplitude    Excitation
   0.996895     6 ->   9
  Ground state amplitude:  0.004289

Percentage Active Character     99.66

  Amplitude    Excitation in Canonical Basis
  -0.880838     6 ->   9
  -0.159586     6 ->  15
  -0.424462     6 ->  21

IROOT=  4:  0.369056 au    10.043 eV   80998.3 cm**-1
  Amplitude    Excitation
  -0.177753     4 ->   9
  -0.116006     4 ->  13
  -0.104506     6 ->  12
   0.204702     7 ->  10
   0.918066     8 ->  11
  -0.196019     8 ->  12
   0.116794     8 ->  16
  Ground state amplitude: -0.000000

Percentage Active Character     99.81

  Amplitude    Excitation in Canonical Basis
  -0.169911     4 ->   9
   0.180891     7 ->  11
   0.804460     8 ->  10
  -0.182686     8 ->  12
  -0.349726     8 ->  18
  -0.261687     8 ->  22

IROOT=  5:  0.369060 au    10.043 eV   80999.4 cm**-1
  Amplitude    Excitation
   0.177727     5 ->   9
   0.121183     5 ->  13
  -0.104651     6 ->  10
   0.913696     7 ->  11
   0.215475     7 ->  12
   0.116804     7 ->  16
   0.204620     8 ->  10
  Ground state amplitude:  0.000000

Percentage Active Character     99.81

  Amplitude    Excitation in Canonical Basis
  -0.169902     5 ->   9
   0.804832     7 ->  10
   0.180964     7 ->  12
  -0.349904     7 ->  18
  -0.261805     7 ->  22
   0.180842     8 ->  11

IROOT=  6:  0.380251 au    10.347 eV   83455.5 cm**-1
  Amplitude    Excitation
  -0.337251     6 ->  11
   0.658964     7 ->  10
   0.658410     8 ->  12
  Ground state amplitude: -0.000000

Percentage Active Character     99.31

  Amplitude    Excitation in Canonical Basis
   0.293209     6 ->  10
  -0.122459     6 ->  18
   0.606993     7 ->  11
   0.246453     7 ->  19
   0.606985     8 ->  12
   0.246439     8 ->  20

IROOT=  7:  0.381739 au    10.388 eV   83782.1 cm**-1
  Amplitude    Excitation
  -0.337724     7 ->  11
   0.657124     7 ->  12
   0.662728     8 ->  10
  Ground state amplitude:  0.000000

Percentage Active Character     99.74

  Amplitude    Excitation in Canonical Basis
  -0.295580     7 ->  10
   0.601265     7 ->  12
   0.126381     7 ->  18
   0.260933     7 ->  20
   0.602619     8 ->  11
   0.261477     8 ->  19

IROOT=  8:  0.381745 au    10.388 eV   83783.3 cm**-1
  Amplitude    Excitation
  -0.661750     7 ->  10
   0.321365     8 ->  11
   0.666153     8 ->  12
  Ground state amplitude:  0.000000

Percentage Active Character     99.74

  Amplitude    Excitation in Canonical Basis
  -0.601768     7 ->  11
  -0.261078     7 ->  19
   0.294795     8 ->  10
   0.602473     8 ->  12
  -0.126069     8 ->  18
   0.261470     8 ->  20

IROOT=  9:  0.384045 au    10.450 eV   84288.2 cm**-1
  Amplitude    Excitation
  -0.702452     7 ->  12
   0.702937     8 ->  10
  Ground state amplitude: -0.000000

Percentage Active Character     99.76

  Amplitude    Excitation in Canonical Basis
  -0.637136     7 ->  12
  -0.279109     7 ->  20
   0.637336     8 ->  11
   0.279216     8 ->  19

IROOT= 10:  0.397477 au    10.816 eV   87236.1 cm**-1
  Amplitude    Excitation
   0.984994     6 ->  12
   0.159172     8 ->  11
  Ground state amplitude:  0.000000

Percentage Active Character     99.78

  Amplitude    Excitation in Canonical Basis
  -0.894327     6 ->  12
  -0.387592     6 ->  20
   0.151083     8 ->  10


STEOM-CCSD done (   32.4 sec)
Calculating the Dipole integrals                  ... done
Transforming integrals                            ... done
Calculating the Linear Momentum integrals         ... done
Transforming integrals                            ... done
Calculating angular momentum integrals            ... done
Transforming integrals                            ... done

--------------------------------------------------------------------
               UNRELAXED EXCITED STATE DIPOLE MOMENTS
--------------------------------------------------------------------
               E(eV)     DX(au)      DY(au)      DZ(au)      |D|(D)
IROOT=  0:     0.000   -0.000000    0.000000    0.000000    0.000000
IROOT=  1:     9.382    0.000004   -0.000003    0.000002    0.000014
IROOT=  2:     9.382   -0.000002    0.000008    0.000005    0.000023
IROOT=  3:     9.941   -0.000000   -0.000000    0.000001    0.000001
IROOT=  4:    10.043   -0.000001   -0.000004   -0.000007    0.000020
IROOT=  5:    10.043    0.000001    0.000002   -0.000002    0.000008
IROOT=  6:    10.347    0.000001   -0.000005   -0.000001    0.000012
IROOT=  7:    10.388    0.000002   -0.000001    0.000000    0.000007
IROOT=  8:    10.388   -0.000004   -0.000000    0.000000    0.000011
IROOT=  9:    10.450    0.000000   -0.000001    0.000000    0.000002
IROOT= 10:    10.816    0.000000   -0.000001   -0.000000    0.000003
--------------------------------------------------------------------

-----------------------------------------------------------------------------
         ABSORPTION SPECTRUM VIA TRANSITION ELECTRIC DIPOLE MOMENTS
-----------------------------------------------------------------------------
State   Energy  Wavelength   fosc         T2         TX        TY        TZ  
        (cm-1)    (nm)                  (au**2)     (au)      (au)      (au) 
-----------------------------------------------------------------------------
   1   75667.1    132.2   0.000000000   0.00000   0.00000   0.00000   0.00000
   2   75667.7    132.2   0.000000000   0.00000   0.00000   0.00000   0.00000
   3   80182.0    124.7   0.000000000   0.00000   0.00000   0.00000   0.00000
   4   80998.3    123.5   0.113777483   0.46244   0.00484   0.68001   0.00094
   5   80999.4    123.5   0.111272092   0.45225   0.67248   0.00477   0.00002
   6   83455.5    119.8   0.147593349   0.58222   0.00001   0.00028   0.76303
   7   83782.1    119.4   0.002194183   0.00862   0.09285   0.00080   0.00003
   8   83783.3    119.4   0.002099962   0.00825   0.00075   0.09082   0.00171
   9   84288.2    118.6   0.000000055   0.00000   0.00046   0.00000   0.00000
  10   87236.1    114.6   0.020178108   0.07615   0.00232   0.27569   0.01146

-------------------------------------------------------------------
                             CD SPECTRUM
-------------------------------------------------------------------
State   Energy Wavelength       R         MX        MY        MZ   
        (cm-1)   (nm)       (1e40*cgs)   (au)      (au)      (au)  
-------------------------------------------------------------------
   1     132.2   75667.1      0.00005  -0.04943   0.46237   0.00003
   2     132.2   75667.7      0.00001  -0.46203  -0.04952   0.00004
   3     124.7   80182.0     -0.00000   0.00002   0.00001  -0.00005
   4     123.5   80998.3     -0.00004   0.00000   0.00000  -0.00000
   5     123.5   80999.4      0.00001  -0.00000  -0.00000  -0.00000
   6     119.8   83455.5     -0.00001  -0.00000  -0.00000  -0.00000
   7     119.4   83782.1     -0.00000   0.00000  -0.00000  -0.00000
   8     119.4   83783.3     -0.00001  -0.00000  -0.00000  -0.00000
   9     118.6   84288.2     -0.00000  -0.00000  -0.00000   0.00000
  10     114.6   87236.1      0.00000  -0.00000   0.00000  -0.00000

TDM done (   32.7 sec)
STEOM-CCSD done in (   32.7)


------------------------------------------------------------------------------- 
                                     TIMINGS                                   
------------------------------------------------------------------------------- 


Total execution time                   ...      331.641 sec

Localization of occupied MO's          ...        3.347 sec (  1.0%)
Fock Matrix Formation                  ...        2.701 sec (  0.8%)
Global overlap, Fock, MKN matrices     ...        0.226 sec (  0.1%)
Differential overlap integrals         ...        0.217 sec (  0.1%)
Organizing maps                        ...        0.009 sec (  0.0%)
RI 3-index integral generations        ...        1.165 sec (  0.4%)
RI-PNO integral transformation         ...      214.991 sec ( 64.8%)
Initial Guess                          ...        0.528 sec (  0.2%)
DIIS Solver                            ...        0.034 sec (  0.0%)
State Vector Update                    ...        0.003 sec (  0.0%)
Sigma-vector construction              ...       21.466 sec (  6.5%)
  <D|H|D>(0-ext)                       ...        0.098 sec (  0.5% of sigma)
  <D|H|D>(2-ext Fock)                  ...        0.002 sec (  0.0% of sigma)
  <D|H|D>(2-ext)                       ...        1.386 sec (  6.5% of sigma)
  <D|H|D>(4-ext)                       ...        6.056 sec ( 28.2% of sigma)
  <D|H|D>(4-ext-corr)                  ...        7.452 sec ( 34.7% of sigma)
  CCSD doubles correction              ...        0.014 sec (  0.1% of sigma)
  <S|H|S>                              ...        0.164 sec (  0.8% of sigma)
  <S|H|D>(1-ext)                       ...        0.026 sec (  0.1% of sigma)
  <S|H|D>(3-ext)                       ...        0.478 sec (  2.2% of sigma)
  Fock-dressing                        ...        3.289 sec ( 15.3% of sigma)
  Singles amplitudes                   ...        0.044 sec (  0.2% of sigma)
  (ik|jl)-dressing                     ...        0.073 sec (  0.3% of sigma)
  (ij|ab),(ia|jb)-dressing             ...        0.867 sec (  4.0% of sigma)
  Pair energies                        ...        0.002 sec (  0.0% of sigma)
Total Time for computing EOM-CCSD      ...       40.727 sec ( 12.3% of ALL)
  Dressing integrals                   ...        0.454 sec (  1.1% of (EOM))
  Initial EOM-Guess                    ...        0.001 sec (  0.0% of (EOM))
  EOM Singles                          ...        0.763 sec (  1.9% of (EOM))
  EOM Doubles                          ...       37.532 sec ( 92.2% of (EOM))
  Build Hamiltonian                    ...        0.173 sec (  0.4% of (EOM))
  Diagonalize Hamiltonian              ...        0.036 sec (  0.1% of (EOM))
  Ritz vectors                         ...        0.389 sec (  1.0% of (EOM))
  Residual vectors                     ...        0.471 sec (  1.2% of (EOM))
One-particle density matrix            ...        0.098 sec (  0.0%)


Maximum memory used throughout the entire MDCI-calculation: 609.7 MB

-------------------------   --------------------
FINAL SINGLE POINT ENERGY       -79.321408885350
-------------------------   --------------------


                            ***************************************
                            *     ORCA property calculations      *
                            ***************************************

                                    ---------------------
                                    Active property flags
                                    ---------------------
   (+) Dipole Moment


------------------------------------------------------------------------------
                       ORCA ELECTRIC PROPERTIES CALCULATION
------------------------------------------------------------------------------

Dipole Moment Calculation                       ... on
Quadrupole Moment Calculation                   ... off
Polarizability Calculation                      ... off
GBWName                                         ... 000005.gbw
Electron density file                           ... 000005.scfp
The origin for moment calculation is the CENTER OF MASS  = ( 0.000000,  0.000000  0.000000)

-------------
DIPOLE MOMENT
-------------
                                X             Y             Z
Electronic contribution:      0.00000       0.00000       0.00000
Nuclear contribution   :      0.00000       0.00000      -0.00000
                        -----------------------------------------
Total Dipole Moment    :      0.00000       0.00000       0.00000
                        -----------------------------------------
Magnitude (a.u.)       :      0.00000
Magnitude (Debye)      :      0.00000



--------------------
Rotational spectrum 
--------------------
 
Rotational constants in cm-1:     2.694321     0.670174     0.670173 
Rotational constants in MHz : 80773.708275 20091.296636 20091.296078 

 Dipole components along the rotational axes: 
x,y,z [a.u.] :     0.000000     0.000000     0.000000 
x,y,z [Debye]:     0.000000     0.000000     0.000000 

 

                           *** MDCI DENSITY ***

------------------------------------------------------------------------------
                       ORCA ELECTRIC PROPERTIES CALCULATION
------------------------------------------------------------------------------

Dipole Moment Calculation                       ... on
Quadrupole Moment Calculation                   ... off
Polarizability Calculation                      ... off
GBWName                                         ... 000005.gbw
Electron density file                           ... 000005.mdcip
The origin for moment calculation is the CENTER OF MASS  = ( 0.000000,  0.000000  0.000000)

-------------
DIPOLE MOMENT
-------------
                                X             Y             Z
Electronic contribution:     -0.00000       0.00000       0.00000
Nuclear contribution   :      0.00000       0.00000      -0.00000
                        -----------------------------------------
Total Dipole Moment    :     -0.00000       0.00000       0.00000
                        -----------------------------------------
Magnitude (a.u.)       :      0.00000
Magnitude (Debye)      :      0.00000



--------------------
Rotational spectrum 
--------------------
 
Rotational constants in cm-1:     2.694321     0.670174     0.670173 
Rotational constants in MHz : 80773.708275 20091.296636 20091.296078 

 Dipole components along the rotational axes: 
x,y,z [a.u.] :     0.000000     0.000000    -0.000000 
x,y,z [Debye]:     0.000000     0.000000    -0.000000 

 

Timings for individual modules:

Sum of individual times         ...      359.911 sec (=   5.999 min)
GTO integral calculation        ...        2.673 sec (=   0.045 min)   0.7 %
SCF iterations                  ...       23.482 sec (=   0.391 min)   6.5 %
MDCI module                     ...      333.755 sec (=   5.563 min)  92.7 %
                             ****ORCA TERMINATED NORMALLY****
TOTAL RUN TIME: 0 days 0 hours 6 minutes 3 seconds 209 msec
