
                                        *****************
                                        * O   R   C   A *
                                        *****************

                                            #,                                       
                                            ###                                      
                                            ####                                     
                                            #####                                    
                                            ######                                   
                                           ########,                                 
                                     ,,################,,,,,                         
                               ,,#################################,,                 
                          ,,##########################################,,             
                       ,#########################################, ''#####,          
                    ,#############################################,,   '####,        
                  ,##################################################,,,,####,       
                ,###########''''           ''''###############################       
              ,#####''   ,,,,##########,,,,          '''####'''          '####       
            ,##' ,,,,###########################,,,                        '##       
           ' ,,###''''                  '''############,,,                           
         ,,##''                                '''############,,,,        ,,,,,,###''
      ,#''                                            '''#######################'''  
     '                                                          ''''####''''         
             ,#######,   #######,   ,#######,      ##                                
            ,#'     '#,  ##    ##  ,#'     '#,    #''#        ######   ,####,        
            ##       ##  ##   ,#'  ##            #'  '#       #        #'  '#        
            ##       ##  #######   ##           ,######,      #####,   #    #        
            '#,     ,#'  ##    ##  '#,     ,#' ,#      #,         ##   #,  ,#        
             '#######'   ##     ##  '#######'  #'      '#     #####' # '####'        



                  #######################################################
                  #                        -***-                        #
                  #          Department of theory and spectroscopy      #
                  #    Directorship and core code : Frank Neese         #
                  #        Max Planck Institute fuer Kohlenforschung    #
                  #                Kaiser Wilhelm Platz 1               #
                  #                 D-45470 Muelheim/Ruhr               #
                  #                      Germany                        #
                  #                                                     #
                  #                  All rights reserved                #
                  #                        -***-                        #
                  #######################################################


                         Program Version 5.0.0 -  RELEASE  -
                                (SVN: $Rev: 19529$)
                ($Date: 2021-06-28 11:36:33 +0200 (Mo, 28 Jun 2021) $)


 With contributions from (in alphabetic order):
   Daniel Aravena         : Magnetic Suceptibility
   Michael Atanasov       : Ab Initio Ligand Field Theory (pilot matlab implementation)
   Alexander A. Auer      : GIAO ZORA, VPT2 properties, NMR spectrum
   Ute Becker             : Parallelization
   Giovanni Bistoni       : ED, misc. LED, open-shell LED, HFLD
   Martin Brehm           : Molecular dynamics
   Dmytro Bykov           : SCF Hessian
   Vijay G. Chilkuri      : MRCI spin determinant printing, contributions to CSF-ICE
   Dipayan Datta          : RHF DLPNO-CCSD density
   Achintya Kumar Dutta   : EOM-CC, STEOM-CC
   Dmitry Ganyushin       : Spin-Orbit,Spin-Spin,Magnetic field MRCI
   Miquel Garcia          : C-PCM Hessian, Gaussian charge scheme
   Yang Guo               : DLPNO-NEVPT2, F12-NEVPT2, CIM, IAO-localization
   Andreas Hansen         : Spin unrestricted coupled pair/coupled cluster methods
   Benjamin Helmich-Paris : MC-RPA, TRAH-SCF, COSX integrals
   Lee Huntington         : MR-EOM, pCC
   Robert Izsak           : Overlap fitted RIJCOSX, COSX-SCS-MP3, EOM
   Marcus Kettner         : VPT2
   Christian Kollmar      : KDIIS, OOCD, Brueckner-CCSD(T), CCSD density, CASPT2, CASPT2-K
   Simone Kossmann        : Meta GGA functionals, TD-DFT gradient, OOMP2, MP2 Hessian
   Martin Krupicka        : Initial AUTO-CI
   Lucas Lang             : DCDCAS
   Marvin Lechner         : AUTO-CI (C++ implementation), FIC-MRCC
   Dagmar Lenk            : GEPOL surface, SMD
   Dimitrios Liakos       : Extrapolation schemes; Compound Job, initial MDCI parallelization
   Dimitrios Manganas     : Further ROCIS development; embedding schemes
   Dimitrios Pantazis     : SARC Basis sets
   Anastasios Papadopoulos: AUTO-CI, single reference methods and gradients
   Taras Petrenko         : DFT Hessian,TD-DFT gradient, ASA, ECA, R-Raman, ABS, FL, XAS/XES, NRVS
   Peter Pinski           : DLPNO-MP2, DLPNO-MP2 Gradient
   Christoph Reimann      : Effective Core Potentials
   Marius Retegan         : Local ZFS, SOC
   Christoph Riplinger    : Optimizer, TS searches, QM/MM, DLPNO-CCSD(T), (RO)-DLPNO pert. Triples
   Tobias Risthaus        : Range-separated hybrids, TD-DFT gradient, RPA, STAB
   Michael Roemelt        : Original ROCIS implementation
   Masaaki Saitow         : Open-shell DLPNO-CCSD energy and density
   Barbara Sandhoefer     : DKH picture change effects
   Avijit Sen             : IP-ROCIS
   Kantharuban Sivalingam : CASSCF convergence, NEVPT2, FIC-MRCI
   Bernardo de Souza      : ESD, SOC TD-DFT
   Georgi Stoychev        : AutoAux, RI-MP2 NMR
   Willem Van den Heuvel  : Paramagnetic NMR
   Boris Wezisla          : Elementary symmetry handling
   Frank Wennmohs         : Technical directorship


 We gratefully acknowledge several colleagues who have allowed us to
 interface, adapt or use parts of their codes:
   Stefan Grimme, W. Hujo, H. Kruse, P. Pracht,  : VdW corrections, initial TS optimization,
                  C. Bannwarth, S. Ehlert          DFT functionals, gCP, sTDA/sTD-DF
   Ed Valeev, F. Pavosevic, A. Kumar             : LibInt (2-el integral package), F12 methods
   Garnet Chan, S. Sharma, J. Yang, R. Olivares  : DMRG
   Ulf Ekstrom                                   : XCFun DFT Library
   Mihaly Kallay                                 : mrcc  (arbitrary order and MRCC methods)
   Jiri Pittner, Ondrej Demel                    : Mk-CCSD
   Frank Weinhold                                : gennbo (NPA and NBO analysis)
   Christopher J. Cramer and Donald G. Truhlar   : smd solvation model
   Lars Goerigk                                  : TD-DFT with DH, B97 family of functionals
   V. Asgeirsson, H. Jonsson                     : NEB implementation
   FAccTs GmbH                                   : IRC, NEB, NEB-TS, DLPNO-Multilevel, CI-OPT
                                                   MM, QMMM, 2- and 3-layer-ONIOM, Crystal-QMMM,
                                                   LR-CPCM, SF, NACMEs, symmetry and pop. for TD-DFT,
                                                   nearIR, NL-DFT gradient (VV10), updates on ESD,
                                                   ML-optimized integration grids
   S Lehtola, MJT Oliveira, MAL Marques          : LibXC Library
   Liviu Ungur et al                             : ANISO software


 Your calculation uses the libint2 library for the computation of 2-el integrals
 For citations please refer to: http://libint.valeyev.net

 Your ORCA version has been built with support for libXC version: 5.1.0
 For citations please refer to: https://tddft.org/programs/libxc/

 This ORCA versions uses:
   CBLAS   interface :  Fast vector & matrix operations
   LAPACKE interface :  Fast linear algebra routines
   SCALAPACK package :  Parallel linear algebra routines
   Shared memory     :  Shared parallel matrices
   BLAS/LAPACK       :  OpenBLAS 0.3.15  USE64BITINT DYNAMIC_ARCH NO_AFFINITY Haswell SINGLE_THREADED
        Core in use  :  Haswell
   Copyright (c) 2011-2014, The OpenBLAS Project




***************************************
The coordinates will be read from file: 000003.xyz
***************************************


================================================================================

----- Orbital basis set information -----
Your calculation utilizes the basis: aug-cc-pVTZ 
    H, B-Ne : Obtained from the ccRepo (grant-hill.group.shef.ac.uk/ccrepo) Feb. 2017
              R. A. Kendall, T. H. Dunning, Jr., R. J. Harrison, J. Chem. Phys. 96, 6796 (1992)
         He : Obtained from the ccRepo (grant-hill.group.shef.ac.uk/ccrepo) Feb. 2017
              D. E. Woon, T. H. Dunning, Jr., J. Chem. Phys. 100, 2975 (1994)
  Li-Be, Na : Obtained from the ccRepo (grant-hill.group.shef.ac.uk/ccrepo) Feb. 2017
              B. P. Prascher, D. E. Woon, K. A. Peterson, T. H. Dunning, Jr., A. K. Wilson, Theor. Chem. Acc. 128, 69 (2011)
         Mg : Obtained from the Peterson Research Group Website (tyr0.chem.wsu.edu/~kipeters) Feb. 2017
              B. P. Prascher, D. E. Woon, K. A. Peterson, T. H. Dunning, Jr., A. K. Wilson, Theor. Chem. Acc. 128, 69 (2011)
      Al-Ar : Obtained from the ccRepo (grant-hill.group.shef.ac.uk/ccrepo) Feb. 2017
              D. E. Woon, T. H. Dunning, Jr., J. Chem. Phys. 98, 1358 (1993)
      Sc-Zn : Obtained from the ccRepo (grant-hill.group.shef.ac.uk/ccrepo) Feb. 2017
              N. B. Balabanov, K. A. Peterson, J. Chem. Phys. 123, 064107 (2005)
              N. B. Balabanov, K. A. Peterson, J. Chem. Phys. 125, 074110 (2006)
      Ga-Kr : Obtained from the ccRepo (grant-hill.group.shef.ac.uk/ccrepo) Feb. 2017
              A. K. Wilson, D. E. Woon, K. A. Peterson, T. H. Dunning, Jr., J. Chem. Phys. 110, 7667 (1999)
     Ag, Au : Obtained from the Peterson Research Group Website (tyr0.chem.wsu.edu/~kipeters) Feb. 2017
              K. A. Peterson, C. Puzzarini, Theor. Chem. Acc. 114, 283 (2005)

----- AuxJ basis set information -----
Your calculation utilizes the auxiliary basis: def2/J
   F. Weigend, Phys. Chem. Chem. Phys. 8, 1057 (2006).

----- AuxC basis set information -----
Your calculation utilizes the auxiliary basis: aug-cc-pVTZ/C 
  H-He, B-F, Al-Ar, Ga-Kr : Obtained from the EMSL Basis Set Exchange (bse.pnl.gov) Feb. 2017
                            F. Weigend, A. Kohn, C. Hattig, J. Chem. Phys. 116, 3175 (2002)
                   Be, Mg : Obtained from the TURBOMOLE 7.0 basis set library
                            C. Haettig, Phys. Chem. Chem. Phys. 7, 59 (2005)
                       Ne : Obtained from the EMSL Basis Set Exchange (bse.pnl.gov) Feb. 2017
                            C. Haettig, Phys. Chem. Chem. Phys. 7, 59 (2005)
                            F. Weigend, A. Kohn, C. Hattig, J. Chem. Phys. 116, 3175 (2002)
                    Sc-Zn : Obtained from the EMSL Basis Set Exchange (bse.pnl.gov) Feb. 2017
                            J. G. Hill, J. A. Platts, J. Chem. Phys. 128, 044104 (2008)

================================================================================
                                        WARNINGS
                       Please study these warnings very carefully!
================================================================================


WARNING: Post HF methods need fully converged wavefunctions
  ===> : Setting SCFConvForced true
         You can overwrite this default with %scf ConvForced false 


WARNING: MDCI localization with Augmented Hessian Foster-Boys
  ===> : Switching off randomization!

INFO   : the flag for use of the SHARK integral package has been found!

================================================================================
                                       INPUT FILE
================================================================================
NAME = 000003.com
|  1> !STEOM-DLPNO-CCSD aug-cc-pVTZ aug-cc-pVTZ/C def2/J TightSCF PrintMOs
|  2> 
|  3> *xyzfile 0 1 000003.xyz
|  4> 
|  5> %MaxCore 64000
|  6> %scf
|  7>  MaxIter 150
|  8> end
|  9> 
| 10> %pal nprocs 8
| 11> end
| 12> 
| 13> %mdci
| 14>  nroots 10
| 15>  DoRootwise true
| 16> end
| 17> 
| 18>                          ****END OF INPUT****
================================================================================

                       ****************************
                       * Single Point Calculation *
                       ****************************

---------------------------------
CARTESIAN COORDINATES (ANGSTROEM)
---------------------------------
  O      0.000000    0.000000    0.116015
  H      0.000000    0.761895   -0.464058
  H     -0.000000   -0.761895   -0.464058

----------------------------
CARTESIAN COORDINATES (A.U.)
----------------------------
  NO LB      ZA    FRAG     MASS         X           Y           Z
   0 O     8.0000    0    15.999    0.000000    0.000000    0.219237
   1 H     1.0000    0     1.008    0.000000    1.439773   -0.876943
   2 H     1.0000    0     1.008   -0.000000   -1.439773   -0.876943

--------------------------------
INTERNAL COORDINATES (ANGSTROEM)
--------------------------------
 O      0   0   0     0.000000000000     0.00000000     0.00000000
 H      1   0   0     0.957584814183     0.00000000     0.00000000
 H      1   2   0     0.957584814183   105.43193246     0.00000000

---------------------------
INTERNAL COORDINATES (A.U.)
---------------------------
 O      0   0   0     0.000000000000     0.00000000     0.00000000
 H      1   0   0     1.809573048808     0.00000000     0.00000000
 H      1   2   0     1.809573048808   105.43193246     0.00000000

---------------------
BASIS SET INFORMATION
---------------------
There are 2 groups of distinct atoms

 Group   1 Type O   : 19s6p3d2f contracted to 5s4p3d2f pattern {88111/3111/111/11}
 Group   2 Type H   : 6s3p2d contracted to 4s3p2d pattern {3111/111/11}

Atom   0O    basis set group =>   1
Atom   1H    basis set group =>   2
Atom   2H    basis set group =>   2
---------------------------------
AUXILIARY/J BASIS SET INFORMATION
---------------------------------
There are 2 groups of distinct atoms

 Group   1 Type O   : 12s5p4d2f1g contracted to 6s4p3d1f1g pattern {711111/2111/211/2/1}
 Group   2 Type H   : 5s2p1d contracted to 3s1p1d pattern {311/2/1}

Atom   0O    basis set group =>   1
Atom   1H    basis set group =>   2
Atom   2H    basis set group =>   2
---------------------------------
AUXILIARY/C BASIS SET INFORMATION
---------------------------------
There are 2 groups of distinct atoms

 Group   1 Type O   : 9s7p6d4f2g contracted to 9s7p6d4f2g pattern {111111111/1111111/111111/1111/11}
 Group   2 Type H   : 5s4p3d2f contracted to 5s4p3d2f pattern {11111/1111/111/11}

Atom   0O    basis set group =>   1
Atom   1H    basis set group =>   2
Atom   2H    basis set group =>   2


           ************************************************************
           *        Program running with 8 parallel MPI-processes     *
           *              working on a common directory               *
           ************************************************************
------------------------------------------------------------------------------
                           ORCA GTO INTEGRAL CALCULATION
------------------------------------------------------------------------------
------------------------------------------------------------------------------
                   ___                                                        
                  /   \      - P O W E R E D   B Y -                         
                 /     \                                                     
                 |  |  |   _    _      __       _____    __    __             
                 |  |  |  | |  | |    /  \     |  _  \  |  |  /  |          
                  \  \/   | |  | |   /    \    | | | |  |  | /  /          
                 / \  \   | |__| |  /  /\  \   | |_| |  |  |/  /          
                |  |  |   |  __  | /  /__\  \  |    /   |      \           
                |  |  |   | |  | | |   __   |  |    \   |  |\   \          
                \     /   | |  | | |  |  |  |  | |\  \  |  | \   \       
                 \___/    |_|  |_| |__|  |__|  |_| \__\ |__|  \__/        
                                                                              
                      - O R C A' S   B I G   F R I E N D -                    
                                      &                                       
                       - I N T E G R A L  F E E D E R -                       
                                                                              
 v1 FN, 2020, v2 2021                                                         
------------------------------------------------------------------------------


Reading SHARK input file 000003.SHARKINP.tmp ... ok
----------------------
SHARK INTEGRAL PACKAGE
----------------------

Number of atoms                             ...      3
Number of basis functions                   ...     92
Number of shells                            ...     32
Maximum angular momentum                    ...      3
Integral batch strategy                     ... SHARK/LIBINT Hybrid
RI-J (if used) integral strategy            ... SPLIT-RIJ (Revised 2003 algorithm where possible)
Printlevel                                  ...      1
Contraction scheme used                     ... SEGMENTED contraction
Coulomb Range Separation                    ... NOT USED
Exchange Range Separation                   ... NOT USED
Finite Nucleus Model                        ... NOT USED
Auxiliary Coulomb fitting basis             ... AVAILABLE
   # of basis functions in Aux-J            ...     71
   # of shells in Aux-J                     ...     25
   Maximum angular momentum in Aux-J        ...      4
Auxiliary J/K fitting basis                 ... NOT available
Auxiliary Correlation fitting basis         ... AVAILABLE
   # of basis functions in Aux-C            ...    198
   # of shells in Aux-C                     ...     56
   Maximum angular momentum in Aux-C        ...      4
Auxiliary 'external' fitting basis          ... NOT available
Integral threshold                          ...     2.500000e-11
Primitive cut-off                           ...     2.500000e-12
Primitive pair pre-selection threshold      ...     2.500000e-12

Calculating pre-screening integrals         ... done (  0.2 sec) Dimension = 32
Organizing shell pair data                  ... done (  0.0 sec)
Shell pair information
Total number of shell pairs                 ...       528
Shell pairs after pre-screening             ...       528
Total number of primitive shell pairs       ...      1443
Primitive shell pairs kept                  ...      1414
          la=0 lb=0:     91 shell pairs
          la=1 lb=0:    130 shell pairs
          la=1 lb=1:     55 shell pairs
          la=2 lb=0:     91 shell pairs
          la=2 lb=1:     70 shell pairs
          la=2 lb=2:     28 shell pairs
          la=3 lb=0:     26 shell pairs
          la=3 lb=1:     20 shell pairs
          la=3 lb=2:     14 shell pairs
          la=3 lb=3:      3 shell pairs

Calculating one electron integrals          ... done (  0.0 sec)
Calculating RI/J V-Matrix + Cholesky decomp.... done (  0.1 sec)
Calculating RI/C V-Matrix + Cholesky decomp.... done (  0.0 sec)
Calculating Nuclear repulsion               ... done (  0.0 sec) ENN=      9.189141657991 Eh

SHARK setup successfully completed in   0.4 seconds

Maximum memory used throughout the entire GTOINT-calculation: 17.2 MB


           ************************************************************
           *        Program running with 8 parallel MPI-processes     *
           *              working on a common directory               *
           ************************************************************
-------------------------------------------------------------------------------
                                 ORCA SCF
-------------------------------------------------------------------------------

------------
SCF SETTINGS
------------
Hamiltonian:
 Ab initio Hamiltonian  Method          .... Hartree-Fock(GTOs)


General Settings:
 Integral files         IntName         .... 000003
 Hartree-Fock type      HFTyp           .... RHF
 Total Charge           Charge          ....    0
 Multiplicity           Mult            ....    1
 Number of Electrons    NEL             ....   10
 Basis Dimension        Dim             ....   92
 Nuclear Repulsion      ENuc            ....      9.1891416580 Eh

Convergence Acceleration:
 DIIS                   CNVDIIS         .... on
   Start iteration      DIISMaxIt       ....    12
   Startup error        DIISStart       ....  0.200000
   # of expansion vecs  DIISMaxEq       ....     5
   Bias factor          DIISBfac        ....   1.050
   Max. coefficient     DIISMaxC        ....  10.000
 Trust-Rad. Augm. Hess. CNVTRAH         .... auto
   Auto Start mean grad. ratio tolernc. ....  1.125000
   Auto Start start iteration           ....    20
   Auto Start num. interpolation iter.  ....    10
   Max. Number of Micro iterations      ....    16
   Max. Number of Macro iterations      .... Maxiter - #DIIS iter
   Number of Davidson start vectors     ....     2
   Converg. threshold I  (grad. norm)   ....   1.000e-05
   Converg. threshold II (energy diff.) ....   1.000e-08
   Grad. Scal. Fac. for Micro threshold ....   0.100
   Minimum threshold for Micro iter.    ....   0.010
   NR start threshold (gradient norm)   ....   0.001
   Initial trust radius                 ....   0.400
   Minimum AH scaling param. (alpha)    ....   1.000
   Maximum AH scaling param. (alpha)    .... 1000.000
   Orbital update algorithm             .... Taylor
   White noise on init. David. guess    .... on
   Maximum white noise                  ....   0.010
   Quad. conv. algorithm                .... NR
 SOSCF                  CNVSOSCF        .... on
   Start iteration      SOSCFMaxIt      ....   150
   Startup grad/error   SOSCFStart      ....  0.003300
 Level Shifting         CNVShift        .... on
   Level shift para.    LevelShift      ....    0.2500
   Turn off err/grad.   ShiftErr        ....    0.0010
 Zerner damping         CNVZerner       .... off
 Static damping         CNVDamp         .... on
   Fraction old density DampFac         ....    0.7000
   Max. Damping (<1)    DampMax         ....    0.9800
   Min. Damping (>=0)   DampMin         ....    0.0000
   Turn off err/grad.   DampErr         ....    0.1000
 Fernandez-Rico         CNVRico         .... off

SCF Procedure:
 Maximum # iterations   MaxIter         ....   150
 SCF integral mode      SCFMode         .... Direct
   Integral package                     .... SHARK and LIBINT hybrid scheme
 Reset frequency        DirectResetFreq ....    20
 Integral Threshold     Thresh          ....  2.500e-11 Eh
 Primitive CutOff       TCut            ....  2.500e-12 Eh

Convergence Tolerance:
 Convergence Check Mode ConvCheckMode   .... Total+1el-Energy
 Convergence forced     ConvForced      .... 1
 Energy Change          TolE            ....  1.000e-08 Eh
 1-El. energy change                    ....  1.000e-05 Eh
 Orbital Gradient       TolG            ....  1.000e-05
 Orbital Rotation angle TolX            ....  1.000e-05
 DIIS Error             TolErr          ....  5.000e-07


Diagonalization of the overlap matrix:
Smallest eigenvalue                        ... 3.832e-04
Time for diagonalization                   ...    0.013 sec
Threshold for overlap eigenvalues          ... 1.000e-08
Number of eigenvalues below threshold      ... 0
Time for construction of square roots      ...    0.003 sec
Total time needed                          ...    0.017 sec

Time for model grid setup =    0.017 sec

------------------------------
INITIAL GUESS: MODEL POTENTIAL
------------------------------
Loading Hartree-Fock densities                     ... done
Calculating cut-offs                               ... done
Initializing the effective Hamiltonian             ... done
Setting up the integral package (SHARK)            ... done
Starting the Coulomb interaction                   ... done (   0.1 sec)
Reading the grid                                   ... done
Mapping shells                                     ... done
Starting the XC term evaluation                    ... done (   0.0 sec)
Transforming the Hamiltonian                       ... done (   0.0 sec)
Diagonalizing the Hamiltonian                      ... done (   0.0 sec)
Back transforming the eigenvectors                 ... done (   0.0 sec)
Now organizing SCF variables                       ... done
                      ------------------
                      INITIAL GUESS DONE (   0.1 sec)
                      ------------------
--------------
SCF ITERATIONS
--------------
ITER       Energy         Delta-E        Max-DP      RMS-DP      [F,P]     Damp
               ***  Starting incremental Fock matrix formation  ***
  0    -75.9583648751   0.000000000000 0.02793418  0.00101630  0.3842122 0.7000
  1    -75.9992139946  -0.040849119497 0.01818119  0.00067965  0.2257700 0.7000
                               ***Turning on DIIS***
  2    -76.0203816507  -0.021167656173 0.01153508  0.00036922  0.1211151 0.7000
  3    -76.1780765082  -0.157694857403 0.02973546  0.00064734  0.0848582 0.0000
  4    -76.0355728193   0.142503688834 0.00473614  0.00012544  0.0141333 0.0000
                      *** Initiating the SOSCF procedure ***
                           *** Shutting down DIIS ***
                      *** Re-Reading the Fockian *** 
                      *** Removing any level shift *** 
ITER      Energy       Delta-E        Grad      Rot      Max-DP    RMS-DP
  5    -76.06016315  -0.0245903304  0.001264  0.001264  0.001543  0.000053
               *** Restarting incremental Fock matrix formation ***
  6    -76.06061754  -0.0004543952  0.000525  0.000751  0.001044  0.000027
  7    -76.06062269  -0.0000051468  0.000207  0.000499  0.000851  0.000021
  8    -76.06062387  -0.0000011831  0.000091  0.000049  0.000146  0.000004
  9    -76.06062392  -0.0000000467  0.000035  0.000024  0.000021  0.000001
 10    -76.06062393  -0.0000000092  0.000005  0.000007  0.000007  0.000000
                 **** Energy Check signals convergence ****
              ***Rediagonalizing the Fockian in SOSCF/NRSCF***

               *****************************************************
               *                     SUCCESS                       *
               *           SCF CONVERGED AFTER  11 CYCLES          *
               *****************************************************


----------------
TOTAL SCF ENERGY
----------------

Total Energy       :          -76.06062393 Eh           -2069.71480 eV

Components:
Nuclear Repulsion  :            9.18914166 Eh             250.04926 eV
Electronic Energy  :          -85.24976559 Eh           -2319.76406 eV
One Electron Energy:         -123.03514491 Eh           -3347.95650 eV
Two Electron Energy:           37.78537932 Eh            1028.19244 eV

Virial components:
Potential Energy   :         -152.01634419 Eh           -4136.57502 eV
Kinetic Energy     :           75.95572026 Eh            2066.86023 eV
Virial Ratio       :            2.00138112


---------------
SCF CONVERGENCE
---------------

  Last Energy change         ...   -3.1959e-10  Tolerance :   1.0000e-08
  Last MAX-Density change    ...    2.5726e-06  Tolerance :   1.0000e-07
  Last RMS-Density change    ...    9.8410e-08  Tolerance :   5.0000e-09
  Last Orbital Gradient      ...    1.2428e-06  Tolerance :   1.0000e-05
  Last Orbital Rotation      ...    2.8233e-06  Tolerance :   1.0000e-05

             **** THE GBW FILE WAS UPDATED (000003.gbw) ****
             **** DENSITY 000003.scfp WAS UPDATED ****
             **** ENERGY FILE WAS UPDATED (000003.en.tmp) ****
             **** THE GBW FILE WAS UPDATED (000003.gbw) ****
             **** DENSITY 000003.scfp WAS UPDATED ****
----------------
ORBITAL ENERGIES
----------------

  NO   OCC          E(Eh)            E(eV) 
   0   2.0000     -20.566850      -559.6524 
   1   2.0000      -1.352765       -36.8106 
   2   2.0000      -0.719430       -19.5767 
   3   2.0000      -0.583085       -15.8666 
   4   2.0000      -0.510065       -13.8796 
   5   0.0000       0.029498         0.8027 
   6   0.0000       0.047626         1.2960 
   7   0.0000       0.136091         3.7032 
   8   0.0000       0.158374         4.3096 
   9   0.0000       0.174992         4.7618 
  10   0.0000       0.182750         4.9729 
  11   0.0000       0.227894         6.2013 
  12   0.0000       0.244908         6.6643 
  13   0.0000       0.264928         7.2091 
  14   0.0000       0.301565         8.2060 
  15   0.0000       0.311124         8.4661 
  16   0.0000       0.365694         9.9510 
  17   0.0000       0.438115        11.9217 
  18   0.0000       0.466766        12.7013 
  19   0.0000       0.600263        16.3340 
  20   0.0000       0.657467        17.8906 
  21   0.0000       0.709087        19.2952 
  22   0.0000       0.721548        19.6343 
  23   0.0000       0.731559        19.9067 
  24   0.0000       0.830484        22.5986 
  25   0.0000       0.845604        23.0101 
  26   0.0000       0.890946        24.2439 
  27   0.0000       0.913203        24.8495 
  28   0.0000       0.919632        25.0244 
  29   0.0000       0.922172        25.0936 
  30   0.0000       0.930041        25.3077 
  31   0.0000       0.964513        26.2457 
  32   0.0000       1.022594        27.8262 
  33   0.0000       1.044715        28.4281 
  34   0.0000       1.083611        29.4866 
  35   0.0000       1.110469        30.2174 
  36   0.0000       1.175767        31.9942 
  37   0.0000       1.181189        32.1418 
  38   0.0000       1.259462        34.2717 
  39   0.0000       1.511973        41.1429 
  40   0.0000       1.543672        42.0054 
  41   0.0000       1.588207        43.2173 
  42   0.0000       1.801456        49.0201 
  43   0.0000       1.811896        49.3042 
  44   0.0000       1.992879        54.2290 
  45   0.0000       2.118800        57.6555 
  46   0.0000       2.261999        61.5521 
  47   0.0000       2.316992        63.0485 
  48   0.0000       2.324394        63.2500 
  49   0.0000       2.418258        65.8042 
  50   0.0000       2.419256        65.8313 
  51   0.0000       2.441594        66.4391 
  52   0.0000       2.476818        67.3977 
  53   0.0000       2.678047        72.8734 
  54   0.0000       2.698474        73.4292 
  55   0.0000       2.771498        75.4163 
  56   0.0000       2.828506        76.9676 
  57   0.0000       2.885389        78.5154 
  58   0.0000       3.654155        99.4346 
  59   0.0000       3.754836       102.1743 
  60   0.0000       4.015210       109.2594 
  61   0.0000       4.087828       111.2355 
  62   0.0000       4.181658       113.7887 
  63   0.0000       4.245458       115.5248 
  64   0.0000       4.304236       117.1242 
  65   0.0000       4.379349       119.1682 
  66   0.0000       4.384325       119.3036 
  67   0.0000       4.405945       119.8919 
  68   0.0000       4.511947       122.7763 
  69   0.0000       4.722734       128.5121 
  70   0.0000       4.842521       131.7717 
  71   0.0000       5.141561       139.9090 
  72   0.0000       5.161214       140.4438 
  73   0.0000       5.270648       143.4216 
  74   0.0000       5.336210       145.2056 
  75   0.0000       5.525737       150.3630 
  76   0.0000       5.683691       154.6611 
  77   0.0000       6.170415       167.9055 
  78   0.0000       6.518086       177.3661 
  79   0.0000       6.709777       182.5823 
  80   0.0000       6.888657       187.4499 
  81   0.0000       7.136525       194.1947 
  82   0.0000       7.254395       197.4021 
  83   0.0000       7.314815       199.0462 
  84   0.0000       7.317220       199.1117 
  85   0.0000       7.330792       199.4810 
  86   0.0000       7.358869       200.2450 
  87   0.0000       7.545237       205.3163 
  88   0.0000       7.920113       215.5172 
  89   0.0000       7.922641       215.5860 
  90   0.0000       8.807322       239.6594 
  91   0.0000      15.829889       430.7532 
------------------
MOLECULAR ORBITALS
------------------
                      0         1         2         3         4         5   
                 -20.56685  -1.35277  -0.71943  -0.58309  -0.51006   0.02950
                   2.00000   2.00000   2.00000   2.00000   2.00000   0.00000
                  --------  --------  --------  --------  --------  --------
  0O   1s         0.975410  0.008406 -0.000000  0.004819 -0.000000  0.000241
  0O   2s        -0.001426 -0.505542  0.000000  0.180667 -0.000000 -0.059149
  0O   3s         0.043615 -0.132733  0.000000  0.051817 -0.000000 -0.012623
  0O   4s         0.000932 -0.293868  0.000000  0.328023 -0.000000 -0.813940
  0O   5s         0.000328 -0.035272  0.000000  0.083212 -0.000000 -2.412523
  0O   1pz       -0.001859  0.044198  0.000000  0.312996 -0.000000  0.028388
  0O   1px        0.000000  0.000000 -0.000000  0.000000  0.353987 -0.000000
  0O   1py       -0.000000  0.000000 -0.284137  0.000000  0.000000 -0.000000
  0O   2pz        0.001543  0.062769 -0.000000  0.384019 -0.000000  0.071687
  0O   2px       -0.000000  0.000000  0.000000  0.000000  0.450001 -0.000000
  0O   2py        0.000000 -0.000000 -0.338301  0.000000 -0.000000 -0.000000
  0O   3pz       -0.000279  0.016930 -0.000000  0.215112 -0.000000  0.345810
  0O   3px       -0.000000  0.000000  0.000000 -0.000000  0.325235 -0.000000
  0O   3py        0.000000 -0.000000 -0.153219  0.000000 -0.000000 -0.000000
  0O   4pz       -0.000170  0.002792 -0.000000  0.013773  0.000000  0.219411
  0O   4px       -0.000000  0.000000  0.000000 -0.000000  0.033219 -0.000000
  0O   4py        0.000000 -0.000000 -0.007965  0.000000 -0.000000 -0.000000
  0O   1dz2       0.000008 -0.000833 -0.000000 -0.005791 -0.000000 -0.000001
  0O   1dxz      -0.000000  0.000000  0.000000 -0.000000 -0.005759 -0.000000
  0O   1dyz      -0.000000 -0.000000  0.012664  0.000000 -0.000000  0.000000
  0O   1dx2y2    -0.000075  0.003706  0.000000  0.003643  0.000000 -0.000967
  0O   1dxy       0.000000  0.000000 -0.000000  0.000000  0.000000  0.000000
  0O   2dz2      -0.000066 -0.003283 -0.000000 -0.015846 -0.000000 -0.006039
  0O   2dxz       0.000000 -0.000000 -0.000000  0.000000 -0.014098  0.000000
  0O   2dyz      -0.000000  0.000000  0.022771 -0.000000  0.000000  0.000000
  0O   2dx2y2     0.000532  0.008461 -0.000000  0.001144  0.000000  0.023570
  0O   2dxy      -0.000000  0.000000 -0.000000 -0.000000  0.000000 -0.000000
  0O   3dz2       0.000073 -0.000807  0.000000 -0.004241  0.000000  0.003335
  0O   3dxz       0.000000 -0.000000 -0.000000  0.000000 -0.005281  0.000000
  0O   3dyz      -0.000000  0.000000 -0.000658 -0.000000 -0.000000  0.000000
  0O   3dx2y2    -0.000132 -0.003264 -0.000000 -0.009573 -0.000000  0.056718
  0O   3dxy      -0.000000  0.000000 -0.000000 -0.000000  0.000000 -0.000000
  0O   1f0        0.000024 -0.000970  0.000000  0.000533 -0.000000 -0.000710
  0O   1f+1       0.000000 -0.000000  0.000000  0.000000  0.001287 -0.000000
  0O   1f-1       0.000000 -0.000000  0.000237  0.000000  0.000000 -0.000000
  0O   1f+2       0.000011 -0.002675  0.000000 -0.002811 -0.000000 -0.001373
  0O   1f-2      -0.000000  0.000000  0.000000  0.000000  0.000000  0.000000
  0O   1f+3       0.000000  0.000000 -0.000000  0.000000  0.003592  0.000000
  0O   1f-3       0.000000 -0.000000 -0.002761  0.000000  0.000000  0.000000
  0O   2f0       -0.000093  0.000556  0.000000  0.001503 -0.000000 -0.004699
  0O   2f+1      -0.000000  0.000000 -0.000000 -0.000000  0.000814 -0.000000
  0O   2f-1       0.000000 -0.000000 -0.002218  0.000000 -0.000000  0.000000
  0O   2f+2      -0.000167 -0.000377  0.000000  0.000438  0.000000 -0.011076
  0O   2f-2       0.000000 -0.000000  0.000000  0.000000 -0.000000  0.000000
  0O   2f+3      -0.000000  0.000000  0.000000 -0.000000  0.001220 -0.000000
  0O   2f-3       0.000000 -0.000000 -0.001729  0.000000 -0.000000 -0.000000
  1H   1s         0.000507 -0.088627 -0.140696 -0.084710  0.000000  0.001850
  1H   2s         0.000924 -0.074510 -0.224604 -0.177527 -0.000000  0.245652
  1H   3s        -0.000259  0.015237 -0.036557 -0.064194 -0.000000  0.966286
  1H   4s         0.000023  0.001402  0.004634 -0.001857  0.000000  0.859666
  1H   1pz        0.000093 -0.007408 -0.012690  0.001623 -0.000000 -0.000280
  1H   1px       -0.000000  0.000000 -0.000000 -0.000000  0.010696  0.000000
  1H   1py       -0.000149  0.010764  0.009818  0.009649  0.000000  0.001973
  1H   2pz        0.000572 -0.005335 -0.028098 -0.000704  0.000000  0.060368
  1H   2px        0.000000 -0.000000  0.000000  0.000000  0.030227  0.000000
  1H   2py       -0.000653  0.007815  0.020089  0.032653  0.000000 -0.080935
  1H   3pz        0.000068  0.004358 -0.000226  0.008723  0.000000  0.198562
  1H   3px        0.000000 -0.000000 -0.000000  0.000000  0.018629  0.000000
  1H   3py       -0.000105 -0.005266 -0.007954  0.004619  0.000000 -0.222679
  1H   1dz2      -0.000036 -0.000057 -0.001952  0.002104  0.000000  0.000966
  1H   1dxz       0.000000 -0.000000  0.000000  0.000000  0.002893  0.000000
  1H   1dyz       0.000131  0.002127  0.006358  0.001833 -0.000000 -0.004872
  1H   1dx2y2     0.000058  0.001309  0.003312  0.003259 -0.000000 -0.002440
  1H   1dxy      -0.000000  0.000000 -0.000000 -0.000000 -0.003833 -0.000000
  1H   2dz2       0.000037  0.000028 -0.002170  0.001897  0.000000  0.002566
  1H   2dxz       0.000000 -0.000000 -0.000000  0.000000  0.004299  0.000000
  1H   2dyz      -0.000395 -0.000945  0.002619 -0.002235 -0.000000 -0.027619
  1H   2dx2y2    -0.000239 -0.000538 -0.001140  0.002332  0.000000 -0.020541
  1H   2dxy      -0.000000  0.000000 -0.000000 -0.000000 -0.006192 -0.000000
  2H   1s         0.000507 -0.088627  0.140696 -0.084710 -0.000000  0.001850
  2H   2s         0.000924 -0.074510  0.224604 -0.177527 -0.000000  0.245652
  2H   3s        -0.000259  0.015237  0.036557 -0.064194  0.000000  0.966286
  2H   4s         0.000023  0.001402 -0.004634 -0.001857 -0.000000  0.859666
  2H   1pz        0.000093 -0.007408  0.012690  0.001623  0.000000 -0.000280
  2H   1px       -0.000000  0.000000  0.000000 -0.000000  0.010696 -0.000000
  2H   1py        0.000149 -0.010764  0.009818 -0.009649  0.000000 -0.001973
  2H   2pz        0.000572 -0.005335  0.028098 -0.000704  0.000000  0.060368
  2H   2px       -0.000000  0.000000 -0.000000 -0.000000  0.030227  0.000000
  2H   2py        0.000653 -0.007815  0.020089 -0.032653  0.000000  0.080935
  2H   3pz        0.000068  0.004358  0.000226  0.008723 -0.000000  0.198562
  2H   3px       -0.000000  0.000000 -0.000000 -0.000000  0.018629  0.000000
  2H   3py        0.000105  0.005266 -0.007954 -0.004619  0.000000  0.222679
  2H   1dz2      -0.000036 -0.000057  0.001952  0.002104  0.000000  0.000966
  2H   1dxz      -0.000000  0.000000 -0.000000 -0.000000  0.002893 -0.000000
  2H   1dyz      -0.000131 -0.002127  0.006358 -0.001833  0.000000  0.004872
  2H   1dx2y2     0.000058  0.001309 -0.003312  0.003259  0.000000 -0.002440
  2H   1dxy      -0.000000  0.000000 -0.000000 -0.000000  0.003833  0.000000
  2H   2dz2       0.000037  0.000028  0.002170  0.001897 -0.000000  0.002566
  2H   2dxz      -0.000000  0.000000 -0.000000 -0.000000  0.004299  0.000000
  2H   2dyz       0.000395  0.000945  0.002619  0.002235  0.000000  0.027619
  2H   2dx2y2    -0.000239 -0.000538  0.001140  0.002332 -0.000000 -0.020541
  2H   2dxy       0.000000  0.000000 -0.000000  0.000000  0.006192  0.000000
                      6         7         8         9        10        11   
                   0.04763   0.13609   0.15837   0.17499   0.18275   0.22789
                   0.00000   0.00000   0.00000   0.00000   0.00000   0.00000
                  --------  --------  --------  --------  --------  --------
  0O   1s         0.000000 -0.008068  0.000000 -0.004045  0.000000 -0.000000
  0O   2s         0.000000 -0.058940  0.000000 -0.141591 -0.000000  0.000000
  0O   3s        -0.000000 -0.018418  0.000000 -0.055914 -0.000000  0.000000
  0O   4s         0.000000  1.579473 -0.000000  1.684774  0.000000  0.000000
  0O   5s        -0.000000  6.726497 -0.000000  4.119279  0.000000  0.000000
  0O   1pz       -0.000000  0.089743 -0.000000  0.017424  0.000000 -0.000000
  0O   1px        0.000000 -0.000000 -0.087220  0.000000 -0.000000  0.000000
  0O   1py       -0.028809 -0.000000  0.000000 -0.000000  0.093505  0.066472
  0O   2pz       -0.000000  0.035125  0.000000 -0.061622 -0.000000 -0.000000
  0O   2px       -0.000000 -0.000000 -0.080624  0.000000  0.000000  0.000000
  0O   2py       -0.074489  0.000000  0.000000 -0.000000 -0.002339  0.030719
  0O   3pz       -0.000000 -0.424229  0.000000 -0.562198 -0.000000 -0.000000
  0O   3px        0.000000  0.000000  0.053862 -0.000000  0.000000  0.000000
  0O   3py       -0.544465  0.000000  0.000000  0.000000 -1.644662  0.846748
  0O   4pz        0.000000 -2.064512  0.000000  0.910238  0.000000 -0.000000
  0O   4px        0.000000  0.000000  1.836614 -0.000000 -0.000000  0.000000
  0O   4py       -1.143822  0.000000  0.000000  0.000000 -3.651219  1.696628
  0O   1dz2       0.000000 -0.000169  0.000000 -0.002183 -0.000000 -0.000000
  0O   1dxz      -0.000000  0.000000 -0.001885  0.000000  0.000000 -0.000000
  0O   1dyz       0.000002  0.000000  0.000000  0.000000 -0.003948  0.004083
  0O   1dx2y2     0.000000 -0.000812  0.000000  0.002563  0.000000 -0.000000
  0O   1dxy      -0.000000  0.000000 -0.000000  0.000000 -0.000000 -0.000000
  0O   2dz2      -0.000000 -0.008749 -0.000000  0.015419 -0.000000  0.000000
  0O   2dxz       0.000000 -0.000000  0.028090 -0.000000 -0.000000 -0.000000
  0O   2dyz       0.029823 -0.000000 -0.000000 -0.000000  0.088393  0.015276
  0O   2dx2y2    -0.000000 -0.019068  0.000000 -0.074007 -0.000000  0.000000
  0O   2dxy      -0.000000 -0.000000  0.000000 -0.000000  0.000000  0.000000
  0O   3dz2       0.000000  0.091354 -0.000000 -0.124091  0.000000  0.000000
  0O   3dxz      -0.000000 -0.000000 -0.206947  0.000000  0.000000 -0.000000
  0O   3dyz       0.127287 -0.000000 -0.000000 -0.000000  0.463976 -0.715318
  0O   3dx2y2    -0.000000 -0.057532  0.000000 -0.100365 -0.000000 -0.000000
  0O   3dxy       0.000000 -0.000000 -0.000000 -0.000000  0.000000  0.000000
  0O   1f0        0.000000  0.002005 -0.000000  0.001423  0.000000  0.000000
  0O   1f+1       0.000000 -0.000000 -0.002303  0.000000  0.000000 -0.000000
  0O   1f-1      -0.000872  0.000000  0.000000  0.000000 -0.002807 -0.008024
  0O   1f+2       0.000000  0.002426 -0.000000  0.004055  0.000000 -0.000000
  0O   1f-2      -0.000000 -0.000000 -0.000000 -0.000000  0.000000  0.000000
  0O   1f+3      -0.000000 -0.000000 -0.004090  0.000000 -0.000000 -0.000000
  0O   1f-3      -0.000226 -0.000000 -0.000000 -0.000000  0.001057 -0.004394
  0O   2f0        0.000000 -0.005253  0.000000  0.019896  0.000000 -0.000000
  0O   2f+1      -0.000000  0.000000  0.008376 -0.000000 -0.000000  0.000000
  0O   2f-1      -0.003462 -0.000000  0.000000 -0.000000 -0.012642  0.055851
  0O   2f+2       0.000000 -0.004495 -0.000000  0.024789  0.000000  0.000000
  0O   2f-2       0.000000  0.000000 -0.000000  0.000000  0.000000 -0.000000
  0O   2f+3       0.000000  0.000000  0.011310 -0.000000  0.000000  0.000000
  0O   2f-3      -0.009453  0.000000  0.000000  0.000000 -0.029919  0.027612
  1H   1s        -0.006471  0.000945 -0.000000  0.030077  0.000093 -0.039602
  1H   2s         0.260661 -0.248231 -0.000000 -0.507029  0.924410 -0.701376
  1H   3s         1.373951 -3.234440 -0.000000 -1.255824  4.877105 -0.020358
  1H   4s         3.409805 -0.729825  0.000000 -0.704792  3.343743 -0.069284
  1H   1pz       -0.001228 -0.000177  0.000000 -0.007700  0.004918  0.008825
  1H   1px        0.000000 -0.000000  0.000501 -0.000000  0.000000 -0.000000
  1H   1py       -0.000553  0.000459  0.000000  0.012580 -0.011177 -0.000031
  1H   2pz        0.070193 -0.130424 -0.000000 -0.184910  0.255564  0.028420
  1H   2px        0.000000  0.000000 -0.040895  0.000000 -0.000000 -0.000000
  1H   2py       -0.066846  0.214302 -0.000000  0.194605 -0.249615  0.005921
  1H   3pz        0.321499 -0.441355 -0.000000 -0.903756  1.192153  0.807490
  1H   3px       -0.000000  0.000000 -0.576938  0.000000 -0.000000 -0.000000
  1H   3py       -0.275010  0.779258  0.000000  0.801348 -1.107133 -1.279017
  1H   1dz2      -0.000084 -0.001453 -0.000000 -0.002252  0.001526  0.001694
  1H   1dxz       0.000000  0.000000  0.002372  0.000000 -0.000000  0.000000
  1H   1dyz      -0.004503  0.010232 -0.000000  0.014209 -0.016888 -0.002669
  1H   1dx2y2    -0.003660  0.008744 -0.000000  0.004401 -0.012931  0.002317
  1H   1dxy      -0.000000  0.000000 -0.002050  0.000000  0.000000  0.000000
  1H   2dz2       0.015090  0.019158 -0.000000 -0.022139  0.047954  0.053690
  1H   2dxz      -0.000000  0.000000 -0.042616  0.000000 -0.000000 -0.000000
  1H   2dyz      -0.032719  0.083026  0.000000  0.111124 -0.094995 -0.153470
  1H   2dx2y2    -0.002145  0.059880 -0.000000  0.066037  0.012060 -0.156844
  1H   2dxy       0.000000 -0.000000  0.071223 -0.000000  0.000000  0.000000
  2H   1s         0.006471  0.000945  0.000000  0.030077 -0.000093  0.039602
  2H   2s        -0.260661 -0.248231  0.000000 -0.507029 -0.924410  0.701376
  2H   3s        -1.373951 -3.234440  0.000000 -1.255824 -4.877105  0.020358
  2H   4s        -3.409805 -0.729825  0.000000 -0.704792 -3.343743  0.069284
  2H   1pz        0.001228 -0.000177  0.000000 -0.007700 -0.004918 -0.008825
  2H   1px       -0.000000  0.000000  0.000501 -0.000000 -0.000000 -0.000000
  2H   1py       -0.000553 -0.000459  0.000000 -0.012580 -0.011177 -0.000031
  2H   2pz       -0.070193 -0.130424  0.000000 -0.184910 -0.255564 -0.028420
  2H   2px       -0.000000 -0.000000 -0.040895 -0.000000 -0.000000  0.000000
  2H   2py       -0.066846 -0.214302  0.000000 -0.194605 -0.249615  0.005921
  2H   3pz       -0.321499 -0.441355 -0.000000 -0.903756 -1.192153 -0.807490
  2H   3px       -0.000000 -0.000000 -0.576938  0.000000 -0.000000  0.000000
  2H   3py       -0.275010 -0.779258  0.000000 -0.801348 -1.107133 -1.279017
  2H   1dz2       0.000084 -0.001453  0.000000 -0.002252 -0.001526 -0.001694
  2H   1dxz       0.000000  0.000000  0.002372 -0.000000 -0.000000 -0.000000
  2H   1dyz      -0.004503 -0.010232  0.000000 -0.014209 -0.016888 -0.002669
  2H   1dx2y2     0.003660  0.008744 -0.000000  0.004401  0.012931 -0.002317
  2H   1dxy      -0.000000 -0.000000  0.002050 -0.000000 -0.000000  0.000000
  2H   2dz2      -0.015090  0.019158 -0.000000 -0.022139 -0.047954 -0.053690
  2H   2dxz      -0.000000 -0.000000 -0.042616 -0.000000 -0.000000 -0.000000
  2H   2dyz      -0.032719 -0.083026 -0.000000 -0.111124 -0.094995 -0.153470
  2H   2dx2y2     0.002145  0.059880  0.000000  0.066037 -0.012060  0.156844
  2H   2dxy      -0.000000 -0.000000 -0.071223  0.000000 -0.000000 -0.000000
                     12        13        14        15        16        17   
                   0.24491   0.26493   0.30156   0.31112   0.36569   0.43811
                   0.00000   0.00000   0.00000   0.00000   0.00000   0.00000
                  --------  --------  --------  --------  --------  --------
  0O   1s        -0.011674 -0.000000 -0.000000 -0.019797  0.000000 -0.006889
  0O   2s        -0.017238 -0.000000 -0.000000 -0.078850  0.000000 -0.193699
  0O   3s        -0.005557 -0.000000 -0.000000 -0.046375  0.000000 -0.053725
  0O   4s         0.216261  0.000000  0.000000  1.499136  0.000000 -5.332358
  0O   5s         2.831690  0.000000  0.000000  7.095563  0.000000-10.747414
  0O   1pz       -0.000991 -0.000000 -0.000000 -0.085175 -0.000000  0.102735
  0O   1px        0.000000  0.000000 -0.085896  0.000000 -0.000000 -0.000000
  0O   1py        0.000000 -0.000000  0.000000  0.000000  0.014131 -0.000000
  0O   2pz       -0.003960 -0.000000 -0.000000 -0.180453 -0.000000  0.350357
  0O   2px        0.000000  0.000000 -0.054525  0.000000  0.000000  0.000000
  0O   2py        0.000000  0.000000 -0.000000  0.000000 -0.020492  0.000000
  0O   3pz        0.747391 -0.000000 -0.000000 -2.501872 -0.000000  0.779714
  0O   3px        0.000000  0.000000 -1.965536  0.000000 -0.000000  0.000000
  0O   3py        0.000000 -0.000000 -0.000000  0.000000  1.203774  0.000000
  0O   4pz        0.555427 -0.000000 -0.000000 -2.443043  0.000000  0.890327
  0O   4px       -0.000000  0.000000 -1.943900  0.000000  0.000000 -0.000000
  0O   4py       -0.000000  0.000000 -0.000000  0.000000  3.240130  0.000000
  0O   1dz2       0.006332 -0.000000 -0.000000 -0.004949  0.000000 -0.002225
  0O   1dxz       0.000000  0.000000 -0.006434  0.000000  0.000000 -0.000000
  0O   1dyz      -0.000000 -0.000000 -0.000000 -0.000000 -0.002321  0.000000
  0O   1dx2y2     0.004290  0.000000  0.000000  0.004444  0.000000 -0.004443
  0O   1dxy      -0.000000  0.005430  0.000000 -0.000000 -0.000000  0.000000
  0O   2dz2      -0.034057  0.000000  0.000000  0.044482 -0.000000 -0.011662
  0O   2dxz      -0.000000  0.000000  0.034186 -0.000000 -0.000000 -0.000000
  0O   2dyz      -0.000000 -0.000000  0.000000 -0.000000  0.015623 -0.000000
  0O   2dx2y2    -0.014747 -0.000000 -0.000000 -0.061991 -0.000000  0.068163
  0O   2dxy      -0.000000 -0.014648 -0.000000 -0.000000  0.000000  0.000000
  0O   3dz2      -0.628778  0.000000  0.000000  0.453417 -0.000000  0.066350
  0O   3dxz      -0.000000 -0.000000  0.567033 -0.000000  0.000000 -0.000000
  0O   3dyz       0.000000 -0.000000  0.000000  0.000000 -0.110491 -0.000000
  0O   3dx2y2    -0.532834 -0.000000 -0.000000 -0.351313  0.000000 -0.296838
  0O   3dxy      -0.000000 -0.703753 -0.000000 -0.000000  0.000000  0.000000
  0O   1f0       -0.005525  0.000000  0.000000  0.005344  0.000000 -0.005041
  0O   1f+1       0.000000 -0.000000  0.005557 -0.000000 -0.000000 -0.000000
  0O   1f-1       0.000000  0.000000 -0.000000  0.000000  0.007648  0.000000
  0O   1f+2      -0.001741  0.000000  0.000000 -0.002289  0.000000 -0.015987
  0O   1f-2      -0.000000 -0.011699 -0.000000 -0.000000  0.000000  0.000000
  0O   1f+3      -0.000000 -0.000000  0.008308 -0.000000  0.000000 -0.000000
  0O   1f-3       0.000000  0.000000  0.000000  0.000000 -0.004378 -0.000000
  0O   2f0        0.060916  0.000000 -0.000000 -0.012644  0.000000  0.015105
  0O   2f+1       0.000000  0.000000 -0.042166  0.000000 -0.000000  0.000000
  0O   2f-1      -0.000000  0.000000  0.000000 -0.000000 -0.064253  0.000000
  0O   2f+2       0.025839  0.000000  0.000000  0.086577 -0.000000  0.063061
  0O   2f-2       0.000000  0.097500  0.000000  0.000000 -0.000000 -0.000000
  0O   2f+3       0.000000  0.000000 -0.089875  0.000000 -0.000000  0.000000
  0O   2f-3       0.000000 -0.000000 -0.000000  0.000000  0.038465  0.000000
  1H   1s        -0.032246 -0.000000 -0.000000 -0.013915  0.017521  0.034021
  1H   2s        -0.181637 -0.000000 -0.000000 -1.384767 -0.349190  0.240490
  1H   3s        -1.500296 -0.000000 -0.000000 -3.717130  4.081484  6.605769
  1H   4s        -0.102484 -0.000000 -0.000000 -0.267806 -0.681866  0.701805
  1H   1pz        0.006128 -0.000000 -0.000000 -0.010310  0.002850 -0.012987
  1H   1px       -0.000000 -0.001695 -0.007383 -0.000000 -0.000000  0.000000
  1H   1py        0.005276  0.000000 -0.000000 -0.002883  0.005690  0.016439
  1H   2pz       -0.285190 -0.000000 -0.000000 -0.074169 -0.164455  0.305221
  1H   2px        0.000000  0.285201  0.342972 -0.000000 -0.000000 -0.000000
  1H   2py       -0.164196  0.000000  0.000000  0.483633 -0.221241 -0.348702
  1H   3pz       -1.071219  0.000000  0.000000  0.942168 -1.824446  1.834144
  1H   3px        0.000000  1.789382  1.918080 -0.000000 -0.000000 -0.000000
  1H   3py       -0.867799 -0.000000  0.000000  0.057544 -4.427045 -2.233729
  1H   1dz2      -0.003339 -0.000000  0.000000  0.002627 -0.005218  0.006528
  1H   1dxz       0.000000  0.003056  0.006213 -0.000000 -0.000000 -0.000000
  1H   1dyz       0.010569  0.000000  0.000000  0.017849 -0.011509 -0.021033
  1H   1dx2y2    -0.006442  0.000000  0.000000  0.023454  0.004076 -0.008983
  1H   1dxy       0.000000 -0.005187 -0.007845  0.000000  0.000000  0.000000
  1H   2dz2      -0.252055  0.000000  0.000000  0.099308 -0.321323 -0.006634
  1H   2dxz      -0.000000  0.221761  0.189845 -0.000000 -0.000000 -0.000000
  1H   2dyz       0.028514  0.000000 -0.000000 -0.155839  0.149421 -0.397183
  1H   2dx2y2    -0.135361  0.000000  0.000000  0.010996 -0.410413 -0.256833
  1H   2dxy      -0.000000 -0.249561 -0.314749  0.000000  0.000000  0.000000
  2H   1s        -0.032246 -0.000000 -0.000000 -0.013915 -0.017521  0.034021
  2H   2s        -0.181637 -0.000000 -0.000000 -1.384767  0.349190  0.240490
  2H   3s        -1.500296 -0.000000 -0.000000 -3.717130 -4.081484  6.605769
  2H   4s        -0.102484 -0.000000 -0.000000 -0.267806  0.681866  0.701805
  2H   1pz        0.006128 -0.000000 -0.000000 -0.010310 -0.002850 -0.012987
  2H   1px       -0.000000  0.001695 -0.007383  0.000000 -0.000000  0.000000
  2H   1py       -0.005276 -0.000000 -0.000000  0.002883  0.005690 -0.016439
  2H   2pz       -0.285190 -0.000000 -0.000000 -0.074169  0.164455  0.305221
  2H   2px       -0.000000 -0.285201  0.342972 -0.000000  0.000000  0.000000
  2H   2py        0.164196 -0.000000 -0.000000 -0.483633 -0.221241  0.348702
  2H   3pz       -1.071219  0.000000  0.000000  0.942168  1.824446  1.834144
  2H   3px       -0.000000 -1.789382  1.918080 -0.000000  0.000000  0.000000
  2H   3py        0.867799 -0.000000 -0.000000 -0.057544 -4.427045  2.233729
  2H   1dz2      -0.003339 -0.000000 -0.000000  0.002627  0.005218  0.006528
  2H   1dxz      -0.000000 -0.003056  0.006213 -0.000000 -0.000000  0.000000
  2H   1dyz      -0.010569 -0.000000 -0.000000 -0.017849 -0.011509  0.021033
  2H   1dx2y2    -0.006442  0.000000  0.000000  0.023454 -0.004076 -0.008983
  2H   1dxy      -0.000000 -0.005187  0.007845 -0.000000 -0.000000  0.000000
  2H   2dz2      -0.252055  0.000000  0.000000  0.099308  0.321323 -0.006634
  2H   2dxz      -0.000000 -0.221761  0.189845 -0.000000  0.000000  0.000000
  2H   2dyz      -0.028514  0.000000  0.000000  0.155839  0.149421  0.397183
  2H   2dx2y2    -0.135361  0.000000  0.000000  0.010996  0.410413 -0.256833
  2H   2dxy      -0.000000 -0.249561  0.314749 -0.000000  0.000000  0.000000
                     18        19        20        21        22        23   
                   0.46677   0.60026   0.65747   0.70909   0.72155   0.73156
                   0.00000   0.00000   0.00000   0.00000   0.00000   0.00000
                  --------  --------  --------  --------  --------  --------
  0O   1s        -0.000000 -0.000000 -0.036426 -0.033315 -0.000000  0.000000
  0O   2s        -0.000000 -0.000000 -0.096785 -0.104290 -0.000000  0.000000
  0O   3s         0.000000  0.000000 -0.026249 -0.029027 -0.000000 -0.000000
  0O   4s        -0.000000 -0.000000  1.602896  1.684820 -0.000000  0.000000
  0O   5s        -0.000000 -0.000000  4.978115  3.989815  0.000000 -0.000000
  0O   1pz       -0.000000 -0.000000 -0.005399  0.025056 -0.000000  0.000000
  0O   1px        0.000000  0.000000 -0.000000  0.000000 -0.000000 -0.013524
  0O   1py        0.165026 -0.073353 -0.000000 -0.000000  0.000000  0.000000
  0O   2pz        0.000000  0.000000 -0.084202 -0.097075 -0.000000 -0.000000
  0O   2px       -0.000000 -0.000000 -0.000000 -0.000000 -0.000000 -0.071779
  0O   2py        0.496762 -0.008456 -0.000000 -0.000000 -0.000000 -0.000000
  0O   3pz        0.000000  0.000000  1.308042 -2.185131 -0.000000 -0.000000
  0O   3px       -0.000000 -0.000000 -0.000000 -0.000000 -0.000000 -2.018046
  0O   3py        3.290152  3.982753 -0.000000 -0.000000 -0.000000 -0.000000
  0O   4pz        0.000000  0.000000 -0.336385 -1.789800 -0.000000  0.000000
  0O   4px       -0.000000 -0.000000 -0.000000 -0.000000 -0.000000 -1.458229
  0O   4py        3.022020  2.264847 -0.000000 -0.000000  0.000000 -0.000000
  0O   1dz2      -0.000000 -0.000000  0.003701  0.020260  0.000000 -0.000000
  0O   1dxz      -0.000000 -0.000000  0.000000  0.000000  0.000000  0.028394
  0O   1dyz       0.007026 -0.012293 -0.000000 -0.000000 -0.000000 -0.000000
  0O   1dx2y2    -0.000000 -0.000000 -0.017534 -0.021717 -0.000000  0.000000
  0O   1dxy       0.000000  0.000000 -0.000000 -0.000000  0.014305 -0.000000
  0O   2dz2      -0.000000  0.000000 -0.132135  0.022832  0.000000  0.000000
  0O   2dxz       0.000000  0.000000 -0.000000  0.000000 -0.000000 -0.010884
  0O   2dyz      -0.195759 -0.223208  0.000000  0.000000  0.000000  0.000000
  0O   2dx2y2     0.000000  0.000000 -0.098953  0.035406  0.000000 -0.000000
  0O   2dxy      -0.000000 -0.000000 -0.000000 -0.000000  0.109733 -0.000000
  0O   3dz2      -0.000000 -0.000000 -1.294752  1.446038  0.000000 -0.000000
  0O   3dxz       0.000000 -0.000000  0.000000  0.000000  0.000000  1.464636
  0O   3dyz      -0.125173 -2.539935  0.000000  0.000000 -0.000000  0.000000
  0O   3dx2y2     0.000000  0.000000 -1.411362 -0.244787 -0.000000 -0.000000
  0O   3dxy      -0.000000 -0.000000 -0.000000 -0.000000  2.077944 -0.000000
  0O   1f0       -0.000000 -0.000000 -0.007287  0.000946 -0.000000  0.000000
  0O   1f+1      -0.000000 -0.000000  0.000000  0.000000 -0.000000 -0.001564
  0O   1f-1       0.011853 -0.010243  0.000000 -0.000000 -0.000000 -0.000000
  0O   1f+2      -0.000000 -0.000000  0.002838 -0.003469 -0.000000  0.000000
  0O   1f-2      -0.000000 -0.000000 -0.000000 -0.000000  0.023160 -0.000000
  0O   1f+3      -0.000000 -0.000000  0.000000  0.000000  0.000000  0.020859
  0O   1f-3       0.007713 -0.006583 -0.000000  0.000000 -0.000000  0.000000
  0O   2f0       -0.000000 -0.000000  0.125091 -0.039568 -0.000000  0.000000
  0O   2f+1      -0.000000  0.000000 -0.000000 -0.000000  0.000000 -0.024339
  0O   2f-1      -0.041207  0.182209 -0.000000  0.000000  0.000000  0.000000
  0O   2f+2      -0.000000 -0.000000  0.049231  0.039572 -0.000000  0.000000
  0O   2f-2       0.000000  0.000000  0.000000  0.000000 -0.253641  0.000000
  0O   2f+3      -0.000000 -0.000000 -0.000000 -0.000000 -0.000000 -0.154707
  0O   2f-3       0.029399  0.090876 -0.000000 -0.000000  0.000000 -0.000000
  1H   1s        -0.019170  0.108737  0.061817  0.060546  0.000000 -0.000000
  1H   2s        -1.224426 -2.524478 -0.140741 -0.686545  0.000000 -0.000000
  1H   3s       -11.429417 -6.762742 -3.237462 -2.542819 -0.000000  0.000000
  1H   4s        -2.074397 -0.837248 -0.144874 -0.086429 -0.000000  0.000000
  1H   1pz        0.005249 -0.004951  0.034130 -0.018076  0.000000 -0.000000
  1H   1px       -0.000000 -0.000000 -0.000000 -0.000000  0.036557 -0.032422
  1H   1py        0.000001  0.015080  0.020779 -0.025961 -0.000000  0.000000
  1H   2pz       -0.498947 -0.371899 -0.654428  0.099877  0.000000 -0.000000
  1H   2px        0.000000  0.000000  0.000000  0.000000 -0.668873  0.464503
  1H   2py        0.458742  0.547821 -0.077017  0.534650  0.000000  0.000000
  1H   3pz       -2.400115 -0.045119 -1.149725  0.790898  0.000000 -0.000000
  1H   3px        0.000000  0.000000  0.000000  0.000000 -1.694625  1.437811
  1H   3py        3.528642  1.315298 -0.419258  0.510235  0.000000 -0.000000
  1H   1dz2      -0.004990  0.004121 -0.008821 -0.006810 -0.000000  0.000000
  1H   1dxz       0.000000  0.000000  0.000000  0.000000 -0.012358 -0.002992
  1H   1dyz       0.036840  0.023593  0.026019  0.001133 -0.000000  0.000000
  1H   1dx2y2     0.024189  0.021201 -0.006535  0.020293 -0.000000  0.000000
  1H   1dxy      -0.000000 -0.000000 -0.000000 -0.000000  0.016404 -0.008645
  1H   2dz2      -0.100774  0.198760 -0.572577  0.477987  0.000000 -0.000000
  1H   2dxz       0.000000  0.000000  0.000000  0.000000 -0.518992  0.500495
  1H   2dyz       0.314263 -0.313245  0.122360 -0.012537 -0.000000  0.000000
  1H   2dx2y2     0.155751 -0.177728 -0.327300  0.091186 -0.000000  0.000000
  1H   2dxy      -0.000000 -0.000000 -0.000000 -0.000000  0.713638 -0.315407
  2H   1s         0.019170 -0.108737  0.061817  0.060546  0.000000 -0.000000
  2H   2s         1.224426  2.524478 -0.140741 -0.686545  0.000000 -0.000000
  2H   3s        11.429417  6.762742 -3.237462 -2.542819 -0.000000  0.000000
  2H   4s         2.074397  0.837248 -0.144874 -0.086429 -0.000000  0.000000
  2H   1pz       -0.005249  0.004951  0.034130 -0.018076 -0.000000 -0.000000
  2H   1px        0.000000  0.000000 -0.000000  0.000000 -0.036557 -0.032422
  2H   1py        0.000001  0.015080 -0.020779  0.025961  0.000000 -0.000000
  2H   2pz        0.498947  0.371899 -0.654428  0.099877  0.000000 -0.000000
  2H   2px       -0.000000 -0.000000 -0.000000 -0.000000  0.668873  0.464503
  2H   2py        0.458742  0.547821  0.077017 -0.534650 -0.000000 -0.000000
  2H   3pz        2.400115  0.045119 -1.149725  0.790898  0.000000 -0.000000
  2H   3px       -0.000000 -0.000000 -0.000000 -0.000000  1.694625  1.437811
  2H   3py        3.528642  1.315298  0.419258 -0.510235 -0.000000  0.000000
  2H   1dz2       0.004990 -0.004121 -0.008821 -0.006810 -0.000000 -0.000000
  2H   1dxz       0.000000  0.000000 -0.000000 -0.000000  0.012358 -0.002992
  2H   1dyz       0.036840  0.023593 -0.026019 -0.001133  0.000000 -0.000000
  2H   1dx2y2    -0.024189 -0.021201 -0.006535  0.020293  0.000000  0.000000
  2H   1dxy       0.000000 -0.000000 -0.000000 -0.000000  0.016404  0.008645
  2H   2dz2       0.100774 -0.198760 -0.572577  0.477987  0.000000 -0.000000
  2H   2dxz      -0.000000 -0.000000 -0.000000 -0.000000  0.518992  0.500495
  2H   2dyz       0.314263 -0.313245 -0.122360  0.012537 -0.000000  0.000000
  2H   2dx2y2    -0.155751  0.177728 -0.327300  0.091186  0.000000  0.000000
  2H   2dxy      -0.000000 -0.000000 -0.000000 -0.000000  0.713638  0.315407
                     24        25        26        27        28        29   
                   0.83048   0.84560   0.89095   0.91320   0.91963   0.92217
                   0.00000   0.00000   0.00000   0.00000   0.00000   0.00000
                  --------  --------  --------  --------  --------  --------
  0O   1s        -0.001369 -0.000000 -0.051282 -0.000000 -0.000000  0.000000
  0O   2s        -0.090817 -0.000000  0.001780  0.000000 -0.000000 -0.000000
  0O   3s         0.014783 -0.000000 -0.082424  0.000000 -0.000000  0.000000
  0O   4s        -3.929072  0.000000  9.276491  0.000000  0.000000 -0.000000
  0O   5s        -0.142644  0.000000  8.295406  0.000000  0.000000 -0.000000
  0O   1pz        0.004613  0.000000  0.237731  0.000000  0.000000 -0.000000
  0O   1px       -0.000000  0.113671 -0.000000 -0.000000 -0.160287  0.000000
  0O   1py       -0.000000 -0.000000  0.000000  0.035772  0.000000 -0.000000
  0O   2pz        0.177054 -0.000000 -0.075507  0.000000  0.000000  0.000000
  0O   2px       -0.000000  0.207630 -0.000000 -0.000000 -0.398167  0.000000
  0O   2py        0.000000  0.000000 -0.000000  0.187241  0.000000 -0.000000
  0O   3pz        1.543331 -0.000000 -6.821365 -0.000000 -0.000000  0.000000
  0O   3px        0.000000 -3.525612  0.000000  0.000000  2.697306 -0.000000
  0O   3py        0.000000  0.000000 -0.000000  2.983962 -0.000000  0.000000
  0O   4pz       -0.466975 -0.000000 -1.160320 -0.000000 -0.000000  0.000000
  0O   4px        0.000000 -0.732700  0.000000 -0.000000  0.190397 -0.000000
  0O   4py        0.000000  0.000000 -0.000000  0.894649 -0.000000  0.000000
  0O   1dz2       0.001042 -0.000000 -0.017496 -0.000000 -0.000000  0.000000
  0O   1dxz       0.000000 -0.013924 -0.000000  0.000000  0.028739 -0.000000
  0O   1dyz       0.000000  0.000000 -0.000000 -0.005813 -0.000000  0.000000
  0O   1dx2y2    -0.008001  0.000000  0.010580  0.000000  0.000000 -0.000000
  0O   1dxy      -0.000000  0.000000  0.000000  0.000000  0.000000  0.028437
  0O   2dz2       0.056808  0.000000  0.134229  0.000000  0.000000 -0.000000
  0O   2dxz      -0.000000  0.133529 -0.000000 -0.000000 -0.166146  0.000000
  0O   2dyz      -0.000000 -0.000000  0.000000 -0.014696  0.000000 -0.000000
  0O   2dx2y2     0.147861 -0.000000 -0.361245 -0.000000 -0.000000  0.000000
  0O   2dxy       0.000000 -0.000000 -0.000000 -0.000000 -0.000000 -0.138716
  0O   3dz2       0.774788  0.000000  0.990420  0.000000  0.000000 -0.000000
  0O   3dxz      -0.000000  1.421039 -0.000000  0.000000  0.543810 -0.000000
  0O   3dyz      -0.000000 -0.000000  0.000000 -1.435667  0.000000  0.000000
  0O   3dx2y2     1.212439 -0.000000 -1.503518 -0.000000  0.000000  0.000000
  0O   3dxy      -0.000000 -0.000000  0.000000  0.000000 -0.000000 -0.135153
  0O   1f0        0.020817  0.000000  0.026158 -0.000000 -0.000000 -0.000000
  0O   1f+1      -0.000000  0.027964 -0.000000  0.000000  0.020083 -0.000000
  0O   1f-1       0.000000  0.000000 -0.000000 -0.006202 -0.000000  0.000000
  0O   1f+2       0.015131  0.000000  0.007182 -0.000000  0.000000 -0.000000
  0O   1f-2       0.000000 -0.000000 -0.000000  0.000000  0.000000  0.000320
  0O   1f+3      -0.000000  0.001942  0.000000 -0.000000 -0.023845  0.000000
  0O   1f-3       0.000000  0.000000  0.000000 -0.026260  0.000000  0.000000
  0O   2f0       -0.232906 -0.000000 -0.012558  0.000000  0.000000  0.000000
  0O   2f+1       0.000000 -0.169279  0.000000 -0.000000 -0.080884  0.000000
  0O   2f-1      -0.000000 -0.000000  0.000000  0.070023  0.000000 -0.000000
  0O   2f+2      -0.219362  0.000000  0.283948  0.000000  0.000000 -0.000000
  0O   2f-2      -0.000000  0.000000  0.000000 -0.000000 -0.000000  0.002964
  0O   2f+3       0.000000 -0.092670  0.000000  0.000000  0.194243 -0.000000
  0O   2f-3       0.000000  0.000000 -0.000000  0.156316 -0.000000 -0.000000
  1H   1s         0.069607  0.000000  0.050230  0.002687 -0.000000  0.000000
  1H   2s         2.965246 -0.000000 -5.064324 -2.426135  0.000000  0.000000
  1H   3s        -0.302386 -0.000000 -4.895810 -0.715642 -0.000000  0.000000
  1H   4s         0.082667 -0.000000 -0.339437 -0.451883  0.000000  0.000000
  1H   1pz        0.020946 -0.000000 -0.051732  0.000741 -0.000000  0.000000
  1H   1px        0.000000 -0.032846  0.000000  0.000000  0.000181  0.001411
  1H   1py       -0.027472  0.000000  0.032608  0.020069 -0.000000  0.000000
  1H   2pz        0.526385 -0.000000 -0.687254 -0.131513  0.000000 -0.000000
  1H   2px       -0.000000  0.635439 -0.000000 -0.000000 -0.328270  0.040509
  1H   2py       -0.099429  0.000000  1.697317  0.032442  0.000000 -0.000000
  1H   3pz        0.287642 -0.000000  0.005653 -0.672252  0.000000 -0.000000
  1H   3px       -0.000000  1.281505 -0.000000  0.000000 -0.764290  0.523177
  1H   3py        0.084452  0.000000  0.773683 -0.317408  0.000000 -0.000000
  1H   1dz2       0.031181  0.000000  0.010194  0.023976  0.000000 -0.000000
  1H   1dxz      -0.000000  0.021147 -0.000000 -0.000000 -0.005089 -0.031033
  1H   1dyz      -0.016346  0.000000  0.083821 -0.004729 -0.000000  0.000000
  1H   1dx2y2     0.012744  0.000000  0.059952 -0.012656 -0.000000  0.000000
  1H   1dxy       0.000000 -0.001645 -0.000000  0.000000  0.026858 -0.002039
  1H   2dz2      -0.065434 -0.000000  0.081356 -0.719839  0.000000  0.000000
  1H   2dxz      -0.000000  0.161854  0.000000  0.000000 -0.915125  0.941054
  1H   2dyz      -0.415665 -0.000000 -0.339690  0.222021 -0.000000  0.000000
  1H   2dx2y2     0.064525  0.000000  0.352963  0.169062  0.000000 -0.000000
  1H   2dxy       0.000000 -1.155524  0.000000 -0.000000  0.138654 -0.434984
  2H   1s         0.069607  0.000000  0.050230 -0.002687  0.000000 -0.000000
  2H   2s         2.965246 -0.000000 -5.064324  2.426135 -0.000000  0.000000
  2H   3s        -0.302386 -0.000000 -4.895810  0.715642 -0.000000  0.000000
  2H   4s         0.082667 -0.000000 -0.339437  0.451883 -0.000000  0.000000
  2H   1pz        0.020946 -0.000000 -0.051732 -0.000741  0.000000  0.000000
  2H   1px        0.000000 -0.032846  0.000000  0.000000  0.000181 -0.001411
  2H   1py        0.027472 -0.000000 -0.032608  0.020069 -0.000000  0.000000
  2H   2pz        0.526385 -0.000000 -0.687254  0.131513 -0.000000  0.000000
  2H   2px       -0.000000  0.635439 -0.000000 -0.000000 -0.328270 -0.040509
  2H   2py        0.099429 -0.000000 -1.697317  0.032442 -0.000000  0.000000
  2H   3pz        0.287642  0.000000  0.005653  0.672252 -0.000000  0.000000
  2H   3px       -0.000000  1.281505 -0.000000 -0.000000 -0.764290 -0.523177
  2H   3py       -0.084452 -0.000000 -0.773683 -0.317408  0.000000  0.000000
  2H   1dz2       0.031181  0.000000  0.010194 -0.023976 -0.000000  0.000000
  2H   1dxz      -0.000000  0.021147 -0.000000  0.000000 -0.005089  0.031033
  2H   1dyz       0.016346 -0.000000 -0.083821 -0.004729 -0.000000  0.000000
  2H   1dx2y2     0.012744  0.000000  0.059952  0.012656  0.000000 -0.000000
  2H   1dxy       0.000000  0.001645 -0.000000 -0.000000 -0.026858 -0.002039
  2H   2dz2      -0.065434  0.000000  0.081356  0.719839 -0.000000 -0.000000
  2H   2dxz      -0.000000  0.161854 -0.000000 -0.000000 -0.915125 -0.941054
  2H   2dyz       0.415665  0.000000  0.339690  0.222021 -0.000000  0.000000
  2H   2dx2y2     0.064525  0.000000  0.352963 -0.169062 -0.000000  0.000000
  2H   2dxy      -0.000000  1.155524 -0.000000 -0.000000 -0.138654 -0.434984
                     30        31        32        33        34        35   
                   0.93004   0.96451   1.02259   1.04471   1.08361   1.11047
                   0.00000   0.00000   0.00000   0.00000   0.00000   0.00000
                  --------  --------  --------  --------  --------  --------
  0O   1s         0.000000  0.010604  0.060017 -0.000000  0.000000 -0.000000
  0O   2s         0.000000 -0.021059 -0.108588  0.000000 -0.000000 -0.000000
  0O   3s         0.000000  0.000256 -0.032777  0.000000 -0.000000  0.000000
  0O   4s         0.000000 -0.156150  6.040609 -0.000000  0.000000 -0.000000
  0O   5s         0.000000  3.377698  6.084710 -0.000000  0.000000 -0.000000
  0O   1pz        0.000000  0.085716  0.127023 -0.000000  0.000000 -0.000000
  0O   1px       -0.000000  0.000000  0.000000 -0.000000 -0.169918  0.000000
  0O   1py       -0.102362 -0.000000 -0.000000 -0.254329  0.000000 -0.035760
  0O   2pz        0.000000  0.166823 -0.079291  0.000000 -0.000000  0.000000
  0O   2px       -0.000000  0.000000  0.000000 -0.000000 -0.597345  0.000000
  0O   2py       -0.089492  0.000000 -0.000000  0.179532  0.000000 -0.154293
  0O   3pz       -0.000000 -0.374166  1.033560 -0.000000 -0.000000 -0.000000
  0O   3px        0.000000 -0.000000 -0.000000  0.000000  0.609843 -0.000000
  0O   3py        5.716902 -0.000000 -0.000000 -0.998751  0.000000 -0.278349
  0O   4pz       -0.000000 -0.540499 -0.158653  0.000000 -0.000000  0.000000
  0O   4px        0.000000 -0.000000  0.000000  0.000000 -0.211921 -0.000000
  0O   4py        2.851457 -0.000000 -0.000000  0.753994 -0.000000 -0.051074
  0O   1dz2      -0.000000 -0.023463  0.000202 -0.000000 -0.000000 -0.000000
  0O   1dxz       0.000000 -0.000000 -0.000000 -0.000000 -0.008155 -0.000000
  0O   1dyz       0.003827 -0.000000 -0.000000 -0.007750  0.000000 -0.002415
  0O   1dx2y2     0.000000  0.002747  0.001845 -0.000000  0.000000 -0.000000
  0O   1dxy      -0.000000 -0.000000 -0.000000  0.000000  0.000000  0.000000
  0O   2dz2       0.000000  0.101550 -0.028840  0.000000  0.000000 -0.000000
  0O   2dxz      -0.000000  0.000000 -0.000000  0.000000  0.004748  0.000000
  0O   2dyz      -0.061655 -0.000000  0.000000 -0.213221 -0.000000  0.042069
  0O   2dx2y2    -0.000000 -0.032812 -0.071529  0.000000 -0.000000  0.000000
  0O   2dxy       0.000000  0.000000 -0.000000 -0.000000 -0.000000 -0.000000
  0O   3dz2      -0.000000 -0.879190 -0.176972  0.000000 -0.000000 -0.000000
  0O   3dxz       0.000000 -0.000000 -0.000000 -0.000000 -0.861900  0.000000
  0O   3dyz      -0.717452  0.000000  0.000000  2.126135 -0.000000  2.338455
  0O   3dx2y2     0.000000  1.469251  0.906329 -0.000000  0.000000 -0.000000
  0O   3dxy      -0.000000  0.000000  0.000000 -0.000000 -0.000000 -0.000000
  0O   1f0       -0.000000 -0.017847  0.005354 -0.000000  0.000000 -0.000000
  0O   1f+1       0.000000 -0.000000 -0.000000 -0.000000 -0.006170 -0.000000
  0O   1f-1       0.019509  0.000000  0.000000  0.024783 -0.000000  0.025897
  0O   1f+2      -0.000000  0.011968  0.008510 -0.000000  0.000000 -0.000000
  0O   1f-2       0.000000 -0.000000 -0.000000  0.000000 -0.000000  0.000000
  0O   1f+3      -0.000000  0.000000  0.000000 -0.000000  0.005498  0.000000
  0O   1f-3      -0.004188  0.000000 -0.000000  0.014030 -0.000000 -0.021078
  0O   2f0        0.000000  0.081859 -0.066305  0.000000 -0.000000  0.000000
  0O   2f+1      -0.000000  0.000000  0.000000  0.000000  0.067028 -0.000000
  0O   2f-1      -0.208643  0.000000 -0.000000 -0.152057  0.000000 -0.319299
  0O   2f+2       0.000000 -0.091528 -0.140870  0.000000 -0.000000  0.000000
  0O   2f-2      -0.000000  0.000000  0.000000  0.000000  0.000000  0.000000
  0O   2f+3       0.000000 -0.000000 -0.000000  0.000000  0.057980 -0.000000
  0O   2f-3       0.129039 -0.000000 -0.000000 -0.073461  0.000000  0.154854
  1H   1s         0.038341  0.020609  0.103526  0.127460 -0.000000  0.001202
  1H   2s        -1.755240  1.502854  1.308704  1.777260 -0.000000  2.209679
  1H   3s        -1.345512 -2.458741 -5.269560 -7.810205 -0.000000 -2.418259
  1H   4s        -0.687605 -0.130068 -0.331393 -0.876496  0.000000  0.005032
  1H   1pz        0.027489  0.011960  0.030444 -0.003773 -0.000000  0.002042
  1H   1px       -0.000000 -0.000000 -0.000000 -0.000000  0.020904 -0.000000
  1H   1py        0.032859 -0.011364 -0.026025 -0.023321  0.000000 -0.022882
  1H   2pz       -0.879045 -0.109689 -0.438058 -0.665581 -0.000000 -0.460714
  1H   2px       -0.000000  0.000000  0.000000  0.000000 -0.472086  0.000000
  1H   2py       -0.143172  0.102569  0.499096  0.787405  0.000000 -0.356363
  1H   3pz       -2.374066 -0.143772 -1.894124 -1.730888 -0.000000 -0.148860
  1H   3px       -0.000000  0.000000 -0.000000 -0.000000  0.086459  0.000000
  1H   3py       -2.242744  0.709491  2.096461  3.234131 -0.000000  0.863450
  1H   1dz2      -0.026546 -0.021720  0.003752 -0.011071  0.000000 -0.019858
  1H   1dxz       0.000000 -0.000000  0.000000  0.000000 -0.038178  0.000000
  1H   1dyz       0.007942 -0.000591  0.005763  0.052576  0.000000  0.035991
  1H   1dx2y2     0.023099  0.016651 -0.000365  0.026029  0.000000 -0.025187
  1H   1dxy       0.000000 -0.000000 -0.000000 -0.000000  0.044739 -0.000000
  1H   2dz2      -1.019219  0.836114 -0.250341 -0.074677 -0.000000 -0.960105
  1H   2dxz      -0.000000  0.000000  0.000000  0.000000  0.588406  0.000000
  1H   2dyz       0.506142  0.207566  1.195222  1.139729 -0.000000 -0.911294
  1H   2dx2y2    -1.251376 -0.337458  0.756870  1.053424 -0.000000  0.286304
  1H   2dxy       0.000000 -0.000000  0.000000  0.000000 -0.339986 -0.000000
  2H   1s        -0.038341  0.020609  0.103526 -0.127460  0.000000 -0.001202
  2H   2s         1.755240  1.502854  1.308704 -1.777260  0.000000 -2.209679
  2H   3s         1.345512 -2.458741 -5.269560  7.810205 -0.000000  2.418259
  2H   4s         0.687605 -0.130068 -0.331393  0.876496 -0.000000 -0.005032
  2H   1pz       -0.027489  0.011960  0.030444  0.003773  0.000000 -0.002042
  2H   1px        0.000000 -0.000000 -0.000000  0.000000  0.020904  0.000000
  2H   1py        0.032859  0.011364  0.026025 -0.023321  0.000000 -0.022882
  2H   2pz        0.879045 -0.109689 -0.438058  0.665581 -0.000000  0.460714
  2H   2px       -0.000000  0.000000  0.000000 -0.000000 -0.472086 -0.000000
  2H   2py       -0.143172 -0.102569 -0.499096  0.787405 -0.000000 -0.356363
  2H   3pz        2.374066 -0.143772 -1.894124  1.730888 -0.000000  0.148860
  2H   3px       -0.000000  0.000000 -0.000000  0.000000  0.086459  0.000000
  2H   3py       -2.242744 -0.709491 -2.096461  3.234131 -0.000000  0.863450
  2H   1dz2       0.026546 -0.021720  0.003752  0.011071 -0.000000  0.019858
  2H   1dxz      -0.000000  0.000000  0.000000 -0.000000 -0.038178 -0.000000
  2H   1dyz       0.007942  0.000591 -0.005763  0.052576  0.000000  0.035991
  2H   1dx2y2    -0.023099  0.016651 -0.000365 -0.026029 -0.000000  0.025187
  2H   1dxy      -0.000000  0.000000  0.000000 -0.000000 -0.044739 -0.000000
  2H   2dz2       1.019219  0.836114 -0.250341  0.074677 -0.000000  0.960105
  2H   2dxz      -0.000000  0.000000 -0.000000  0.000000  0.588406 -0.000000
  2H   2dyz       0.506142 -0.207566 -1.195222  1.139729 -0.000000 -0.911294
  2H   2dx2y2     1.251376 -0.337458  0.756870 -1.053424  0.000000 -0.286304
  2H   2dxy      -0.000000  0.000000 -0.000000  0.000000  0.339986 -0.000000
                     36        37        38        39        40        41   
                   1.17577   1.18119   1.25946   1.51197   1.54367   1.58821
                   0.00000   0.00000   0.00000   0.00000   0.00000   0.00000
                  --------  --------  --------  --------  --------  --------
  0O   1s         0.000000 -0.014020  0.000000 -0.000000 -0.074514 -0.000000
  0O   2s         0.000000 -0.080669 -0.000000 -0.000000 -0.217328 -0.000000
  0O   3s        -0.000000  0.019324 -0.000000 -0.000000 -0.078846 -0.000000
  0O   4s         0.000000 -2.719108  0.000000  0.000000  3.419545  0.000000
  0O   5s         0.000000 -1.401374 -0.000000  0.000000  2.241675  0.000000
  0O   1pz        0.000000 -0.075219 -0.000000 -0.000000  0.045351 -0.000000
  0O   1px       -0.000000 -0.000000 -0.000000 -0.000000 -0.000000 -0.104574
  0O   1py       -0.000000  0.000000  0.119945  0.000000 -0.000000  0.000000
  0O   2pz        0.000000 -0.054238 -0.000000 -0.000000 -0.095010 -0.000000
  0O   2px       -0.000000 -0.000000  0.000000 -0.000000 -0.000000 -0.361514
  0O   2py       -0.000000  0.000000 -0.373081  0.000000 -0.000000  0.000000
  0O   3pz       -0.000000  0.411695 -0.000000 -0.000000  2.916742 -0.000000
  0O   3px       -0.000000 -0.000000  0.000000 -0.000000 -0.000000 -5.067496
  0O   3py       -0.000000  0.000000-12.620522 -0.000000  0.000000 -0.000000
  0O   4pz       -0.000000  0.105562 -0.000000 -0.000000  0.363677 -0.000000
  0O   4px       -0.000000  0.000000  0.000000 -0.000000 -0.000000 -0.792242
  0O   4py       -0.000000  0.000000 -2.210538 -0.000000  0.000000 -0.000000
  0O   1dz2       0.000000 -0.025262  0.000000  0.000000  0.038133 -0.000000
  0O   1dxz      -0.000000 -0.000000  0.000000 -0.000000 -0.000000 -0.026257
  0O   1dyz      -0.000000  0.000000 -0.055334 -0.000000  0.000000  0.000000
  0O   1dx2y2     0.000000 -0.029743  0.000000  0.000000  0.024933  0.000000
  0O   1dxy       0.023584  0.000000 -0.000000  0.041724 -0.000000 -0.000000
  0O   2dz2      -0.000000  0.067012 -0.000000 -0.000000 -0.115386 -0.000000
  0O   2dxz       0.000000  0.000000 -0.000000  0.000000  0.000000 -0.019201
  0O   2dyz       0.000000 -0.000000  0.715085  0.000000  0.000000  0.000000
  0O   2dx2y2    -0.000000  0.224913 -0.000000 -0.000000 -0.149226 -0.000000
  0O   2dxy      -0.098650 -0.000000  0.000000 -0.092032  0.000000 -0.000000
  0O   3dz2      -0.000000  0.058139 -0.000000 -0.000000 -2.668486  0.000000
  0O   3dxz       0.000000  0.000000 -0.000000  0.000000  0.000000  2.004982
  0O   3dyz       0.000000 -0.000000  4.989015  0.000000 -0.000000  0.000000
  0O   3dx2y2     0.000000 -0.080138 -0.000000 -0.000000 -2.040564  0.000000
  0O   3dxy       1.368694  0.000000  0.000000 -2.714495  0.000000  0.000000
  0O   1f0       -0.000000  0.007188  0.000000  0.000000 -0.004480  0.000000
  0O   1f+1       0.000000  0.000000  0.000000  0.000000 -0.000000  0.000515
[...]
done (   18.9)
done (    2.0)
Building the initial guess                 ... done (    0.0)
Solving Root No   1 

Iter    Delta-E          Residual              Time
---------------------------------------------------
  0   0.280420408084   0.001120054066         0.001
  1   0.002411438985   0.000073335841         0.000
  2   0.000114683792   0.000007687835         0.000

      *** CONVERGENCE OF RESIDUAL NORM REACHED ***
       --- The STEOM iterations have converged ---
Solving Root No   2 

Iter    Delta-E          Residual              Time
---------------------------------------------------
  0   0.349041877080   0.001369063414         0.000
  1   0.004167809258   0.000126791985         0.000
  2   0.000172650886   0.000024895429         0.000
  3   0.000006713741   0.000005242611         0.000

      *** CONVERGENCE OF RESIDUAL NORM REACHED ***
       --- The STEOM iterations have converged ---
Solving Root No   3 

Iter    Delta-E          Residual              Time
---------------------------------------------------
  0   0.364068208151   0.001888305692         0.000
  1   0.001449455254   0.000058395303         0.000
  2   0.000399274703   0.000027835685         0.000
  3   0.000086008934   0.000011180957         0.000
  4   0.000031406751   0.000003053548         0.000

      *** CONVERGENCE OF RESIDUAL NORM REACHED ***
       --- The STEOM iterations have converged ---
Solving Root No   4 

Iter    Delta-E          Residual              Time
---------------------------------------------------
  0   0.400273660251   0.000918192065         0.001
  1   0.015178784743   0.022541071046         0.000
  2   0.013878456929   0.000339528969         0.000
  3   0.000438228309   0.000052421023         0.000
  4   0.000030070754   0.000006399077         0.000

      *** CONVERGENCE OF RESIDUAL NORM REACHED ***
       --- The STEOM iterations have converged ---
Solving Root No   5 

Iter    Delta-E          Residual              Time
---------------------------------------------------
  0   0.419143799480   0.001208438444         0.000
  1   0.002441367078   0.000691115994         0.000
  2   0.001661218581   0.001482751990         0.000
  3   0.003057804325   0.001427217375         0.000
  4   0.001345265732   0.000147326936         0.000
  5   0.000063755509   0.000016098651         0.000
  6   0.000075293525   0.000004358227         0.000

      *** CONVERGENCE OF RESIDUAL NORM REACHED ***
       --- The STEOM iterations have converged ---
Solving Root No   6 

Iter    Delta-E          Residual              Time
---------------------------------------------------
  0   0.430262569770   0.001958632480         0.000
  1   0.002078938847   0.000067758254         0.000
  2   0.000478570465   0.000009766337         0.000

      *** CONVERGENCE OF RESIDUAL NORM REACHED ***
       --- The STEOM iterations have converged ---
Solving Root No   7 

Iter    Delta-E          Residual              Time
---------------------------------------------------
  0   0.423309859511   0.000398091506         0.000
  1   0.003238539963   0.012180910928         0.000
  2   0.003583378684   0.000084309461         0.000
  3   0.000144381619   0.000014228849         0.000
  4   0.000000465345   0.000005241420         0.000

      *** CONVERGENCE OF RESIDUAL NORM REACHED ***
       --- The STEOM iterations have converged ---
Solving Root No   8 

Iter    Delta-E          Residual              Time
---------------------------------------------------
  0   0.432693304532   0.001245425380         0.000
  1   0.020599660317   0.021440617750         0.000
  2   0.020092199048   0.000637352917         0.000
  3   0.000881278526   0.000057360901         0.000
  4   0.000102130841   0.000068763455         0.000
  5   0.000041479250   0.000007739634         0.000

      *** CONVERGENCE OF RESIDUAL NORM REACHED ***
       --- The STEOM iterations have converged ---
Solving Root No   9 

Iter    Delta-E          Residual              Time
---------------------------------------------------
  0   0.464961085536   0.000165476755         0.000
  1   0.001870382578   0.006910853044         0.000
  2   0.002047044761   0.000096156788         0.000
  3   0.003868208100   0.008884703838         0.000
  4   0.003307267437   0.000032576071         0.000
  5   0.000045734458   0.000001634195         0.000

      *** CONVERGENCE OF RESIDUAL NORM REACHED ***
       --- The STEOM iterations have converged ---
Solving Root No  10 

Iter    Delta-E          Residual              Time
---------------------------------------------------
  0   0.514576754764   0.000656944920         0.000
  1   0.001666870494   0.000039263443         0.000
  2   0.000258303816   0.000053235269         0.000
  3   0.000168087694   0.000033077159         0.000
  4   0.000030731722   0.000017432026         0.000
  5   0.000092638586   0.000731730282         0.000
  6   0.000131869765   0.000081629074         0.000
  7   0.001322901210   0.000642850354         0.000
  8   0.000696626414   0.000157952409         0.000
  9   0.000182039421   0.000333087342         0.000
 10   0.000506127165   0.000158888527         0.000
 11   0.000337871018   0.000561658154         0.000
 12   0.000491171524   0.000085379149         0.000
 13   0.000035403775   0.000006295427         0.000

      *** CONVERGENCE OF RESIDUAL NORM REACHED ***
       --- The STEOM iterations have converged ---

------------------
STEOM-CCSD RESULTS
------------------

IROOT=  1:  0.277894 au     7.562 eV   60990.7 cm**-1
  Amplitude    Excitation
  -0.826424     4 ->   5
  -0.164183     4 ->   8
  -0.537699     4 ->   9
  Ground state amplitude: -0.000000

Percentage Active Character     99.92

  Amplitude    Excitation in Canonical Basis
  -0.815454     4 ->   5
  -0.397201     4 ->   7
  -0.372776     4 ->   9
  -0.185189     4 ->  17

IROOT=  2:  0.344695 au     9.380 eV   75651.7 cm**-1
  Amplitude    Excitation
  -0.823617     4 ->   6
  -0.337733     4 ->  10
  -0.453474     4 ->  11
  Ground state amplitude:  0.000000

Percentage Active Character     99.80

  Amplitude    Excitation in Canonical Basis
  -0.820615     4 ->   6
   0.471751     4 ->  10
   0.248630     4 ->  11
   0.191036     4 ->  18

IROOT=  3:  0.362165 au     9.855 eV   79486.0 cm**-1
  Amplitude    Excitation
  -0.829315     3 ->   5
  -0.517354     3 ->   9
  -0.181179     4 ->   7
  Ground state amplitude: -0.003961

Percentage Active Character     99.57

  Amplitude    Excitation in Canonical Basis
  -0.819299     3 ->   5
  -0.329636     3 ->   7
  -0.394249     3 ->   9
  -0.164178     3 ->  17
  -0.171378     4 ->   8

IROOT=  4:  0.398505 au    10.844 eV   87461.7 cm**-1
  Amplitude    Excitation
   0.297076     4 ->   5
  -0.925551     4 ->   8
  -0.212532     4 ->   9
  Ground state amplitude:  0.000000

Percentage Active Character     99.04

  Amplitude    Excitation in Canonical Basis
   0.318753     4 ->   5
  -0.867360     4 ->   7
   0.256601     4 ->   9
   0.231178     4 ->  15
  -0.129512     4 ->  17

IROOT=  5:  0.416615 au    11.337 eV   91436.4 cm**-1
  Amplitude    Excitation
  -0.162504     3 ->   5
   0.138224     3 ->   8
   0.969049     4 ->   7
  Ground state amplitude: -0.021306

Percentage Active Character     99.37

  Amplitude    Excitation in Canonical Basis
  -0.162599     3 ->   5
  -0.103316     3 ->   9
   0.955698     4 ->   8
   0.164191     4 ->  14

IROOT=  6:  0.422820 au    11.506 eV   92798.3 cm**-1
  Amplitude    Excitation
   0.453156     4 ->   5
   0.357352     4 ->   8
  -0.815507     4 ->   9
  Ground state amplitude: -0.000000

Percentage Active Character     99.81

  Amplitude    Excitation in Canonical Basis
   0.446956     4 ->   5
  -0.841934     4 ->   9
   0.203232     4 ->  12
  -0.196988     4 ->  17

IROOT=  7:  0.427705 au    11.638 eV   93870.4 cm**-1
  Amplitude    Excitation
  -0.839286     3 ->   6
  -0.360220     3 ->  10
  -0.395417     3 ->  11
  Ground state amplitude: -0.000000

Percentage Active Character     99.09

  Amplitude    Excitation in Canonical Basis
  -0.836525     3 ->   6
   0.473898     3 ->  10
   0.197770     3 ->  11
   0.166751     3 ->  18

IROOT=  8:  0.431161 au    11.732 eV   94628.9 cm**-1
  Amplitude    Excitation
   0.452635     4 ->   6
  -0.887102     4 ->  11
  Ground state amplitude:  0.000000

Percentage Active Character     99.29

  Amplitude    Excitation in Canonical Basis
   0.460704     4 ->   6
   0.321543     4 ->  10
   0.763446     4 ->  11
   0.247495     4 ->  18
  -0.182783     4 ->  19

IROOT=  9:  0.465300 au    12.661 eV  102121.5 cm**-1
  Amplitude    Excitation
   0.309844     4 ->   6
  -0.940234     4 ->  10
   0.137021     4 ->  11
  Ground state amplitude:  0.000000

Percentage Active Character     99.88

  Amplitude    Excitation in Canonical Basis
   0.305503     4 ->   6
   0.764423     4 ->  10
  -0.526815     4 ->  11
   0.132195     4 ->  18
   0.125523     4 ->  19

IROOT= 10:  0.512863 au    13.956 eV  112560.5 cm**-1
  Amplitude    Excitation
   0.805754     2 ->   5
   0.178624     2 ->   8
   0.520642     2 ->   9
  -0.202876     3 ->  11
  Ground state amplitude: -0.000031

Percentage Active Character     99.83

  Amplitude    Excitation in Canonical Basis
   0.795685     2 ->   5
   0.399128     2 ->   7
   0.353829     2 ->   9
   0.176675     2 ->  17
   0.189306     3 ->  11


STEOM-CCSD done (    2.1 sec)
Calculating the Dipole integrals                  ... done
Transforming integrals                            ... done
Calculating the Linear Momentum integrals         ... done
Transforming integrals                            ... done
Calculating angular momentum integrals            ... done
Transforming integrals                            ... done

--------------------------------------------------------------------
               UNRELAXED EXCITED STATE DIPOLE MOMENTS
--------------------------------------------------------------------
               E(eV)     DX(au)      DY(au)      DZ(au)      |D|(D)
IROOT=  0:     0.000   -0.000000    0.000000   -0.728936    1.852808
IROOT=  1:     7.562   -0.000059    0.000084    0.717587    1.823961
IROOT=  2:     9.380   -0.000000    0.000004    0.480342    1.220933
IROOT=  3:     9.855   -0.000000   -0.000008    0.517953    1.316531
IROOT=  4:    10.844   -0.000007   -0.000047   -2.509612    6.378926
IROOT=  5:    11.337    0.000075    0.000010   -1.519276    3.861693
IROOT=  6:    11.506   -0.000009   -0.000654    0.903015    2.295282
IROOT=  7:    11.638    0.000000    0.000002    0.535205    1.360382
IROOT=  8:    11.732   -0.000001    0.000220   -0.068129    0.173171
IROOT=  9:    12.661    0.000000    0.000380   -1.077678    2.739240
IROOT= 10:    13.956    0.000001    0.000053    0.626105    1.591433
--------------------------------------------------------------------

-----------------------------------------------------------------------------
         ABSORPTION SPECTRUM VIA TRANSITION ELECTRIC DIPOLE MOMENTS
-----------------------------------------------------------------------------
State   Energy  Wavelength   fosc         T2         TX        TY        TZ  
        (cm-1)    (nm)                  (au**2)     (au)      (au)      (au) 
-----------------------------------------------------------------------------
   1   60990.7    164.0   0.053725477   0.29000   0.53851   0.00000   0.00000
   2   75651.7    132.2   0.000000000   0.00000   0.00000   0.00000   0.00000
   3   79486.0    125.8   0.099611713   0.41257   0.00000   0.00000   0.64231
   4   87461.7    114.3   0.001493292   0.00562   0.07497   0.00001   0.00000
   5   91436.4    109.4   0.000500140   0.00180   0.00000   0.00000   0.04243
   6   92798.3    107.8   0.000012695   0.00005   0.00671   0.00000   0.00000
   7   93870.4    106.5   0.018808265   0.06596   0.00000   0.25683   0.00000
   8   94628.9    105.7   0.000000000   0.00000   0.00000   0.00000   0.00000
   9  102121.5     97.9   0.000000000   0.00000   0.00002   0.00000   0.00000
  10  112560.5     88.8   0.102098221   0.29861   0.00001   0.54645   0.00005

-------------------------------------------------------------------
                             CD SPECTRUM
-------------------------------------------------------------------
State   Energy Wavelength       R         MX        MY        MZ   
        (cm-1)   (nm)       (1e40*cgs)   (au)      (au)      (au)  
-------------------------------------------------------------------
   1     164.0   60990.7     -0.00056   0.00000  -0.04416  -0.00000
   2     132.2   75651.7     -0.00000   0.00000   0.00000  -0.04239
   3     125.8   79486.0     -0.00000   0.00000  -0.00000  -0.00000
   4     114.3   87461.7      0.00042   0.00000   0.00913  -0.00000
   5     109.4   91436.4      0.00000  -0.00000  -0.00000   0.00000
   6     107.8   92798.3     -0.00160   0.00000  -0.05420  -0.00000
   7     106.5   93870.4      0.00000   0.03817  -0.00000  -0.00000
   8     105.7   94628.9     -0.00000   0.00000  -0.00000  -0.09816
   9      97.9   102121.5     -0.00000  -0.00000  -0.00001   0.05014
  10      88.8   112560.5      0.00205   0.08171   0.00001  -0.00000

TDM done (    2.2 sec)
STEOM-CCSD done in (    2.2)


------------------------------------------------------------------------------- 
                                     TIMINGS                                   
------------------------------------------------------------------------------- 


Total execution time                   ...       19.080 sec

Localization of occupied MO's          ...        0.395 sec (  2.1%)
Fock Matrix Formation                  ...        0.150 sec (  0.8%)
Global overlap, Fock, MKN matrices     ...        0.182 sec (  1.0%)
Differential overlap integrals         ...        0.065 sec (  0.3%)
Organizing maps                        ...        0.002 sec (  0.0%)
RI 3-index integral generations        ...        0.439 sec (  2.3%)
RI-PNO integral transformation         ...        0.590 sec (  3.1%)
Initial Guess                          ...        0.044 sec (  0.2%)
DIIS Solver                            ...        0.013 sec (  0.1%)
State Vector Update                    ...        0.001 sec (  0.0%)
Sigma-vector construction              ...        4.392 sec ( 23.0%)
  <D|H|D>(0-ext)                       ...        0.017 sec (  0.4% of sigma)
  <D|H|D>(2-ext)                       ...        0.071 sec (  1.6% of sigma)
  <D|H|D>(4-ext)                       ...        0.763 sec ( 17.4% of sigma)
  <D|H|D>(4-ext-corr)                  ...        2.419 sec ( 55.1% of sigma)
  CCSD doubles correction              ...        0.004 sec (  0.1% of sigma)
  <S|H|S>                              ...        0.037 sec (  0.8% of sigma)
  <S|H|D>(1-ext)                       ...        0.004 sec (  0.1% of sigma)
  <S|H|D>(3-ext)                       ...        0.022 sec (  0.5% of sigma)
  Fock-dressing                        ...        0.130 sec (  3.0% of sigma)
  Singles amplitudes                   ...        0.007 sec (  0.1% of sigma)
  (ik|jl)-dressing                     ...        0.014 sec (  0.3% of sigma)
  (ij|ab),(ia|jb)-dressing             ...        0.058 sec (  1.3% of sigma)
Total Time for computing EOM-CCSD      ...        9.199 sec ( 48.2% of ALL)
  Dressing integrals                   ...        0.111 sec (  1.2% of (EOM))
  EOM Singles                          ...        0.111 sec (  1.2% of (EOM))
  EOM Doubles                          ...        8.518 sec ( 92.6% of (EOM))
  Build Hamiltonian                    ...        0.033 sec (  0.4% of (EOM))
  Diagonalize Hamiltonian              ...        0.012 sec (  0.1% of (EOM))
  Ritz vectors                         ...        0.091 sec (  1.0% of (EOM))
  Residual vectors                     ...        0.109 sec (  1.2% of (EOM))
One-particle density matrix            ...        0.007 sec (  0.0%)


Maximum memory used throughout the entire MDCI-calculation: 182.9 MB

-------------------------   --------------------
FINAL SINGLE POINT ENERGY       -76.055905683443
-------------------------   --------------------


                            ***************************************
                            *     ORCA property calculations      *
                            ***************************************

                                    ---------------------
                                    Active property flags
                                    ---------------------
   (+) Dipole Moment


------------------------------------------------------------------------------
                       ORCA ELECTRIC PROPERTIES CALCULATION
------------------------------------------------------------------------------

Dipole Moment Calculation                       ... on
Quadrupole Moment Calculation                   ... off
Polarizability Calculation                      ... off
GBWName                                         ... 000003.gbw
Electron density file                           ... 000003.scfp
The origin for moment calculation is the CENTER OF MASS  = ( 0.000000,  0.000000  0.096567)

-------------
DIPOLE MOMENT
-------------
                                X             Y             Z
Electronic contribution:     -0.00000       0.00000       0.19153
Nuclear contribution   :      0.00000       0.00000      -0.96566
                        -----------------------------------------
Total Dipole Moment    :     -0.00000       0.00000      -0.77413
                        -----------------------------------------
Magnitude (a.u.)       :      0.77413
Magnitude (Debye)      :      1.96768



--------------------
Rotational spectrum 
--------------------
 
Rotational constants in cm-1:    27.982241    14.405095     9.509605 
Rotational constants in MHz : 838886.492516 431853.883302 285090.799298 

 Dipole components along the rotational axes: 
x,y,z [a.u.] :     0.000000    -0.774128    -0.000000 
x,y,z [Debye]:     0.000000    -1.967676    -0.000000 

 

                           *** MDCI DENSITY ***

------------------------------------------------------------------------------
                       ORCA ELECTRIC PROPERTIES CALCULATION
------------------------------------------------------------------------------

Dipole Moment Calculation                       ... on
Quadrupole Moment Calculation                   ... off
Polarizability Calculation                      ... off
GBWName                                         ... 000003.gbw
Electron density file                           ... 000003.mdcip
The origin for moment calculation is the CENTER OF MASS  = ( 0.000000,  0.000000  0.096567)

-------------
DIPOLE MOMENT
-------------
                                X             Y             Z
Electronic contribution:     -0.00000       0.00000       0.25055
Nuclear contribution   :      0.00000       0.00000      -0.96566
                        -----------------------------------------
Total Dipole Moment    :     -0.00000       0.00000      -0.71511
                        -----------------------------------------
Magnitude (a.u.)       :      0.71511
Magnitude (Debye)      :      1.81768



--------------------
Rotational spectrum 
--------------------
 
Rotational constants in cm-1:    27.982241    14.405095     9.509605 
Rotational constants in MHz : 838886.492516 431853.883302 285090.799298 

 Dipole components along the rotational axes: 
x,y,z [a.u.] :     0.000000    -0.715114    -0.000000 
x,y,z [Debye]:     0.000000    -1.817676    -0.000000 

 

Timings for individual modules:

Sum of individual times         ...       22.685 sec (=   0.378 min)
GTO integral calculation        ...        1.022 sec (=   0.017 min)   4.5 %
SCF iterations                  ...        2.294 sec (=   0.038 min)  10.1 %
MDCI module                     ...       19.369 sec (=   0.323 min)  85.4 %
                             ****ORCA TERMINATED NORMALLY****
TOTAL RUN TIME: 0 days 0 hours 0 minutes 23 seconds 320 msec
