
                                        *****************
                                        * O   R   C   A *
                                        *****************

                                            #,                                       
                                            ###                                      
                                            ####                                     
                                            #####                                    
                                            ######                                   
                                           ########,                                 
                                     ,,################,,,,,                         
                               ,,#################################,,                 
                          ,,##########################################,,             
                       ,#########################################, ''#####,          
                    ,#############################################,,   '####,        
                  ,##################################################,,,,####,       
                ,###########''''           ''''###############################       
              ,#####''   ,,,,##########,,,,          '''####'''          '####       
            ,##' ,,,,###########################,,,                        '##       
           ' ,,###''''                  '''############,,,                           
         ,,##''                                '''############,,,,        ,,,,,,###''
      ,#''                                            '''#######################'''  
     '                                                          ''''####''''         
             ,#######,   #######,   ,#######,      ##                                
            ,#'     '#,  ##    ##  ,#'     '#,    #''#        ######   ,####,        
            ##       ##  ##   ,#'  ##            #'  '#       #        #'  '#        
            ##       ##  #######   ##           ,######,      #####,   #    #        
            '#,     ,#'  ##    ##  '#,     ,#' ,#      #,         ##   #,  ,#        
             '#######'   ##     ##  '#######'  #'      '#     #####' # '####'        



                  #######################################################
                  #                        -***-                        #
                  #          Department of theory and spectroscopy      #
                  #    Directorship and core code : Frank Neese         #
                  #        Max Planck Institute fuer Kohlenforschung    #
                  #                Kaiser Wilhelm Platz 1               #
                  #                 D-45470 Muelheim/Ruhr               #
                  #                      Germany                        #
                  #                                                     #
                  #                  All rights reserved                #
                  #                        -***-                        #
                  #######################################################


                         Program Version 5.0.0 -  RELEASE  -
                                (SVN: $Rev: 19529$)
                ($Date: 2021-06-28 11:36:33 +0200 (Mo, 28 Jun 2021) $)


 With contributions from (in alphabetic order):
   Daniel Aravena         : Magnetic Suceptibility
   Michael Atanasov       : Ab Initio Ligand Field Theory (pilot matlab implementation)
   Alexander A. Auer      : GIAO ZORA, VPT2 properties, NMR spectrum
   Ute Becker             : Parallelization
   Giovanni Bistoni       : ED, misc. LED, open-shell LED, HFLD
   Martin Brehm           : Molecular dynamics
   Dmytro Bykov           : SCF Hessian
   Vijay G. Chilkuri      : MRCI spin determinant printing, contributions to CSF-ICE
   Dipayan Datta          : RHF DLPNO-CCSD density
   Achintya Kumar Dutta   : EOM-CC, STEOM-CC
   Dmitry Ganyushin       : Spin-Orbit,Spin-Spin,Magnetic field MRCI
   Miquel Garcia          : C-PCM Hessian, Gaussian charge scheme
   Yang Guo               : DLPNO-NEVPT2, F12-NEVPT2, CIM, IAO-localization
   Andreas Hansen         : Spin unrestricted coupled pair/coupled cluster methods
   Benjamin Helmich-Paris : MC-RPA, TRAH-SCF, COSX integrals
   Lee Huntington         : MR-EOM, pCC
   Robert Izsak           : Overlap fitted RIJCOSX, COSX-SCS-MP3, EOM
   Marcus Kettner         : VPT2
   Christian Kollmar      : KDIIS, OOCD, Brueckner-CCSD(T), CCSD density, CASPT2, CASPT2-K
   Simone Kossmann        : Meta GGA functionals, TD-DFT gradient, OOMP2, MP2 Hessian
   Martin Krupicka        : Initial AUTO-CI
   Lucas Lang             : DCDCAS
   Marvin Lechner         : AUTO-CI (C++ implementation), FIC-MRCC
   Dagmar Lenk            : GEPOL surface, SMD
   Dimitrios Liakos       : Extrapolation schemes; Compound Job, initial MDCI parallelization
   Dimitrios Manganas     : Further ROCIS development; embedding schemes
   Dimitrios Pantazis     : SARC Basis sets
   Anastasios Papadopoulos: AUTO-CI, single reference methods and gradients
   Taras Petrenko         : DFT Hessian,TD-DFT gradient, ASA, ECA, R-Raman, ABS, FL, XAS/XES, NRVS
   Peter Pinski           : DLPNO-MP2, DLPNO-MP2 Gradient
   Christoph Reimann      : Effective Core Potentials
   Marius Retegan         : Local ZFS, SOC
   Christoph Riplinger    : Optimizer, TS searches, QM/MM, DLPNO-CCSD(T), (RO)-DLPNO pert. Triples
   Tobias Risthaus        : Range-separated hybrids, TD-DFT gradient, RPA, STAB
   Michael Roemelt        : Original ROCIS implementation
   Masaaki Saitow         : Open-shell DLPNO-CCSD energy and density
   Barbara Sandhoefer     : DKH picture change effects
   Avijit Sen             : IP-ROCIS
   Kantharuban Sivalingam : CASSCF convergence, NEVPT2, FIC-MRCI
   Bernardo de Souza      : ESD, SOC TD-DFT
   Georgi Stoychev        : AutoAux, RI-MP2 NMR
   Willem Van den Heuvel  : Paramagnetic NMR
   Boris Wezisla          : Elementary symmetry handling
   Frank Wennmohs         : Technical directorship


 We gratefully acknowledge several colleagues who have allowed us to
 interface, adapt or use parts of their codes:
   Stefan Grimme, W. Hujo, H. Kruse, P. Pracht,  : VdW corrections, initial TS optimization,
                  C. Bannwarth, S. Ehlert          DFT functionals, gCP, sTDA/sTD-DF
   Ed Valeev, F. Pavosevic, A. Kumar             : LibInt (2-el integral package), F12 methods
   Garnet Chan, S. Sharma, J. Yang, R. Olivares  : DMRG
   Ulf Ekstrom                                   : XCFun DFT Library
   Mihaly Kallay                                 : mrcc  (arbitrary order and MRCC methods)
   Jiri Pittner, Ondrej Demel                    : Mk-CCSD
   Frank Weinhold                                : gennbo (NPA and NBO analysis)
   Christopher J. Cramer and Donald G. Truhlar   : smd solvation model
   Lars Goerigk                                  : TD-DFT with DH, B97 family of functionals
   V. Asgeirsson, H. Jonsson                     : NEB implementation
   FAccTs GmbH                                   : IRC, NEB, NEB-TS, DLPNO-Multilevel, CI-OPT
                                                   MM, QMMM, 2- and 3-layer-ONIOM, Crystal-QMMM,
                                                   LR-CPCM, SF, NACMEs, symmetry and pop. for TD-DFT,
                                                   nearIR, NL-DFT gradient (VV10), updates on ESD,
                                                   ML-optimized integration grids
   S Lehtola, MJT Oliveira, MAL Marques          : LibXC Library
   Liviu Ungur et al                             : ANISO software


 Your calculation uses the libint2 library for the computation of 2-el integrals
 For citations please refer to: http://libint.valeyev.net

 Your ORCA version has been built with support for libXC version: 5.1.0
 For citations please refer to: https://tddft.org/programs/libxc/

 This ORCA versions uses:
   CBLAS   interface :  Fast vector & matrix operations
   LAPACKE interface :  Fast linear algebra routines
   SCALAPACK package :  Parallel linear algebra routines
   Shared memory     :  Shared parallel matrices
   BLAS/LAPACK       :  OpenBLAS 0.3.15  USE64BITINT DYNAMIC_ARCH NO_AFFINITY Haswell SINGLE_THREADED
        Core in use  :  Haswell
   Copyright (c) 2011-2014, The OpenBLAS Project




***************************************
The coordinates will be read from file: 000011.xyz
***************************************


================================================================================

----- Orbital basis set information -----
Your calculation utilizes the basis: aug-cc-pVTZ 
    H, B-Ne : Obtained from the ccRepo (grant-hill.group.shef.ac.uk/ccrepo) Feb. 2017
              R. A. Kendall, T. H. Dunning, Jr., R. J. Harrison, J. Chem. Phys. 96, 6796 (1992)
         He : Obtained from the ccRepo (grant-hill.group.shef.ac.uk/ccrepo) Feb. 2017
              D. E. Woon, T. H. Dunning, Jr., J. Chem. Phys. 100, 2975 (1994)
  Li-Be, Na : Obtained from the ccRepo (grant-hill.group.shef.ac.uk/ccrepo) Feb. 2017
              B. P. Prascher, D. E. Woon, K. A. Peterson, T. H. Dunning, Jr., A. K. Wilson, Theor. Chem. Acc. 128, 69 (2011)
         Mg : Obtained from the Peterson Research Group Website (tyr0.chem.wsu.edu/~kipeters) Feb. 2017
              B. P. Prascher, D. E. Woon, K. A. Peterson, T. H. Dunning, Jr., A. K. Wilson, Theor. Chem. Acc. 128, 69 (2011)
      Al-Ar : Obtained from the ccRepo (grant-hill.group.shef.ac.uk/ccrepo) Feb. 2017
              D. E. Woon, T. H. Dunning, Jr., J. Chem. Phys. 98, 1358 (1993)
      Sc-Zn : Obtained from the ccRepo (grant-hill.group.shef.ac.uk/ccrepo) Feb. 2017
              N. B. Balabanov, K. A. Peterson, J. Chem. Phys. 123, 064107 (2005)
              N. B. Balabanov, K. A. Peterson, J. Chem. Phys. 125, 074110 (2006)
      Ga-Kr : Obtained from the ccRepo (grant-hill.group.shef.ac.uk/ccrepo) Feb. 2017
              A. K. Wilson, D. E. Woon, K. A. Peterson, T. H. Dunning, Jr., J. Chem. Phys. 110, 7667 (1999)
     Ag, Au : Obtained from the Peterson Research Group Website (tyr0.chem.wsu.edu/~kipeters) Feb. 2017
              K. A. Peterson, C. Puzzarini, Theor. Chem. Acc. 114, 283 (2005)

================================================================================
                                        WARNINGS
                       Please study these warnings very carefully!
================================================================================


WARNING: Post HF methods need fully converged wavefunctions
  ===> : Setting SCFConvForced true
         You can overwrite this default with %scf ConvForced false 


WARNING: MDCI localization with Augmented Hessian Foster-Boys
  ===> : Switching off randomization!

INFO   : the flag for use of the SHARK integral package has been found!

================================================================================
                                       INPUT FILE
================================================================================
NAME = 000011.com
|  1> !STEOM-CCSD aug-cc-pVTZ TightSCF PrintMOs
|  2> 
|  3> *xyzfile 0 1 000011.xyz
|  4> 
|  5> %MaxCore 64000
|  6> %scf
|  7>  MaxIter 150
|  8> end
|  9> 
| 10> %pal nprocs 8
| 11> end
| 12> 
| 13> %mdci
| 14>  nroots 10
| 15>  DoRootwise true
| 16> end
| 17> 
| 18>                          ****END OF INPUT****
================================================================================

                       ****************************
                       * Single Point Calculation *
                       ****************************

---------------------------------
CARTESIAN COORDINATES (ANGSTROEM)
---------------------------------
  C     -0.000000    0.000000   -0.524273
  O      0.000000   -0.000000    0.670793
  H      0.000000    0.939221   -1.110351
  H     -0.000000   -0.939221   -1.110351

----------------------------
CARTESIAN COORDINATES (A.U.)
----------------------------
  NO LB      ZA    FRAG     MASS         X           Y           Z
   0 C     6.0000    0    12.011   -0.000000    0.000000   -0.990732
   1 O     8.0000    0    15.999    0.000000   -0.000000    1.267615
   2 H     1.0000    0     1.008    0.000000    1.774870   -2.098259
   3 H     1.0000    0     1.008   -0.000000   -1.774870   -2.098259

--------------------------------
INTERNAL COORDINATES (ANGSTROEM)
--------------------------------
 C      0   0   0     0.000000000000     0.00000000     0.00000000
 O      1   0   0     1.195066000000     0.00000000     0.00000000
 H      1   2   0     1.107078817847   121.96434307     0.00000000
 H      1   2   3     1.107078817847   121.96434307   180.00000000

---------------------------
INTERNAL COORDINATES (A.U.)
---------------------------
 C      0   0   0     0.000000000000     0.00000000     0.00000000
 O      1   0   0     2.258347451961     0.00000000     0.00000000
 H      1   2   0     2.092075774396   121.96434307     0.00000000
 H      1   2   3     2.092075774396   121.96434307   180.00000000

---------------------
BASIS SET INFORMATION
---------------------
There are 3 groups of distinct atoms

 Group   1 Type C   : 19s6p3d2f contracted to 5s4p3d2f pattern {88111/3111/111/11}
 Group   2 Type O   : 19s6p3d2f contracted to 5s4p3d2f pattern {88111/3111/111/11}
 Group   3 Type H   : 6s3p2d contracted to 4s3p2d pattern {3111/111/11}

Atom   0C    basis set group =>   1
Atom   1O    basis set group =>   2
Atom   2H    basis set group =>   3
Atom   3H    basis set group =>   3


           ************************************************************
           *        Program running with 8 parallel MPI-processes     *
           *              working on a common directory               *
           ************************************************************
------------------------------------------------------------------------------
                           ORCA GTO INTEGRAL CALCULATION
------------------------------------------------------------------------------
------------------------------------------------------------------------------
                   ___                                                        
                  /   \      - P O W E R E D   B Y -                         
                 /     \                                                     
                 |  |  |   _    _      __       _____    __    __             
                 |  |  |  | |  | |    /  \     |  _  \  |  |  /  |          
                  \  \/   | |  | |   /    \    | | | |  |  | /  /          
                 / \  \   | |__| |  /  /\  \   | |_| |  |  |/  /          
                |  |  |   |  __  | /  /__\  \  |    /   |      \           
                |  |  |   | |  | | |   __   |  |    \   |  |\   \          
                \     /   | |  | | |  |  |  |  | |\  \  |  | \   \       
                 \___/    |_|  |_| |__|  |__|  |_| \__\ |__|  \__/        
                                                                              
                      - O R C A' S   B I G   F R I E N D -                    
                                      &                                       
                       - I N T E G R A L  F E E D E R -                       
                                                                              
 v1 FN, 2020, v2 2021                                                         
------------------------------------------------------------------------------


Reading SHARK input file 000011.SHARKINP.tmp ... ok
----------------------
SHARK INTEGRAL PACKAGE
----------------------

Number of atoms                             ...      4
Number of basis functions                   ...    138
Number of shells                            ...     46
Maximum angular momentum                    ...      3
Integral batch strategy                     ... SHARK/LIBINT Hybrid
RI-J (if used) integral strategy            ... SPLIT-RIJ (Revised 2003 algorithm where possible)
Printlevel                                  ...      1
Contraction scheme used                     ... SEGMENTED contraction
Coulomb Range Separation                    ... NOT USED
Exchange Range Separation                   ... NOT USED
Finite Nucleus Model                        ... NOT USED
Auxiliary Coulomb fitting basis             ... NOT available
Auxiliary J/K fitting basis                 ... NOT available
Auxiliary Correlation fitting basis         ... NOT available
Auxiliary 'external' fitting basis          ... NOT available
Integral threshold                          ...     2.500000e-11
Primitive cut-off                           ...     2.500000e-12
Primitive pair pre-selection threshold      ...     2.500000e-12

Calculating pre-screening integrals         ... done (  0.7 sec) Dimension = 46
Organizing shell pair data                  ... done (  0.0 sec)
Shell pair information
Total number of shell pairs                 ...      1081
Shell pairs after pre-screening             ...      1081
Total number of primitive shell pairs       ...      3527
Primitive shell pairs kept                  ...      3241
          la=0 lb=0:    171 shell pairs
          la=1 lb=0:    252 shell pairs
          la=1 lb=1:    105 shell pairs
          la=2 lb=0:    180 shell pairs
          la=2 lb=1:    140 shell pairs
          la=2 lb=2:     55 shell pairs
          la=3 lb=0:     72 shell pairs
          la=3 lb=1:     56 shell pairs
          la=3 lb=2:     40 shell pairs
          la=3 lb=3:     10 shell pairs

Calculating one electron integrals          ... done (  0.0 sec)
Calculating Nuclear repulsion               ... done (  0.0 sec) ENN=     31.476932127348 Eh

SHARK setup successfully completed in   0.8 seconds

Maximum memory used throughout the entire GTOINT-calculation: 15.9 MB


           ************************************************************
           *        Program running with 8 parallel MPI-processes     *
           *              working on a common directory               *
           ************************************************************
-------------------------------------------------------------------------------
                                 ORCA SCF
-------------------------------------------------------------------------------

------------
SCF SETTINGS
------------
Hamiltonian:
 Ab initio Hamiltonian  Method          .... Hartree-Fock(GTOs)


General Settings:
 Integral files         IntName         .... 000011
 Hartree-Fock type      HFTyp           .... RHF
 Total Charge           Charge          ....    0
 Multiplicity           Mult            ....    1
 Number of Electrons    NEL             ....   16
 Basis Dimension        Dim             ....  138
 Nuclear Repulsion      ENuc            ....     31.4769321273 Eh

Convergence Acceleration:
 DIIS                   CNVDIIS         .... on
   Start iteration      DIISMaxIt       ....    12
   Startup error        DIISStart       ....  0.200000
   # of expansion vecs  DIISMaxEq       ....     5
   Bias factor          DIISBfac        ....   1.050
   Max. coefficient     DIISMaxC        ....  10.000
 Trust-Rad. Augm. Hess. CNVTRAH         .... auto
   Auto Start mean grad. ratio tolernc. ....  1.125000
   Auto Start start iteration           ....    20
   Auto Start num. interpolation iter.  ....    10
   Max. Number of Micro iterations      ....    16
   Max. Number of Macro iterations      .... Maxiter - #DIIS iter
   Number of Davidson start vectors     ....     2
   Converg. threshold I  (grad. norm)   ....   1.000e-05
   Converg. threshold II (energy diff.) ....   1.000e-08
   Grad. Scal. Fac. for Micro threshold ....   0.100
   Minimum threshold for Micro iter.    ....   0.010
   NR start threshold (gradient norm)   ....   0.001
   Initial trust radius                 ....   0.400
   Minimum AH scaling param. (alpha)    ....   1.000
   Maximum AH scaling param. (alpha)    .... 1000.000
   Orbital update algorithm             .... Taylor
   White noise on init. David. guess    .... on
   Maximum white noise                  ....   0.010
   Quad. conv. algorithm                .... NR
 SOSCF                  CNVSOSCF        .... on
   Start iteration      SOSCFMaxIt      ....   150
   Startup grad/error   SOSCFStart      ....  0.003300
 Level Shifting         CNVShift        .... on
   Level shift para.    LevelShift      ....    0.2500
   Turn off err/grad.   ShiftErr        ....    0.0010
 Zerner damping         CNVZerner       .... off
 Static damping         CNVDamp         .... on
   Fraction old density DampFac         ....    0.7000
   Max. Damping (<1)    DampMax         ....    0.9800
   Min. Damping (>=0)   DampMin         ....    0.0000
   Turn off err/grad.   DampErr         ....    0.1000
 Fernandez-Rico         CNVRico         .... off

SCF Procedure:
 Maximum # iterations   MaxIter         ....   150
 SCF integral mode      SCFMode         .... Direct
   Integral package                     .... SHARK and LIBINT hybrid scheme
 Reset frequency        DirectResetFreq ....    20
 Integral Threshold     Thresh          ....  2.500e-11 Eh
 Primitive CutOff       TCut            ....  2.500e-12 Eh

Convergence Tolerance:
 Convergence Check Mode ConvCheckMode   .... Total+1el-Energy
 Convergence forced     ConvForced      .... 1
 Energy Change          TolE            ....  1.000e-08 Eh
 1-El. energy change                    ....  1.000e-05 Eh
 Orbital Gradient       TolG            ....  1.000e-05
 Orbital Rotation angle TolX            ....  1.000e-05
 DIIS Error             TolErr          ....  5.000e-07


Diagonalization of the overlap matrix:
Smallest eigenvalue                        ... 8.520e-05
Time for diagonalization                   ...    0.009 sec
Threshold for overlap eigenvalues          ... 1.000e-08
Number of eigenvalues below threshold      ... 0
Time for construction of square roots      ...    0.006 sec
Total time needed                          ...    0.016 sec

Time for model grid setup =    0.056 sec

------------------------------
INITIAL GUESS: MODEL POTENTIAL
------------------------------
Loading Hartree-Fock densities                     ... done
Calculating cut-offs                               ... done
Initializing the effective Hamiltonian             ... done
Setting up the integral package (SHARK)            ... done
Starting the Coulomb interaction                   ... done (   0.2 sec)
Reading the grid                                   ... done
Mapping shells                                     ... done
Starting the XC term evaluation                    ... done (   0.0 sec)
Transforming the Hamiltonian                       ... done (   0.0 sec)
Diagonalizing the Hamiltonian                      ... done (   0.0 sec)
Back transforming the eigenvectors                 ... done (   0.0 sec)
Now organizing SCF variables                       ... done
                      ------------------
                      INITIAL GUESS DONE (   0.3 sec)
                      ------------------
--------------
SCF ITERATIONS
--------------
ITER       Energy         Delta-E        Max-DP      RMS-DP      [F,P]     Damp
               ***  Starting incremental Fock matrix formation  ***
  0   -113.8251317151   0.000000000000 0.02728396  0.00075522  0.3215460 0.7000
  1   -113.8580503610  -0.032918645928 0.01964219  0.00054297  0.1960948 0.7000
                               ***Turning on DIIS***
  2   -113.8763179877  -0.018267626708 0.01403844  0.00035915  0.1126590 0.7000
  3   -114.0726545659  -0.196336578230 0.03424826  0.00087016  0.0825567 0.0000
  4   -113.9167485487   0.155906017275 0.00446533  0.00013176  0.0074261 0.0000
  5   -113.9171518503  -0.000403301594 0.00151069  0.00004991  0.0037603 0.0000
                      *** Initiating the SOSCF procedure ***
                           *** Shutting down DIIS ***
                      *** Re-Reading the Fockian *** 
                      *** Removing any level shift *** 
ITER      Energy       Delta-E        Grad      Rot      Max-DP    RMS-DP
  6   -113.91487633   0.0022755212  0.000983  0.000983  0.001056  0.000025
               *** Restarting incremental Fock matrix formation ***
  7   -113.91451251   0.0003638161  0.000346  0.000513  0.000372  0.000012
  8   -113.91451534  -0.0000028226  0.000271  0.000955  0.000685  0.000015
  9   -113.91451656  -0.0000012253  0.000121  0.000114  0.000135  0.000003
 10   -113.91451667  -0.0000001129  0.000030  0.000029  0.000033  0.000001
 11   -113.91451669  -0.0000000127  0.000004  0.000009  0.000007  0.000000
                 **** Energy Check signals convergence ****
              ***Rediagonalizing the Fockian in SOSCF/NRSCF***

               *****************************************************
               *                     SUCCESS                       *
               *           SCF CONVERGED AFTER  12 CYCLES          *
               *****************************************************


----------------
TOTAL SCF ENERGY
----------------

Total Energy       :         -113.91451669 Eh           -3099.77159 eV

Components:
Nuclear Repulsion  :           31.47693213 Eh             856.53087 eV
Electronic Energy  :         -145.39144881 Eh           -3956.30246 eV
One Electron Energy:         -217.70764120 Eh           -5924.12609 eV
Two Electron Energy:           72.31619239 Eh            1967.82364 eV

Virial components:
Potential Energy   :         -227.64993222 Eh           -6194.66959 eV
Kinetic Energy     :          113.73541553 Eh            3094.89800 eV
Virial Ratio       :            2.00157472


---------------
SCF CONVERGENCE
---------------

  Last Energy change         ...   -4.2235e-10  Tolerance :   1.0000e-08
  Last MAX-Density change    ...    3.4726e-06  Tolerance :   1.0000e-07
  Last RMS-Density change    ...    1.0578e-07  Tolerance :   5.0000e-09
  Last Orbital Gradient      ...    2.0806e-06  Tolerance :   1.0000e-05
  Last Orbital Rotation      ...    2.5311e-06  Tolerance :   1.0000e-05

             **** THE GBW FILE WAS UPDATED (000011.gbw) ****
             **** DENSITY 000011.scfp WAS UPDATED ****
             **** ENERGY FILE WAS UPDATED (000011.en.tmp) ****
             **** THE GBW FILE WAS UPDATED (000011.gbw) ****
             **** DENSITY 000011.scfp WAS UPDATED ****
----------------
ORBITAL ENERGIES
----------------

  NO   OCC          E(Eh)            E(eV) 
   0   2.0000     -20.578580      -559.9716 
   1   2.0000     -11.341460      -308.6168 
   2   2.0000      -1.414196       -38.4822 
   3   2.0000      -0.867911       -23.6171 
   4   2.0000      -0.695885       -18.9360 
   5   2.0000      -0.655599       -17.8398 
   6   2.0000      -0.542266       -14.7558 
   7   2.0000      -0.441728       -12.0200 
   8   0.0000       0.026451         0.7198 
   9   0.0000       0.041885         1.1398 
  10   0.0000       0.063020         1.7149 
  11   0.0000       0.076401         2.0790 
  12   0.0000       0.131369         3.5747 
  13   0.0000       0.133152         3.6232 
  14   0.0000       0.133238         3.6256 
  15   0.0000       0.174149         4.7388 
  16   0.0000       0.198790         5.4094 
  17   0.0000       0.211306         5.7499 
  18   0.0000       0.217019         5.9054 
  19   0.0000       0.254497         6.9252 
  20   0.0000       0.256335         6.9752 
  21   0.0000       0.281001         7.6464 
  22   0.0000       0.321029         8.7356 
  23   0.0000       0.338086         9.1998 
  24   0.0000       0.339114         9.2278 
  25   0.0000       0.359136         9.7726 
  26   0.0000       0.387566        10.5462 
  27   0.0000       0.389325        10.5941 
  28   0.0000       0.396269        10.7830 
  29   0.0000       0.419985        11.4284 
  30   0.0000       0.483065        13.1449 
  31   0.0000       0.499427        13.5901 
  32   0.0000       0.560567        15.2538 
  33   0.0000       0.568531        15.4705 
  34   0.0000       0.668815        18.1994 
  35   0.0000       0.676191        18.4001 
  36   0.0000       0.727991        19.8096 
  37   0.0000       0.763181        20.7672 
  38   0.0000       0.819251        22.2930 
  39   0.0000       0.833495        22.6806 
  40   0.0000       0.841348        22.8942 
  41   0.0000       0.857476        23.3331 
  42   0.0000       0.877472        23.8772 
  43   0.0000       0.882309        24.0089 
  44   0.0000       0.927023        25.2256 
  45   0.0000       0.934610        25.4320 
  46   0.0000       0.938952        25.5502 
  47   0.0000       0.980435        26.6790 
  48   0.0000       1.002518        27.2799 
  49   0.0000       1.020510        27.7695 
  50   0.0000       1.023309        27.8456 
  51   0.0000       1.041273        28.3345 
  52   0.0000       1.068266        29.0690 
  53   0.0000       1.082949        29.4685 
  54   0.0000       1.097702        29.8700 
  55   0.0000       1.102609        30.0035 
  56   0.0000       1.256890        34.2017 
  57   0.0000       1.271670        34.6039 
  58   0.0000       1.302924        35.4544 
  59   0.0000       1.372535        37.3486 
  60   0.0000       1.387767        37.7631 
  61   0.0000       1.459668        39.7196 
  62   0.0000       1.475020        40.1373 
  63   0.0000       1.512834        41.1663 
  64   0.0000       1.570828        42.7444 
  65   0.0000       1.600348        43.5477 
  66   0.0000       1.626589        44.2617 
  67   0.0000       1.706598        46.4389 
  68   0.0000       1.731430        47.1146 
  69   0.0000       1.840769        50.0899 
  70   0.0000       1.961914        53.3864 
  71   0.0000       2.004356        54.5413 
  72   0.0000       2.028673        55.2030 
  73   0.0000       2.084388        56.7191 
  74   0.0000       2.184180        59.4346 
  75   0.0000       2.289996        62.3140 
  76   0.0000       2.325533        63.2810 
  77   0.0000       2.343825        63.7787 
  78   0.0000       2.344964        63.8097 
  79   0.0000       2.492513        67.8247 
  80   0.0000       2.499397        68.0121 
  81   0.0000       2.562591        69.7317 
  82   0.0000       2.614818        71.1528 
  83   0.0000       2.718447        73.9727 
  84   0.0000       2.788268        75.8726 
  85   0.0000       2.811402        76.5021 
  86   0.0000       2.923618        79.5557 
  87   0.0000       2.935871        79.8891 
  88   0.0000       3.063338        83.3577 
  89   0.0000       3.069767        83.5326 
  90   0.0000       3.146242        85.6136 
  91   0.0000       3.188714        86.7693 
  92   0.0000       3.412201        92.8507 
  93   0.0000       3.451320        93.9152 
  94   0.0000       3.528116        96.0049 
  95   0.0000       3.565020        97.0091 
  96   0.0000       3.635128        98.9169 
  97   0.0000       3.659896        99.5908 
  98   0.0000       3.697293       100.6085 
  99   0.0000       3.894320       105.9698 
 100   0.0000       3.943832       107.3171 
 101   0.0000       4.065311       110.6227 
 102   0.0000       4.122864       112.1888 
 103   0.0000       4.163351       113.2905 
 104   0.0000       4.171871       113.5224 
 105   0.0000       4.222754       114.9070 
 106   0.0000       4.256402       115.8226 
 107   0.0000       4.363206       118.7289 
 108   0.0000       4.592796       124.9763 
 109   0.0000       4.644813       126.3918 
 110   0.0000       4.683581       127.4467 
 111   0.0000       4.776979       129.9882 
 112   0.0000       5.029047       136.8473 
 113   0.0000       5.060525       137.7039 
 114   0.0000       5.108015       138.9962 
 115   0.0000       5.179473       140.9406 
 116   0.0000       5.238184       142.5382 
 117   0.0000       5.278225       143.6278 
 118   0.0000       5.315951       144.6544 
 119   0.0000       5.372593       146.1957 
 120   0.0000       5.869502       159.7173 
 121   0.0000       6.138657       167.0414 
 122   0.0000       6.237097       169.7200 
 123   0.0000       6.503161       176.9600 
 124   0.0000       6.598634       179.5580 
 125   0.0000       6.620342       180.1487 
 126   0.0000       6.920830       188.3254 
 127   0.0000       6.958373       189.3469 
 128   0.0000       7.105843       193.3598 
 129   0.0000       7.193608       195.7480 
 130   0.0000       7.208465       196.1523 
 131   0.0000       7.425152       202.0487 
 132   0.0000       7.525490       204.7790 
 133   0.0000       7.693682       209.3557 
 134   0.0000       7.735618       210.4969 
 135   0.0000       7.780278       211.7121 
 136   0.0000      15.201092       413.6427 
 137   0.0000      16.333791       444.4651 
------------------
MOLECULAR ORBITALS
------------------
                      0         1         2         3         4         5   
                 -20.57858 -11.34146  -1.41420  -0.86791  -0.69588  -0.65560
                   2.00000   2.00000   2.00000   2.00000   2.00000   2.00000
                  --------  --------  --------  --------  --------  --------
  0C   1s        -0.000413  0.979025 -0.013671  0.004856 -0.000000  0.001122
  0C   2s        -0.000964  0.002377  0.249440 -0.399764  0.000000 -0.048786
  0C   3s        -0.000114  0.041577  0.052538 -0.087237  0.000000 -0.013232
  0C   4s        -0.000835  0.009739  0.128358 -0.307751 -0.000000  0.091473
  0C   5s        -0.000173  0.002581  0.008185 -0.014319  0.000000 -0.003200
  0C   1pz       -0.000251  0.000253  0.102763  0.096987  0.000000 -0.206117
  0C   1px        0.000000  0.000000 -0.000000  0.000000 -0.000000  0.000000
  0C   1py       -0.000000  0.000000  0.000000  0.000000  0.219053  0.000000
  0C   2pz       -0.002922  0.001698  0.072317  0.122095  0.000000 -0.228476
  0C   2px        0.000000 -0.000000 -0.000000 -0.000000 -0.000000  0.000000
  0C   2py        0.000000 -0.000000 -0.000000 -0.000000  0.295330 -0.000000
  0C   3pz       -0.000140 -0.001697 -0.024663  0.070245  0.000000 -0.083574
  0C   3px       -0.000000 -0.000000  0.000000 -0.000000  0.000000  0.000000
  0C   3py        0.000000  0.000000 -0.000000  0.000000  0.122992 -0.000000
  0C   4pz       -0.000066 -0.000137 -0.001890  0.000653 -0.000000 -0.001620
  0C   4px       -0.000000 -0.000000  0.000000  0.000000  0.000000  0.000000
  0C   4py        0.000000  0.000000 -0.000000  0.000000 -0.008419  0.000000
  0C   1dz2      -0.000432  0.000860  0.019368  0.001604  0.000000 -0.016965
  0C   1dxz       0.000000  0.000000 -0.000000  0.000000 -0.000000 -0.000000
  0C   1dyz       0.000000  0.000000  0.000000  0.000000 -0.002046  0.000000
  0C   1dx2y2    -0.000058 -0.000618 -0.002267  0.011264 -0.000000 -0.005322
  0C   1dxy       0.000000  0.000000  0.000000  0.000000 -0.000000 -0.000000
  0C   2dz2      -0.001355  0.000146  0.008981  0.002608  0.000000 -0.013582
  0C   2dxz       0.000000 -0.000000 -0.000000  0.000000  0.000000  0.000000
  0C   2dyz       0.000000  0.000000  0.000000  0.000000 -0.037926  0.000000
  0C   2dx2y2    -0.000421  0.000260 -0.015035  0.026871  0.000000 -0.006430
  0C   2dxy       0.000000  0.000000 -0.000000 -0.000000 -0.000000  0.000000
  0C   3dz2       0.001088 -0.001077 -0.017550 -0.005281  0.000000 -0.008678
  0C   3dxz       0.000000 -0.000000 -0.000000  0.000000  0.000000 -0.000000
  0C   3dyz      -0.000000 -0.000000  0.000000 -0.000000 -0.042387 -0.000000
  0C   3dx2y2     0.000548 -0.000934 -0.008422  0.002633  0.000000 -0.009395
  0C   3dxy      -0.000000  0.000000 -0.000000  0.000000  0.000000 -0.000000
  0C   1f0        0.000007  0.000922  0.008513 -0.004219 -0.000000 -0.007083
  0C   1f+1       0.000000 -0.000000 -0.000000  0.000000 -0.000000 -0.000000
  0C   1f-1       0.000000 -0.000000 -0.000000 -0.000000  0.007682  0.000000
  0C   1f+2       0.000100  0.000606  0.004736 -0.004516 -0.000000 -0.001258
  0C   1f-2       0.000000 -0.000000  0.000000 -0.000000  0.000000 -0.000000
  0C   1f+3       0.000000  0.000000  0.000000 -0.000000 -0.000000  0.000000
  0C   1f-3      -0.000000 -0.000000  0.000000 -0.000000  0.001338  0.000000
  0C   2f0       -0.000683 -0.001195 -0.001377 -0.005493 -0.000000  0.010482
  0C   2f+1       0.000000 -0.000000  0.000000  0.000000 -0.000000  0.000000
  0C   2f-1       0.000000  0.000000 -0.000000  0.000000  0.007379 -0.000000
  0C   2f+2      -0.000147 -0.000765  0.002623 -0.008586 -0.000000  0.006493
  0C   2f-2      -0.000000  0.000000  0.000000  0.000000  0.000000 -0.000000
  0C   2f+3      -0.000000  0.000000  0.000000 -0.000000  0.000000  0.000000
  0C   2f-3       0.000000  0.000000 -0.000000  0.000000  0.000854 -0.000000
  1O   1s        -0.974991 -0.000113 -0.009214  0.001673  0.000000  0.003844
  1O   2s         0.002273  0.000643  0.467971  0.221488 -0.000000  0.176572
  1O   3s        -0.043617  0.000269  0.121193  0.061653 -0.000000  0.052232
  1O   4s        -0.001803 -0.001039  0.250779  0.214243  0.000000  0.238481
  1O   5s        -0.000063 -0.000750  0.022569  0.017529 -0.000000  0.072190
  1O   1pz        0.001927 -0.000438 -0.078222  0.086551 -0.000000  0.287652
  1O   1px       -0.000000 -0.000000  0.000000 -0.000000 -0.000000 -0.000000
  1O   1py        0.000000  0.000000 -0.000000 -0.000000  0.194333  0.000000
  1O   2pz       -0.002172  0.000416 -0.103782  0.101328 -0.000000  0.351718
  1O   2px       -0.000000  0.000000  0.000000 -0.000000 -0.000000 -0.000000
  1O   2py       -0.000000 -0.000000 -0.000000 -0.000000  0.245073  0.000000
  1O   3pz       -0.000418  0.002163 -0.015203  0.043131 -0.000000  0.197378
  1O   3px       -0.000000  0.000000  0.000000 -0.000000 -0.000000 -0.000000
  1O   3py       -0.000000 -0.000000  0.000000 -0.000000  0.167831  0.000000
  1O   4pz       -0.000025  0.000219  0.000623  0.001435  0.000000  0.002275
  1O   4px       -0.000000  0.000000  0.000000 -0.000000 -0.000000 -0.000000
  1O   4py       -0.000000  0.000000  0.000000 -0.000000  0.022702 -0.000000
  1O   1dz2      -0.000204  0.000047  0.007986 -0.003061  0.000000 -0.011916
  1O   1dxz      -0.000000  0.000000  0.000000  0.000000  0.000000  0.000000
  1O   1dyz      -0.000000 -0.000000  0.000000  0.000000 -0.007746 -0.000000
  1O   1dx2y2     0.000124  0.000018 -0.000283 -0.000282 -0.000000 -0.000399
  1O   1dxy      -0.000000  0.000000  0.000000 -0.000000  0.000000 -0.000000
  1O   2dz2       0.000748 -0.000732  0.021168 -0.003933 -0.000000 -0.027347
  1O   2dxz       0.000000 -0.000000 -0.000000  0.000000  0.000000  0.000000
  1O   2dyz       0.000000 -0.000000 -0.000000  0.000000 -0.020197 -0.000000
  1O   2dx2y2     0.000166  0.000003  0.000199 -0.001086  0.000000 -0.001752
  1O   2dxy       0.000000 -0.000000  0.000000 -0.000000  0.000000 -0.000000
  1O   3dz2       0.000075 -0.000735 -0.006137 -0.000061 -0.000000 -0.008809
  1O   3dxz       0.000000 -0.000000 -0.000000  0.000000  0.000000  0.000000
  1O   3dyz       0.000000  0.000000 -0.000000  0.000000 -0.011485 -0.000000
  1O   3dx2y2    -0.000005  0.000330  0.000389 -0.000953  0.000000 -0.001453
  1O   3dxy       0.000000 -0.000000  0.000000 -0.000000 -0.000000  0.000000
  1O   1f0       -0.000032 -0.000097 -0.004161  0.000891 -0.000000  0.004407
  1O   1f+1       0.000000 -0.000000  0.000000 -0.000000  0.000000 -0.000000
  1O   1f-1       0.000000  0.000000 -0.000000  0.000000  0.004685  0.000000
  1O   1f+2       0.000028  0.000024 -0.000218  0.000202 -0.000000  0.001102
  1O   1f-2      -0.000000 -0.000000  0.000000 -0.000000 -0.000000  0.000000
  1O   1f+3      -0.000000  0.000000 -0.000000 -0.000000  0.000000 -0.000000
  1O   1f-3      -0.000000  0.000000 -0.000000  0.000000 -0.000776 -0.000000
  1O   2f0       -0.000191  0.000452 -0.003173 -0.000689  0.000000  0.006012
  1O   2f+1      -0.000000  0.000000  0.000000 -0.000000 -0.000000 -0.000000
  1O   2f-1      -0.000000 -0.000000  0.000000 -0.000000  0.002637  0.000000
  1O   2f+2      -0.000039 -0.000001 -0.001055  0.000506 -0.000000  0.000660
  1O   2f-2      -0.000000  0.000000 -0.000000  0.000000  0.000000 -0.000000
  1O   2f+3       0.000000 -0.000000 -0.000000  0.000000  0.000000 -0.000000
  1O   2f-3      -0.000000 -0.000000  0.000000 -0.000000 -0.001293  0.000000
  2H   1s        -0.000027  0.000235  0.014621 -0.104854  0.106285  0.058031
  2H   2s        -0.000536  0.000848 -0.019569 -0.107615  0.113039  0.080530
  2H   3s         0.000651 -0.004916 -0.051489  0.027370 -0.029410 -0.005979
  2H   4s         0.000008 -0.000352 -0.002063  0.001773  0.005535  0.000298
  2H   1pz       -0.000039 -0.000190  0.000798 -0.004453  0.007416  0.001545
  2H   1px       -0.000000  0.000000  0.000000 -0.000000 -0.000000  0.000000
  2H   1py        0.000049  0.000247  0.000103  0.009678 -0.007309 -0.006759
  2H   2pz       -0.000280 -0.000026 -0.009661  0.002441  0.004157  0.000796
  2H   2px       -0.000000 -0.000000 -0.000000  0.000000  0.000000 -0.000000
  2H   2py        0.000352  0.000320  0.013004  0.004182  0.012452 -0.011302
  2H   3pz        0.000636 -0.001237 -0.017996  0.004986  0.002767 -0.008496
  2H   3px        0.000000 -0.000000 -0.000000  0.000000 -0.000000 -0.000000
  2H   3py        0.000369  0.000608  0.007473 -0.017076  0.016332  0.002090
  2H   1dz2       0.000036  0.000058  0.000823  0.000633  0.001644 -0.001825
  2H   1dxz      -0.000000 -0.000000 -0.000000  0.000000  0.000000 -0.000000
  2H   1dyz       0.000032  0.000291  0.000990  0.001376 -0.003047 -0.001241
  2H   1dx2y2     0.000021  0.000176  0.000955  0.001714 -0.000392 -0.001774
  2H   1dxy      -0.000000  0.000000  0.000000 -0.000000 -0.000000  0.000000
  2H   2dz2      -0.000093 -0.000223 -0.002644  0.000532  0.001974  0.003410
  2H   2dxz       0.000000 -0.000000  0.000000  0.000000 -0.000000 -0.000000
  2H   2dyz      -0.000064 -0.000078  0.003804 -0.001685  0.003124  0.001042
  2H   2dx2y2     0.000122  0.000216  0.002363 -0.001005  0.003446 -0.002476
  2H   2dxy      -0.000000  0.000000  0.000000 -0.000000 -0.000000  0.000000
  3H   1s        -0.000027  0.000235  0.014621 -0.104854 -0.106285  0.058031
  3H   2s        -0.000536  0.000848 -0.019569 -0.107615 -0.113039  0.080530
  3H   3s         0.000651 -0.004916 -0.051489  0.027370  0.029410 -0.005979
  3H   4s         0.000008 -0.000352 -0.002063  0.001773 -0.005535  0.000298
  3H   1pz       -0.000039 -0.000190  0.000798 -0.004453 -0.007416  0.001545
  3H   1px       -0.000000  0.000000  0.000000  0.000000 -0.000000  0.000000
  3H   1py       -0.000049 -0.000247 -0.000103 -0.009678 -0.007309  0.006759
  3H   2pz       -0.000280 -0.000026 -0.009661  0.002441 -0.004157  0.000796
  3H   2px        0.000000 -0.000000 -0.000000 -0.000000  0.000000 -0.000000
  3H   2py       -0.000352 -0.000320 -0.013004 -0.004182  0.012452  0.011302
  3H   3pz        0.000636 -0.001237 -0.017996  0.004986 -0.002767 -0.008496
  3H   3px        0.000000 -0.000000 -0.000000  0.000000  0.000000 -0.000000
  3H   3py       -0.000369 -0.000608 -0.007473  0.017076  0.016332 -0.002090
  3H   1dz2       0.000036  0.000058  0.000823  0.000633 -0.001644 -0.001825
  3H   1dxz       0.000000  0.000000 -0.000000 -0.000000 -0.000000  0.000000
  3H   1dyz      -0.000032 -0.000291 -0.000990 -0.001376 -0.003047  0.001241
  3H   1dx2y2     0.000021  0.000176  0.000955  0.001714  0.000392 -0.001774
  3H   1dxy      -0.000000 -0.000000 -0.000000 -0.000000  0.000000  0.000000
  3H   2dz2      -0.000093 -0.000223 -0.002644  0.000532 -0.001974  0.003410
  3H   2dxz       0.000000  0.000000 -0.000000  0.000000  0.000000 -0.000000
  3H   2dyz       0.000064  0.000078 -0.003804  0.001685  0.003124 -0.001042
  3H   2dx2y2     0.000122  0.000216  0.002363 -0.001005 -0.003446 -0.002476
  3H   2dxy       0.000000 -0.000000 -0.000000  0.000000  0.000000 -0.000000
                      6         7         8         9        10        11   
                  -0.54227  -0.44173   0.02645   0.04189   0.06302   0.07640
                   2.00000   2.00000   0.00000   0.00000   0.00000   0.00000
                  --------  --------  --------  --------  --------  --------
  0C   1s         0.000000  0.000000 -0.003295  0.000000 -0.000000 -0.003759
  0C   2s        -0.000000  0.000000 -0.064100 -0.000000  0.000000 -0.032006
  0C   3s        -0.000000 -0.000000  0.003425 -0.000000  0.000000 -0.001133
  0C   4s         0.000000  0.000000 -2.783484  0.000000 -0.000000  0.311851
  0C   5s         0.000000 -0.000000 -4.374684  0.000000 -0.000000 -0.835244
  0C   1pz       -0.000000 -0.000000  0.029179  0.000000  0.000000  0.008666
  0C   1px        0.177180  0.000000 -0.000000 -0.000000  0.063382  0.000000
  0C   1py        0.000000 -0.105585  0.000000  0.029644  0.000000 -0.000000
  0C   2pz       -0.000000 -0.000000  0.045268 -0.000000  0.000000 -0.138981
  0C   2px        0.233434  0.000000  0.000000 -0.000000  0.115332  0.000000
  0C   2py        0.000000 -0.153953 -0.000000  0.113529 -0.000000  0.000000
  0C   3pz       -0.000000 -0.000000  0.304122 -0.000000  0.000000 -1.728025
  0C   3px        0.118490  0.000000  0.000000 -0.000000  0.311638 -0.000000
  0C   3py       -0.000000 -0.238296 -0.000000  1.474250 -0.000000  0.000000
  0C   4pz       -0.000000  0.000000  0.125620 -0.000000  0.000000 -2.087858
  0C   4px        0.001287  0.000000  0.000000 -0.000000  1.448260 -0.000000
  0C   4py       -0.000000 -0.024137 -0.000000  2.556053  0.000000  0.000000
  0C   1dz2      -0.000000 -0.000000  0.001324 -0.000000  0.000000  0.002007
  0C   1dxz       0.022006  0.000000  0.000000 -0.000000 -0.009172  0.000000
  0C   1dyz      -0.000000  0.035216  0.000000 -0.002761 -0.000000 -0.000000
  0C   1dx2y2     0.000000  0.000000  0.000246  0.000000 -0.000000 -0.001496
  0C   1dxy      -0.000000 -0.000000  0.000000  0.000000  0.000000 -0.000000
  0C   2dz2       0.000000 -0.000000 -0.054608  0.000000 -0.000000 -0.106339
  0C   2dxz       0.035938 -0.000000  0.000000  0.000000 -0.048612  0.000000
  0C   2dyz       0.000000  0.078495  0.000000  0.002620  0.000000 -0.000000
  0C   2dx2y2    -0.000000 -0.000000  0.095038 -0.000000  0.000000 -0.055939
  0C   2dxy       0.000000  0.000000 -0.000000 -0.000000 -0.000000  0.000000
  0C   3dz2       0.000000 -0.000000 -0.143240 -0.000000 -0.000000 -0.654147
  0C   3dxz      -0.002016 -0.000000  0.000000  0.000000 -0.002985  0.000000
  0C   3dyz       0.000000  0.057905  0.000000 -0.049099  0.000000 -0.000000
  0C   3dx2y2    -0.000000 -0.000000  0.168057 -0.000000  0.000000 -0.369049
  0C   3dxy       0.000000 -0.000000 -0.000000  0.000000 -0.000000 -0.000000
  0C   1f0        0.000000 -0.000000 -0.005509  0.000000 -0.000000 -0.003194
  0C   1f+1       0.007945 -0.000000  0.000000 -0.000000 -0.004464  0.000000
  0C   1f-1      -0.000000  0.007229 -0.000000  0.001593 -0.000000  0.000000
  0C   1f+2       0.000000  0.000000 -0.004916  0.000000 -0.000000  0.002515
  0C   1f-2      -0.000000  0.000000  0.000000  0.000000  0.000000 -0.000000
  0C   1f+3      -0.000089  0.000000 -0.000000  0.000000 -0.001990  0.000000
  0C   1f-3      -0.000000 -0.002325 -0.000000 -0.000653 -0.000000 -0.000000
  0C   2f0        0.000000  0.000000 -0.046967  0.000000 -0.000000 -0.023629
  0C   2f+1       0.006077 -0.000000  0.000000  0.000000 -0.012405 -0.000000
  0C   2f-1      -0.000000  0.008854 -0.000000  0.034927 -0.000000  0.000000
  0C   2f+2       0.000000  0.000000 -0.052183  0.000000 -0.000000  0.029299
  0C   2f-2      -0.000000 -0.000000 -0.000000  0.000000  0.000000  0.000000
  0C   2f+3      -0.003077  0.000000  0.000000 -0.000000  0.019450 -0.000000
  0C   2f-3      -0.000000 -0.005925 -0.000000  0.022359  0.000000  0.000000
  1O   1s        -0.000000 -0.000000 -0.000297 -0.000000  0.000000 -0.002343
  1O   2s         0.000000 -0.000000 -0.008359 -0.000000 -0.000000  0.049625
  1O   3s         0.000000 -0.000000 -0.003376 -0.000000 -0.000000  0.012473
  1O   4s        -0.000000  0.000000  0.325899 -0.000000  0.000000  0.870189
  1O   5s        -0.000000  0.000000  1.439602  0.000000  0.000000  3.910541
  1O   1pz        0.000000  0.000000 -0.012721 -0.000000 -0.000000  0.006674
  1O   1px        0.274028 -0.000000  0.000000  0.000000 -0.105461 -0.000000
  1O   1py       -0.000000  0.303331  0.000000 -0.003600 -0.000000 -0.000000
  1O   2pz        0.000000 -0.000000 -0.029942  0.000000 -0.000000 -0.030899
  1O   2px        0.355261 -0.000000  0.000000  0.000000 -0.138270 -0.000000
  1O   2py       -0.000000  0.382304  0.000000 -0.002824 -0.000000 -0.000000
  1O   3pz        0.000000 -0.000000 -0.231762  0.000000 -0.000000 -0.291611
  1O   3px        0.250801 -0.000000 -0.000000  0.000000 -0.110411 -0.000000
  1O   3py        0.000000  0.303923  0.000000 -0.186153  0.000000 -0.000000
  1O   4pz       -0.000000 -0.000000 -0.353655 -0.000000 -0.000000 -0.270902
  1O   4px        0.024472  0.000000 -0.000000  0.000000 -0.718271 -0.000000
  1O   4py       -0.000000  0.041539 -0.000000 -0.462474 -0.000000 -0.000000
  1O   1dz2      -0.000000 -0.000000  0.000004 -0.000000  0.000000 -0.001645
  1O   1dxz      -0.010679 -0.000000 -0.000000  0.000000  0.001003 -0.000000
  1O   1dyz      -0.000000 -0.003430  0.000000 -0.001253  0.000000 -0.000000
  1O   1dx2y2     0.000000  0.000000 -0.000446  0.000000 -0.000000  0.000998
  1O   1dxy      -0.000000  0.000000 -0.000000 -0.000000  0.000000 -0.000000
  1O   2dz2      -0.000000  0.000000  0.007308 -0.000000  0.000000  0.029112
  1O   2dxz      -0.031199 -0.000000  0.000000 -0.000000 -0.010602  0.000000
  1O   2dyz      -0.000000 -0.008615 -0.000000  0.002527 -0.000000  0.000000
  1O   2dx2y2    -0.000000 -0.000000  0.003524 -0.000000  0.000000 -0.007431
  1O   2dxy       0.000000  0.000000 -0.000000 -0.000000 -0.000000  0.000000
  1O   3dz2      -0.000000 -0.000000  0.037485 -0.000000  0.000000 -0.053074
  1O   3dxz      -0.013828 -0.000000  0.000000  0.000000  0.023279  0.000000
  1O   3dyz      -0.000000 -0.007490 -0.000000  0.094931 -0.000000  0.000000
  1O   3dx2y2    -0.000000 -0.000000  0.000491 -0.000000  0.000000  0.033559
  1O   3dxy      -0.000000  0.000000  0.000000 -0.000000  0.000000 -0.000000
  1O   1f0        0.000000 -0.000000 -0.000585 -0.000000 -0.000000 -0.002899
  1O   1f+1       0.005619  0.000000  0.000000 -0.000000  0.000147  0.000000
  1O   1f-1      -0.000000  0.001953 -0.000000  0.001477 -0.000000  0.000000
  1O   1f+2       0.000000 -0.000000  0.000022 -0.000000 -0.000000  0.000709
  1O   1f-2      -0.000000 -0.000000 -0.000000 -0.000000  0.000000  0.000000
  1O   1f+3      -0.001259  0.000000 -0.000000 -0.000000  0.000551 -0.000000
  1O   1f-3      -0.000000 -0.001385 -0.000000 -0.000011  0.000000  0.000000
  1O   2f0       -0.000000  0.000000 -0.001339  0.000000 -0.000000  0.004836
  1O   2f+1       0.004009  0.000000 -0.000000  0.000000  0.000266 -0.000000
  1O   2f-1       0.000000  0.002638  0.000000 -0.011086  0.000000 -0.000000
  1O   2f+2       0.000000  0.000000 -0.001378  0.000000 -0.000000 -0.002915
  1O   2f-2       0.000000 -0.000000 -0.000000  0.000000 -0.000000  0.000000
  1O   2f+3      -0.000984  0.000000 -0.000000 -0.000000 -0.000704  0.000000
  1O   2f-3       0.000000 -0.000150  0.000000 -0.000602  0.000000 -0.000000
  2H   1s         0.000000 -0.108025 -0.006338  0.009806  0.000000  0.003685
  2H   2s         0.000000 -0.146694  0.241755 -0.084378  0.000000 -0.159383
  2H   3s         0.000000  0.083291  1.454281 -1.881311  0.000000 -1.575662
  2H   4s         0.000000  0.011362  1.647805 -5.209469 -0.000000 -0.407691
  2H   1pz        0.000000 -0.003278 -0.000888  0.002674  0.000000 -0.003209
  2H   1px        0.003069  0.000000  0.000000 -0.000000  0.002973 -0.000000
  2H   1py       -0.000000  0.005602  0.003421 -0.002135 -0.000000 -0.000484
  2H   2pz       -0.000000  0.004229  0.038887 -0.021376  0.000000 -0.033815
  2H   2px        0.010587 -0.000000 -0.000000  0.000000  0.008186 -0.000000
  2H   2py       -0.000000 -0.000137 -0.072315  0.031414 -0.000000  0.047037
  2H   3pz        0.000000  0.021504  0.116819 -0.383566  0.000000 -0.283090
  2H   3px       -0.003307  0.000000  0.000000 -0.000000 -0.141913  0.000000
  2H   3py       -0.000000 -0.038126 -0.332149  0.352919 -0.000000  0.115746
  2H   1dz2      -0.000000  0.001098 -0.000279  0.000254 -0.000000 -0.001801
  2H   1dxz       0.001209  0.000000  0.000000  0.000000  0.000596 -0.000000
  2H   1dyz      -0.000000  0.000286 -0.002662  0.000637 -0.000000  0.003192
  2H   1dx2y2    -0.000000  0.000860 -0.001510  0.001998 -0.000000  0.002863
  2H   1dxy      -0.001191 -0.000000 -0.000000 -0.000000 -0.000966  0.000000
  2H   2dz2      -0.000000 -0.002185 -0.009959 -0.011056 -0.000000  0.018428
  2H   2dxz       0.001944 -0.000000 -0.000000 -0.000000 -0.021038 -0.000000
  2H   2dyz       0.000000  0.001219 -0.000044  0.008515  0.000000 -0.003122
  2H   2dx2y2    -0.000000 -0.000282 -0.006726 -0.001007  0.000000 -0.007662
  2H   2dxy       0.000674  0.000000  0.000000 -0.000000  0.011920 -0.000000
  3H   1s        -0.000000  0.108025 -0.006338 -0.009806 -0.000000  0.003685
  3H   2s        -0.000000  0.146694  0.241755  0.084378 -0.000000 -0.159383
  3H   3s        -0.000000 -0.083291  1.454281  1.881311 -0.000000 -1.575662
  3H   4s        -0.000000 -0.011362  1.647805  5.209469  0.000000 -0.407691
  3H   1pz       -0.000000  0.003278 -0.000888 -0.002674 -0.000000 -0.003209
  3H   1px        0.003069  0.000000  0.000000  0.000000  0.002973 -0.000000
  3H   1py       -0.000000  0.005602 -0.003421 -0.002135 -0.000000  0.000484
  3H   2pz       -0.000000 -0.004229  0.038887  0.021376  0.000000 -0.033815
  3H   2px        0.010587  0.000000 -0.000000 -0.000000  0.008186  0.000000
  3H   2py       -0.000000 -0.000137  0.072315  0.031414  0.000000 -0.047037
  3H   3pz       -0.000000 -0.021504  0.116819  0.383566 -0.000000 -0.283090
  3H   3px       -0.003307 -0.000000 -0.000000  0.000000 -0.141913 -0.000000
  3H   3py       -0.000000 -0.038126  0.332149  0.352919 -0.000000 -0.115746
  3H   1dz2       0.000000 -0.001098 -0.000279 -0.000254  0.000000 -0.001801
  3H   1dxz       0.001209  0.000000  0.000000  0.000000  0.000596 -0.000000
  3H   1dyz      -0.000000  0.000286  0.002662  0.000637  0.000000 -0.003192
  3H   1dx2y2     0.000000 -0.000860 -0.001510 -0.001998  0.000000  0.002863
  3H   1dxy       0.001191  0.000000  0.000000 -0.000000  0.000966 -0.000000
  3H   2dz2       0.000000  0.002185 -0.009959  0.011056  0.000000  0.018428
  3H   2dxz       0.001944 -0.000000 -0.000000  0.000000 -0.021038  0.000000
  3H   2dyz       0.000000  0.001219  0.000044  0.008515  0.000000  0.003122
  3H   2dx2y2    -0.000000  0.000282 -0.006726  0.001007  0.000000 -0.007662
  3H   2dxy      -0.000674  0.000000 -0.000000  0.000000 -0.011920  0.000000
                     12        13        14        15        16        17   
                   0.13137   0.13315   0.13324   0.17415   0.19879   0.21131
                   0.00000   0.00000   0.00000   0.00000   0.00000   0.00000
                  --------  --------  --------  --------  --------  --------
  0C   1s        -0.000000  0.004297 -0.000000 -0.014466  0.000000  0.000000
  0C   2s        -0.000000 -0.111405  0.000000 -0.088428  0.000000  0.000000
  0C   3s         0.000000 -0.073544  0.000000 -0.059339  0.000000  0.000000
  0C   4s        -0.000000  7.027094 -0.000000  1.813081 -0.000000 -0.000000
  0C   5s        -0.000000 11.227151 -0.000000 -1.811111  0.000000 -0.000000
  0C   1pz       -0.000000  0.053895 -0.000000  0.016600  0.000000 -0.000000
  0C   1px       -0.202709  0.000000 -0.000000 -0.000000 -0.000000 -0.040706
  0C   1py        0.000000 -0.000000 -0.064970  0.000000 -0.068832  0.000000
  0C   2pz        0.000000  0.126418 -0.000000 -0.481123  0.000000  0.000000
  0C   2px       -0.272664 -0.000000 -0.000000 -0.000000 -0.000000  0.061539
  0C   2py       -0.000000  0.000000  0.017795  0.000000  0.000318 -0.000000
  0C   3pz        0.000000 -0.486631  0.000000 -2.528575 -0.000000  0.000000
  0C   3px       -0.129096 -0.000000 -0.000000 -0.000000  0.000000  0.616496
  0C   3py       -0.000000  0.000000  3.793402  0.000000  0.318246 -0.000000
  0C   4pz        0.000000 -0.715453  0.000000  0.565723 -0.000000 -0.000000
  0C   4px        0.889162 -0.000000  0.000000 -0.000000 -0.000000  1.521740
  0C   4py       -0.000000  0.000000  5.424738 -0.000000  3.297294  0.000000
  0C   1dz2       0.000000  0.001008 -0.000000 -0.016786  0.000000  0.000000
  0C   1dxz       0.017325 -0.000000  0.000000  0.000000  0.000000  0.007103
  0C   1dyz       0.000000  0.000000  0.000713 -0.000000 -0.002893  0.000000
  0C   1dx2y2    -0.000000  0.002807 -0.000000 -0.014036  0.000000  0.000000
  0C   1dxy       0.000000 -0.000000  0.000000 -0.000000 -0.000000  0.000000
  0C   2dz2      -0.000000  0.149409 -0.000000 -0.088469 -0.000000 -0.000000
  0C   2dxz      -0.066112 -0.000000 -0.000000 -0.000000 -0.000000  0.238380
  0C   2dyz       0.000000 -0.000000 -0.128685 -0.000000  0.501869  0.000000
  0C   2dx2y2     0.000000 -0.230218  0.000000 -0.150506  0.000000  0.000000
  0C   2dxy      -0.000000  0.000000 -0.000000  0.000000  0.000000 -0.000000
  0C   3dz2      -0.000000  0.257452 -0.000000  0.780044 -0.000000 -0.000000
  0C   3dxz      -0.134940 -0.000000  0.000000 -0.000000 -0.000000  1.052669
  0C   3dyz       0.000000 -0.000000 -1.008216  0.000000  2.428274  0.000000
  0C   3dx2y2     0.000000 -0.507819  0.000000  0.306374 -0.000000  0.000000
  0C   3dxy      -0.000000  0.000000  0.000000 -0.000000  0.000000 -0.000000
  0C   1f0       -0.000000  0.015937 -0.000000  0.002318 -0.000000 -0.000000
  0C   1f+1      -0.003336 -0.000000 -0.000000 -0.000000  0.000000  0.008732
  0C   1f-1       0.000000 -0.000000 -0.003790  0.000000  0.015311 -0.000000
  0C   1f+2      -0.000000  0.010685 -0.000000  0.017383 -0.000000 -0.000000
  0C   1f-2       0.000000 -0.000000  0.000000 -0.000000 -0.000000  0.000000
  0C   1f+3      -0.004161  0.000000 -0.000000  0.000000 -0.000000 -0.002849
  0C   1f-3       0.000000 -0.000000 -0.001369 -0.000000 -0.007242 -0.000000
  0C   2f0       -0.000000  0.100076 -0.000000  0.006486 -0.000000 -0.000000
  0C   2f+1      -0.011938 -0.000000 -0.000000 -0.000000 -0.000000  0.059654
  0C   2f-1      -0.000000  0.000000  0.064028  0.000000  0.114649 -0.000000
  0C   2f+2      -0.000000  0.118975 -0.000000  0.070052 -0.000000 -0.000000
  0C   2f-2       0.000000  0.000000  0.000000  0.000000 -0.000000  0.000000
  0C   2f+3       0.038471 -0.000000  0.000000 -0.000000  0.000000  0.015310
  0C   2f-3      -0.000000  0.000000  0.074788  0.000000 -0.029932 -0.000000
  1O   1s         0.000000  0.002409 -0.000000 -0.017400  0.000000  0.000000
  1O   2s         0.000000 -0.017748  0.000000 -0.021576 -0.000000 -0.000000
  1O   3s         0.000000 -0.002515  0.000000 -0.007704 -0.000000 -0.000000
  1O   4s         0.000000 -0.955743  0.000000  0.595058  0.000000  0.000000
  1O   5s         0.000000 -4.657374  0.000000  3.574033  0.000000  0.000000
  1O   1pz        0.000000 -0.025521  0.000000  0.033351 -0.000000  0.000000
  1O   1px        0.140043 -0.000000  0.000000 -0.000000  0.000000  0.111577
  1O   1py        0.000000 -0.000000 -0.019253  0.000000  0.067744  0.000000
  1O   2pz        0.000000  0.007654 -0.000000  0.011861 -0.000000 -0.000000
  1O   2px        0.184890 -0.000000  0.000000  0.000000  0.000000  0.132206
  1O   2py        0.000000 -0.000000 -0.020021  0.000000  0.084311  0.000000
  1O   3pz       -0.000000  0.683541 -0.000000 -0.694728 -0.000000 -0.000000
  1O   3px        0.353598  0.000000  0.000000  0.000000  0.000000 -0.302447
  1O   3py        0.000000 -0.000000 -0.197057 -0.000000 -0.840298  0.000000
  1O   4pz        0.000000  1.222704 -0.000000 -2.853534  0.000000 -0.000000
  1O   4px        0.190524  0.000000  0.000000  0.000000  0.000000 -2.955052
  1O   4py        0.000000 -0.000000 -0.489164 -0.000000 -3.247848 -0.000000
  1O   1dz2      -0.000000  0.000743 -0.000000 -0.003796  0.000000  0.000000
  1O   1dxz       0.005581 -0.000000  0.000000  0.000000  0.000000 -0.000299
  1O   1dyz      -0.000000  0.000000  0.002646 -0.000000 -0.003800  0.000000
  1O   1dx2y2    -0.000000  0.001311 -0.000000 -0.001382  0.000000 -0.000000
  1O   1dxy      -0.000000 -0.000000 -0.000000  0.000000 -0.000000  0.000000
  1O   2dz2      -0.000000 -0.030001  0.000000  0.020666  0.000000 -0.000000
  1O   2dxz      -0.001747  0.000000  0.000000 -0.000000  0.000000 -0.008870
  1O   2dyz      -0.000000  0.000000 -0.000121  0.000000  0.047115 -0.000000
  1O   2dx2y2     0.000000 -0.009272  0.000000  0.004330 -0.000000  0.000000
  1O   2dxy      -0.000000  0.000000  0.000000  0.000000  0.000000 -0.000000
  1O   3dz2       0.000000 -0.153722  0.000000  0.292887 -0.000000  0.000000
  1O   3dxz      -0.064792 -0.000000 -0.000000 -0.000000 -0.000000  0.431040
  1O   3dyz      -0.000000  0.000000  0.145580  0.000000  0.441849  0.000000
  1O   3dx2y2     0.000000  0.018520 -0.000000 -0.073558  0.000000  0.000000
  1O   3dxy       0.000000 -0.000000 -0.000000 -0.000000 -0.000000  0.000000
  1O   1f0        0.000000  0.001482 -0.000000  0.001757 -0.000000  0.000000
  1O   1f+1      -0.003140 -0.000000 -0.000000 -0.000000 -0.000000  0.007157
  1O   1f-1      -0.000000  0.000000  0.000812  0.000000  0.003973  0.000000
  1O   1f+2       0.000000  0.000076 -0.000000 -0.000633  0.000000  0.000000
  1O   1f-2      -0.000000 -0.000000 -0.000000  0.000000 -0.000000  0.000000
  1O   1f+3      -0.000467 -0.000000 -0.000000  0.000000  0.000000 -0.000271
  1O   1f-3      -0.000000  0.000000  0.000771  0.000000 -0.001960 -0.000000
  1O   2f0        0.000000  0.008979 -0.000000 -0.034935  0.000000  0.000000
  1O   2f+1       0.015758  0.000000  0.000000  0.000000  0.000000 -0.055192
  1O   2f-1       0.000000 -0.000000 -0.010094 -0.000000 -0.064013 -0.000000
  1O   2f+2      -0.000000  0.000330 -0.000000  0.009227 -0.000000 -0.000000
  1O   2f-2       0.000000  0.000000  0.000000  0.000000  0.000000 -0.000000
  1O   2f+3      -0.001879  0.000000 -0.000000  0.000000 -0.000000 -0.001357
  1O   2f-3       0.000000 -0.000000 -0.005430 -0.000000  0.008607  0.000000
  2H   1s        -0.000000 -0.002921 -0.007841  0.024846 -0.010937 -0.000000
  2H   2s         0.000000 -0.587554 -0.410832 -0.396413  0.406224  0.000000
  2H   3s         0.000000 -3.996875 -5.667033 -2.227808  1.511852  0.000000
  2H   4s         0.000000 -2.364115 -6.331776  0.255849 -3.367175 -0.000000
  2H   1pz        0.000000 -0.002328  0.000243 -0.003736  0.000348  0.000000
  2H   1px       -0.009370 -0.000000 -0.000000 -0.000000  0.000000 -0.002736
  2H   1py       -0.000000  0.001341  0.003099  0.001104  0.000011 -0.000000
  2H   2pz        0.000000 -0.109235 -0.062465 -0.067523  0.026214  0.000000
  2H   2px       -0.037151  0.000000  0.000000  0.000000 -0.000000  0.006080
  2H   2py       -0.000000  0.207047  0.097971  0.222436 -0.067222 -0.000000
  2H   3pz        0.000000 -0.344680 -0.582075  0.042103 -1.238831  0.000000
  2H   3px       -0.553331 -0.000000 -0.000000  0.000000 -0.000000  0.302243
  2H   3py       -0.000000  0.830449  0.800675  1.463700  0.143369 -0.000000
  2H   1dz2      -0.000000  0.001104 -0.001060  0.002318  0.001483 -0.000000
  2H   1dxz      -0.001231  0.000000  0.000000 -0.000000  0.000000  0.003425
  2H   1dyz      -0.000000  0.007968  0.003245  0.010502 -0.002516 -0.000000
  2H   1dx2y2    -0.000000  0.006112  0.006240  0.007939 -0.002060 -0.000000
  2H   1dxy       0.001335 -0.000000  0.000000  0.000000  0.000000  0.003165
  2H   2dz2      -0.000000  0.024937 -0.004797  0.027767 -0.080477 -0.000000
  2H   2dxz      -0.030961  0.000000 -0.000000  0.000000 -0.000000 -0.041807
  2H   2dyz       0.000000 -0.014815 -0.022741  0.043259  0.053334 -0.000000
  2H   2dx2y2     0.000000  0.009157 -0.052354  0.100828  0.064979 -0.000000
  2H   2dxy       0.056632 -0.000000  0.000000 -0.000000  0.000000 -0.067386
  3H   1s         0.000000 -0.002921  0.007841  0.024846  0.010937 -0.000000
  3H   2s        -0.000000 -0.587554  0.410832 -0.396413 -0.406224  0.000000
  3H   3s        -0.000000 -3.996875  5.667033 -2.227808 -1.511852 -0.000000
  3H   4s        -0.000000 -2.364114  6.331776  0.255849  3.367175  0.000000
  3H   1pz       -0.000000 -0.002328 -0.000243 -0.003736 -0.000348  0.000000
  3H   1px       -0.009370 -0.000000 -0.000000 -0.000000 -0.000000 -0.002736
  3H   1py       -0.000000 -0.001341  0.003099 -0.001104  0.000011  0.000000
  3H   2pz       -0.000000 -0.109235  0.062465 -0.067523 -0.026214  0.000000
  3H   2px       -0.037151  0.000000 -0.000000  0.000000 -0.000000  0.006080
  3H   2py       -0.000000 -0.207047  0.097971 -0.222436 -0.067222  0.000000
  3H   3pz       -0.000000 -0.344680  0.582075  0.042103  1.238831 -0.000000
  3H   3px       -0.553331  0.000000 -0.000000  0.000000 -0.000000  0.302243
  3H   3py       -0.000000 -0.830449  0.800675 -1.463700  0.143369  0.000000
  3H   1dz2       0.000000  0.001104  0.001060  0.002318 -0.001483 -0.000000
  3H   1dxz      -0.001231 -0.000000 -0.000000 -0.000000 -0.000000  0.003425
  3H   1dyz      -0.000000 -0.007968  0.003245 -0.010502 -0.002516  0.000000
  3H   1dx2y2     0.000000  0.006112 -0.006240  0.007939  0.002060 -0.000000
  3H   1dxy      -0.001335 -0.000000 -0.000000 -0.000000 -0.000000 -0.003165
  3H   2dz2      -0.000000  0.024937  0.004797  0.027767  0.080477 -0.000000
  3H   2dxz      -0.030961  0.000000 -0.000000  0.000000  0.000000 -0.041807
  3H   2dyz       0.000000  0.014815 -0.022741 -0.043259  0.053334  0.000000
  3H   2dx2y2    -0.000000  0.009157  0.052354  0.100828 -0.064979  0.000000
  3H   2dxy      -0.056632  0.000000 -0.000000  0.000000 -0.000000  0.067386
                     18        19        20        21        22        23   
                   0.21702   0.25450   0.25634   0.28100   0.32103   0.33809
                   0.00000   0.00000   0.00000   0.00000   0.00000   0.00000
                  --------  --------  --------  --------  --------  --------
  0C   1s         0.006614 -0.000000  0.004972 -0.000000  0.000000  0.000000
  0C   2s         0.100429 -0.000000  0.070073 -0.000000  0.000000  0.000000
  0C   3s         0.070851 -0.000000  0.052742  0.000000 -0.000000  0.000000
  0C   4s        -4.936973  0.000000  0.136115 -0.000000  0.000000 -0.000000
  0C   5s         0.367197  0.000000 -0.870480 -0.000000  0.000000  0.000000
  0C   1pz       -0.052679 -0.000000  0.017461  0.000000 -0.000000 -0.000000
  0C   1px        0.000000 -0.000000 -0.000000  0.000000 -0.142602 -0.000000
  0C   1py        0.000000  0.000000  0.000000  0.106629  0.000000 -0.066098
  0C   2pz        0.042598  0.000000 -0.069827  0.000000 -0.000000  0.000000
  0C   2px        0.000000 -0.000000 -0.000000  0.000000 -0.419829 -0.000000
  0C   2py       -0.000000 -0.000000  0.000000 -0.340119  0.000000  0.013412
  0C   3pz       -0.504863  0.000000 -3.821413  0.000000 -0.000000  0.000000
  0C   3px        0.000000 -0.000000 -0.000000  0.000000 -3.849180 -0.000000
  0C   3py       -0.000000 -0.000000  0.000000 -2.673273  0.000000 -2.873577
  0C   4pz       -0.287160  0.000000 -2.442961  0.000000 -0.000000 -0.000000
  0C   4px       -0.000000  0.000000 -0.000000  0.000000 -1.289939 -0.000000
  0C   4py        0.000000 -0.000000 -0.000000  4.335472  0.000000 -4.205482
  0C   1dz2       0.006438  0.000000 -0.023651  0.000000 -0.000000  0.000000
  0C   1dxz      -0.000000  0.000000  0.000000  0.000000 -0.007104 -0.000000
  0C   1dyz       0.000000 -0.000000 -0.000000  0.016942 -0.000000  0.000089
  0C   1dx2y2     0.010428  0.000000 -0.003660 -0.000000  0.000000  0.000000
  0C   1dxy       0.000000 -0.035441 -0.000000  0.000000  0.000000 -0.000000
  0C   2dz2      -0.165571  0.000000 -0.142383 -0.000000  0.000000  0.000000
  0C   2dxz      -0.000000  0.000000 -0.000000 -0.000000  0.165169 -0.000000
  0C   2dyz       0.000000 -0.000000 -0.000000  0.431583 -0.000000 -0.152782
  0C   2dx2y2     0.221204 -0.000000  0.041599  0.000000 -0.000000  0.000000
  0C   2dxy       0.000000  0.270069  0.000000 -0.000000 -0.000000 -0.000000
  0C   3dz2      -0.951319  0.000000 -0.989749  0.000000  0.000000  0.000000
  0C   3dxz      -0.000000  0.000000  0.000000 -0.000000  0.783210 -0.000000
  0C   3dyz       0.000000  0.000000 -0.000000  0.692638 -0.000000  0.291378
  0C   3dx2y2    -0.247174 -0.000000 -0.162879  0.000000  0.000000  0.000000
  0C   3dxy      -0.000000  0.531810  0.000000 -0.000000  0.000000 -0.000000
  0C   1f0       -0.004016  0.000000 -0.010061 -0.000000  0.000000  0.000000
  0C   1f+1      -0.000000  0.000000 -0.000000 -0.000000  0.013798  0.000000
  0C   1f-1      -0.000000 -0.000000  0.000000 -0.008511  0.000000  0.003293
  0C   1f+2      -0.010853  0.000000 -0.006312 -0.000000  0.000000 -0.000000
  0C   1f-2      -0.000000  0.001114 -0.000000  0.000000  0.000000 -0.000000
  0C   1f+3       0.000000  0.000000  0.000000 -0.000000  0.012626  0.000000
  0C   1f-3      -0.000000  0.000000 -0.000000 -0.020496  0.000000  0.011736
  0C   2f0       -0.250557  0.000000 -0.096824 -0.000000  0.000000 -0.000000
  0C   2f+1      -0.000000 -0.000000 -0.000000  0.000000 -0.096920 -0.000000
  0C   2f-1      -0.000000 -0.000000  0.000000  0.195307  0.000000  0.421502
  0C   2f+2      -0.195248  0.000000  0.077666 -0.000000  0.000000 -0.000000
  0C   2f-2      -0.000000 -0.144546 -0.000000 -0.000000  0.000000 -0.000000
  0C   2f+3       0.000000 -0.000000 -0.000000  0.000000 -0.193469 -0.000000
  0C   2f-3      -0.000000 -0.000000  0.000000 -0.067861  0.000000 -0.229539
  1O   1s         0.003889  0.000000 -0.009604  0.000000  0.000000  0.000000
  1O   2s        -0.024713  0.000000 -0.138390  0.000000  0.000000  0.000000
  1O   3s        -0.003795  0.000000 -0.045749 -0.000000  0.000000  0.000000
  1O   4s         1.204432 -0.000000  1.316119  0.000000 -0.000000 -0.000000
  1O   5s         2.397412 -0.000000  4.986861  0.000000 -0.000000 -0.000000
  1O   1pz        0.031723 -0.000000  0.017336 -0.000000  0.000000  0.000000
  1O   1px       -0.000000  0.000000  0.000000 -0.000000  0.065458  0.000000
  1O   1py       -0.000000 -0.000000 -0.000000 -0.009000  0.000000 -0.019543
  1O   2pz       -0.010909  0.000000 -0.035278 -0.000000  0.000000  0.000000
  1O   2px       -0.000000  0.000000  0.000000 -0.000000  0.066306  0.000000
  1O   2py       -0.000000 -0.000000 -0.000000 -0.051012  0.000000 -0.086088
  1O   3pz       -0.233428  0.000000 -0.308340 -0.000000  0.000000  0.000000
  1O   3px        0.000000  0.000000  0.000000 -0.000000  0.408211  0.000000
  1O   3py        0.000000  0.000000 -0.000000 -0.500881 -0.000000 -0.225231
  1O   4pz       -1.082853 -0.000000  0.999631  0.000000  0.000000  0.000000
  1O   4px        0.000000 -0.000000  0.000000  0.000000  0.469649  0.000000
  1O   4py       -0.000000 -0.000000  0.000000 -3.346296 -0.000000  0.907317
  1O   1dz2       0.000638  0.000000 -0.003344  0.000000  0.000000  0.000000
  1O   1dxz      -0.000000  0.000000  0.000000 -0.000000  0.004526  0.000000
  1O   1dyz       0.000000  0.000000 -0.000000 -0.003669 -0.000000  0.000650
  1O   1dx2y2     0.001124 -0.000000  0.001672 -0.000000  0.000000 -0.000000
  1O   1dxy       0.000000 -0.003025 -0.000000  0.000000 -0.000000  0.000000
  1O   2dz2      -0.019790 -0.000000  0.049074  0.000000 -0.000000 -0.000000
  1O   2dxz       0.000000  0.000000 -0.000000 -0.000000  0.021274 -0.000000
  1O   2dyz      -0.000000 -0.000000  0.000000 -0.010306  0.000000  0.022051
  1O   2dx2y2     0.012296  0.000000 -0.019761  0.000000 -0.000000  0.000000
  1O   2dxy      -0.000000 -0.000028 -0.000000 -0.000000  0.000000 -0.000000
  1O   3dz2       0.047687  0.000000 -0.301697  0.000000 -0.000000 -0.000000
  1O   3dxz      -0.000000  0.000000 -0.000000  0.000000 -0.104125 -0.000000
  1O   3dyz      -0.000000 -0.000000  0.000000  0.392021  0.000000  0.044622
  1O   3dx2y2     0.108699 -0.000000  0.031591  0.000000 -0.000000 -0.000000
  1O   3dxy       0.000000  0.004082  0.000000  0.000000 -0.000000  0.000000
  1O   1f0        0.002544  0.000000 -0.007424  0.000000  0.000000  0.000000
  1O   1f+1      -0.000000  0.000000 -0.000000  0.000000 -0.003023 -0.000000
  1O   1f-1      -0.000000 -0.000000  0.000000  0.006856  0.000000 -0.003613
  1O   1f+2       0.001867  0.000000 -0.000044  0.000000 -0.000000 -0.000000
  1O   1f-2       0.000000  0.002563  0.000000 -0.000000 -0.000000  0.000000
  1O   1f+3       0.000000 -0.000000 -0.000000  0.000000 -0.001728  0.000000
  1O   1f-3      -0.000000  0.000000  0.000000 -0.000721  0.000000 -0.000901
  1O   2f0        0.001725 -0.000000  0.030265 -0.000000  0.000000  0.000000
  1O   2f+1       0.000000 -0.000000  0.000000 -0.000000 -0.002671  0.000000
  1O   2f-1       0.000000  0.000000 -0.000000 -0.029790 -0.000000  0.010878
  1O   2f+2      -0.021162 -0.000000  0.004749 -0.000000  0.000000  0.000000
  1O   2f-2      -0.000000 -0.005857 -0.000000 -0.000000  0.000000 -0.000000
  1O   2f+3      -0.000000  0.000000  0.000000 -0.000000  0.012278 -0.000000
  1O   2f-3       0.000000  0.000000 -0.000000  0.005340 -0.000000  0.011410
  2H   1s        -0.052090 -0.000000  0.006740 -0.033269  0.000000 -0.014523
  2H   2s         0.648877 -0.000000 -0.123556  0.600732 -0.000000  0.101421
  2H   3s        -0.414377  0.000000 -1.746510  5.413777 -0.000000  1.214363
  2H   4s         0.013151  0.000000 -0.399408 -2.827531 -0.000000  3.461561
  2H   1pz        0.003334  0.000000  0.000551  0.002503 -0.000000 -0.013186
  2H   1px        0.000000 -0.006818 -0.000000  0.000000 -0.009318  0.000000
  2H   1py       -0.013606  0.000000 -0.000398 -0.008057 -0.000000 -0.006295
  2H   2pz        0.081534 -0.000000  0.088731  0.272420  0.000000  0.274532
  2H   2px       -0.000000 -0.134031 -0.000000 -0.000000  0.175523 -0.000000
  2H   2py       -0.110717  0.000000  0.020955 -0.225135  0.000000  0.288901
  2H   3pz        0.001797 -0.000000  0.674543  2.126903 -0.000000  1.520894
  2H   3px       -0.000000 -1.722390 -0.000000 -0.000000  2.627174  0.000000
  2H   3py       -1.213163 -0.000000  0.584786 -2.442474  0.000000  2.312967
  2H   1dz2      -0.003894  0.000000 -0.005334 -0.002424  0.000000  0.005432
  2H   1dxz      -0.000000 -0.002534 -0.000000 -0.000000 -0.001923 -0.000000
  2H   1dyz      -0.001360  0.000000 -0.001977 -0.011963  0.000000  0.003982
  2H   1dx2y2     0.001289  0.000000  0.001615 -0.007004  0.000000 -0.003980
  2H   1dxy      -0.000000  0.001623  0.000000 -0.000000  0.007158  0.000000
  2H   2dz2      -0.055873 -0.000000  0.132671  0.080561  0.000000  0.330371
  2H   2dxz       0.000000 -0.114777 -0.000000 -0.000000  0.144556  0.000000
  2H   2dyz      -0.075569  0.000000 -0.079599 -0.214759 -0.000000 -0.042953
  2H   2dx2y2    -0.030400 -0.000000  0.009714 -0.098172  0.000000  0.310646
  2H   2dxy       0.000000  0.216732  0.000000  0.000000 -0.286453 -0.000000
  3H   1s        -0.052090  0.000000  0.006740  0.033269 -0.000000  0.014523
  3H   2s         0.648877 -0.000000 -0.123556 -0.600732  0.000000 -0.101421
  3H   3s        -0.414377 -0.000000 -1.746510 -5.413777  0.000000 -1.214363
  3H   4s         0.013151  0.000000 -0.399408  2.827531  0.000000 -3.461561
  3H   1pz        0.003334 -0.000000  0.000551 -0.002503 -0.000000  0.013186
  3H   1px        0.000000  0.006818  0.000000  0.000000 -0.009318  0.000000
  3H   1py        0.013606 -0.000000  0.000398 -0.008057  0.000000 -0.006295
  3H   2pz        0.081534 -0.000000  0.088731 -0.272420 -0.000000 -0.274532
  3H   2px       -0.000000  0.134031  0.000000 -0.000000  0.175523 -0.000000
  3H   2py        0.110717 -0.000000 -0.020955 -0.225135  0.000000  0.288901
  3H   3pz        0.001797 -0.000000  0.674543 -2.126903  0.000000 -1.520894
  3H   3px       -0.000000  1.722390  0.000000 -0.000000  2.627174 -0.000000
  3H   3py        1.213163 -0.000000 -0.584786 -2.442474  0.000000  2.312967
  3H   1dz2      -0.003894  0.000000 -0.005334  0.002424 -0.000000 -0.005432
  3H   1dxz      -0.000000  0.002534  0.000000 -0.000000 -0.001923  0.000000
  3H   1dyz       0.001360 -0.000000  0.001977 -0.011963 -0.000000  0.003982
  3H   1dx2y2     0.001289  0.000000  0.001615  0.007004 -0.000000  0.003980
  3H   1dxy       0.000000  0.001623  0.000000  0.000000 -0.007158  0.000000
  3H   2dz2      -0.055873 -0.000000  0.132671 -0.080561  0.000000 -0.330371
  3H   2dxz      -0.000000  0.114777  0.000000 -0.000000  0.144556 -0.000000
  3H   2dyz       0.075569 -0.000000  0.079599 -0.214759 -0.000000 -0.042953
  3H   2dx2y2    -0.030400 -0.000000  0.009714  0.098172  0.000000 -0.310646
  3H   2dxy      -0.000000  0.216732  0.000000 -0.000000  0.286453 -0.000000
                     24        25        26        27        28        29   
                   0.33911   0.35914   0.38757   0.38933   0.39627   0.41999
                   0.00000   0.00000   0.00000   0.00000   0.00000   0.00000
                  --------  --------  --------  --------  --------  --------
  0C   1s        -0.024290 -0.037298  0.032544  0.000000 -0.000000  0.000000
  0C   2s        -0.093063  0.020312  0.275668  0.000000 -0.000000  0.000000
  0C   3s        -0.048705 -0.148019 -0.007996 -0.000000  0.000000  0.000000
  0C   4s         2.219684 10.359388 20.173361  0.000000 -0.000000  0.000000
  0C   5s        -7.104053 10.828846  5.468348  0.000000 -0.000000  0.000000
  0C   1pz        0.044433 -0.052195 -0.068463 -0.000000  0.000000 -0.000000
  0C   1px       -0.000000  0.000000  0.000000 -0.000000  0.000000 -0.004283
  0C   1py       -0.000000  0.000000  0.000000  0.000000  0.106429 -0.000000
  0C   2pz       -0.570649 -0.053590 -0.700444 -0.000000  0.000000 -0.000000
  0C   2px       -0.000000  0.000000 -0.000000 -0.000000  0.000000  0.220830
  0C   2py        0.000000  0.000000  0.000000 -0.000000  1.037510 -0.000000
  0C   3pz       -1.792681 -2.032810 -3.634503 -0.000000  0.000000 -0.000000
  0C   3px       -0.000000  0.000000 -0.000000 -0.000000  0.000000  0.441846
  0C   3py       -0.000000  0.000000  0.000000  0.000000 17.126778 -0.000000
  0C   4pz        0.584923 -0.741060 -0.150600 -0.000000  0.000000 -0.000000
  0C   4px       -0.000000  0.000000  0.000000 -0.000000  0.000000  0.450526
  0C   4py       -0.000000  0.000000  0.000000  0.000000  1.816780 -0.000000
  0C   1dz2      -0.001340  0.011951 -0.017040 -0.000000  0.000000 -0.000000
  0C   1dxz      -0.000000  0.000000  0.000000 -0.000000  0.000000 -0.000552
  0C   1dyz      -0.000000 -0.000000 -0.000000  0.000000 -0.008605  0.000000
  0C   1dx2y2    -0.006335 -0.012415  0.010740  0.000000 -0.000000 -0.000000
  0C   1dxy      -0.000000  0.000000  0.000000 -0.008041  0.000000  0.000000
  0C   2dz2      -0.676251  0.282262  0.001897  0.000000 -0.000000 -0.000000
  0C   2dxz       0.000000 -0.000000 -0.000000  0.000000  0.000000  0.512251
  0C   2dyz      -0.000000 -0.000000 -0.000000  0.000000 -0.822078  0.000000
  0C   2dx2y2    -0.501042 -0.567289 -0.638227 -0.000000  0.000000 -0.000000
  0C   2dxy       0.000000  0.000000  0.000000 -0.276371 -0.000000  0.000000
  0C   3dz2      -4.184018  0.838938 -0.230024 -0.000000 -0.000000  0.000000
  0C   3dxz       0.000000 -0.000000 -0.000000  0.000000  0.000000  2.961256
  0C   3dyz       0.000000 -0.000000 -0.000000  0.000000 -3.455185  0.000000
  0C   3dx2y2    -2.916193 -2.280955 -0.233819 -0.000000  0.000000 -0.000000
  0C   3dxy       0.000000  0.000000  0.000000 -3.588040 -0.000000  0.000000
  0C   1f0       -0.022621  0.038399  0.009349  0.000000 -0.000000 -0.000000
  0C   1f+1       0.000000 -0.000000 -0.000000  0.000000 -0.000000  0.001638
  0C   1f-1       0.000000  0.000000  0.000000  0.000000  0.008880 -0.000000
  0C   1f+2       0.025703  0.027135  0.038090  0.000000 -0.000000  0.000000
  0C   1f-2      -0.000000  0.000000  0.000000 -0.006832 -0.000000  0.000000
  0C   1f+3       0.000000 -0.000000 -0.000000  0.000000 -0.000000  0.002966
  0C   1f-3       0.000000  0.000000  0.000000 -0.000000  0.019290 -0.000000
  0C   2f0        0.131524  0.297960  0.284450  0.000000 -0.000000  0.000000
[...]
  1   0.004354799470   0.000144708617         0.001
  2   0.000393658479   0.000080460066         0.001
  3   0.000695035612   0.000281869735         0.001
  4   0.000393775804   0.000085220027         0.001
  5   0.000360965521   0.000172884626         0.001
  6   0.000187850595   0.000012647483         0.001
  7   0.000013931085   0.000001899942         0.001

      *** CONVERGENCE OF RESIDUAL NORM REACHED ***
       --- The STEOM iterations have converged ---
Solving Root No   4 

Iter    Delta-E          Residual              Time
---------------------------------------------------
  0   0.311496428537   0.000856334995         0.001
  1   0.003874465366   0.000230313431         0.002
  2   0.000662600511   0.000190092323         0.001
  3   0.000587637993   0.000137181391         0.001
  4   0.000118016448   0.000018565338         0.001
  5   0.000106524045   0.000009474698         0.001

      *** CONVERGENCE OF RESIDUAL NORM REACHED ***
       --- The STEOM iterations have converged ---
Solving Root No   5 

Iter    Delta-E          Residual              Time
---------------------------------------------------
  0   0.355369301309   0.004345820895         0.001
  1   0.005570762311   0.002419982167         0.001
  2   0.007562468638   0.010439599223         0.001
  3   0.012442259022   0.002475744286         0.001
  4   0.000761101923   0.000278227483         0.001
  5   0.000461473546   0.000279902652         0.001
  6   0.000715711776   0.000097007411         0.001
  7   0.000013209738   0.000026007568         0.001
  8   0.000005730863   0.000629600096         0.001
  9   0.000045205955   0.000009359425         0.001

      *** CONVERGENCE OF RESIDUAL NORM REACHED ***
       --- The STEOM iterations have converged ---
Solving Root No   6 

Iter    Delta-E          Residual              Time
---------------------------------------------------
  0   0.322654595250   0.000985612423         0.001
  1   0.004457175075   0.000136728543         0.001
  2   0.000907830592   0.000235148756         0.001
  3   0.000408800643   0.000040216753         0.001
  4   0.000206534293   0.000023512005         0.001
  5   0.000027227268   0.000001621685         0.001

      *** CONVERGENCE OF RESIDUAL NORM REACHED ***
       --- The STEOM iterations have converged ---
Solving Root No   7 

Iter    Delta-E          Residual              Time
---------------------------------------------------
  0   0.345631932555   0.005770313162         0.001
  1   0.005382780118   0.000231780459         0.001
  2   0.000102573343   0.000030859916         0.001
  3   0.000104430430   0.000001539104         0.001

      *** CONVERGENCE OF RESIDUAL NORM REACHED ***
       --- The STEOM iterations have converged ---
Solving Root No   8 

Iter    Delta-E          Residual              Time
---------------------------------------------------
  0   0.388814118462   0.003103132262         0.001
  1   0.003179106419   0.001016997221         0.001
  2   0.002055152924   0.001812618834         0.001
  3   0.006514195822   0.007586876058         0.001
  4   0.005387872658   0.000601780148         0.001
  5   0.000694250137   0.000407381048         0.001
  6   0.001122932037   0.000353934753         0.001
  7   0.000360650781   0.000013985613         0.001
  8   0.000017448816   0.000001707920         0.001

      *** CONVERGENCE OF RESIDUAL NORM REACHED ***
       --- The STEOM iterations have converged ---
Solving Root No   9 

Iter    Delta-E          Residual              Time
---------------------------------------------------
  0   0.373774845823   0.001238159972         0.001
  1   0.006754131094   0.000617993485         0.001
  2   0.002222920443   0.000502899422         0.001
  3   0.000747125879   0.000473960444         0.001
  4   0.000451351433   0.000915675806         0.001
  5   0.000527472191   0.000651094305         0.001
  6   0.000166471411   0.000726522160         0.001
  7   0.000090589803   0.000125891042         0.001
  8   0.000002431678   0.000150872426         0.001
  9   0.000059402318   0.000062493244         0.001
 10   0.000058965449   0.000018652730         0.001
 11   0.000106291515   0.000169905795         0.001
 12   0.000108717047   0.000007040700         0.001

      *** CONVERGENCE OF RESIDUAL NORM REACHED ***
       --- The STEOM iterations have converged ---
Solving Root No  10 

Iter    Delta-E          Residual              Time
---------------------------------------------------
  0   0.409832611344   0.000232926771         0.002
  1   0.001360925604   0.000312979087         0.001
  2   0.000605259107   0.000066735421         0.001
  3   0.000221727730   0.000015999122         0.001
  4   0.000010142528   0.000059370600         0.001
  5   0.000009211348   0.000015254551         0.001
  6   0.000038540177   0.001644408594         0.001
  7   0.000024768159   0.000013064582         0.001
  8   0.000090423841   0.000683894861         0.001
  9   0.000112587540   0.000002226348         0.001

      *** CONVERGENCE OF RESIDUAL NORM REACHED ***
       --- The STEOM iterations have converged ---

------------------
STEOM-CCSD RESULTS
------------------

IROOT=  1:  0.146663 au     3.991 eV   32188.8 cm**-1
  Amplitude    Excitation
   0.104670     4 ->  12
   0.617506     7 ->   9
   0.732305     7 ->  12
   0.246719     7 ->  15
  Ground state amplitude:  0.000000

Percentage Active Character     99.86

  Amplitude    Excitation in Canonical Basis
  -0.106059     4 ->  12
   0.565161     7 ->  10
  -0.753384     7 ->  12
  -0.194893     7 ->  17
  -0.188847     7 ->  22
  -0.101928     7 ->  32

IROOT=  2:  0.263628 au     7.174 eV   57859.7 cm**-1
  Amplitude    Excitation
   0.887931     7 ->   8
   0.447883     7 ->  13
  Ground state amplitude:  0.000042

Percentage Active Character     99.93

  Amplitude    Excitation in Canonical Basis
   0.846425     7 ->   8
  -0.129765     7 ->  11
   0.468058     7 ->  13
   0.104516     7 ->  15
  -0.109107     7 ->  26

IROOT=  3:  0.300247 au     8.170 eV   65896.6 cm**-1
  Amplitude    Excitation
   0.183601     7 ->   8
  -0.960909     7 ->  11
  -0.166113     7 ->  13
  Ground state amplitude: -0.000204

Percentage Active Character     99.75

  Amplitude    Excitation in Canonical Basis
   0.215080     7 ->   8
   0.904147     7 ->  11
  -0.106823     7 ->  18
  -0.304941     7 ->  20

IROOT=  4:  0.306147 au     8.331 eV   67191.5 cm**-1
  Amplitude    Excitation
  -0.992191     7 ->  10
  Ground state amplitude: -0.019348

Percentage Active Character     99.83

  Amplitude    Excitation in Canonical Basis
  -0.876433     7 ->   9
   0.448242     7 ->  14

IROOT=  5:  0.318463 au     8.666 eV   69894.5 cm**-1
  Amplitude    Excitation
  -0.744063     7 ->   9
   0.658940     7 ->  12
  Ground state amplitude: -0.000000

Percentage Active Character     99.94

  Amplitude    Excitation in Canonical Basis
  -0.769234     7 ->  10
  -0.578488     7 ->  12
   0.121188     7 ->  17
  -0.185045     7 ->  22
  -0.106597     7 ->  32

IROOT=  6:  0.340042 au     9.253 eV   74630.6 cm**-1
  Amplitude    Excitation
  -0.612406     5 ->   9
  -0.738385     5 ->  12
  -0.259765     5 ->  15
  Ground state amplitude: -0.000022

Percentage Active Character     99.22

  Amplitude    Excitation in Canonical Basis
   0.560955     5 ->  10
  -0.757971     5 ->  12
  -0.200411     5 ->  17
  -0.197783     5 ->  22
  -0.109849     5 ->  32

IROOT=  7:  0.352766 au     9.599 eV   77423.3 cm**-1
  Amplitude    Excitation
   0.111269     4 ->  14
   0.558060     6 ->   9
   0.617889     6 ->  12
   0.138448     6 ->  15
   0.476087     7 ->  14
  Ground state amplitude:  0.050269

Percentage Active Character     97.68

Warning:: the state may have not converged with respect to active space 
-------------------- Handle with Care -------------------- 

  Amplitude    Excitation in Canonical Basis
   0.111009     4 ->  16
   0.515066     6 ->  10
  -0.640545     6 ->  12
  -0.118330     6 ->  17
  -0.130097     6 ->  22
  -0.278462     7 ->  14
   0.345371     7 ->  16
  -0.153698     7 ->  31

IROOT=  8:  0.368615 au    10.031 eV   80901.6 cm**-1
  Amplitude    Excitation
   0.423379     7 ->   8
   0.169586     7 ->  11
  -0.863993     7 ->  13
   0.140894     7 ->  18
  Ground state amplitude: -0.000247

Percentage Active Character     96.64

Warning:: the state may have not converged with respect to active space 
-------------------- Handle with Care -------------------- 

  Amplitude    Excitation in Canonical Basis
   0.474247     7 ->   8
  -0.105026     7 ->  11
  -0.709731     7 ->  13
  -0.421079     7 ->  15
   0.129899     7 ->  18
   0.196483     7 ->  26

IROOT=  9:  0.384369 au    10.459 eV   84359.1 cm**-1
  Amplitude    Excitation
   0.634551     4 ->   9
   0.708703     4 ->  12
   0.246029     4 ->  15
  -0.151199     7 ->  12
  Ground state amplitude:  0.000000

Percentage Active Character     99.56

  Amplitude    Excitation in Canonical Basis
   0.581066     4 ->  10
  -0.733241     4 ->  12
  -0.208410     4 ->  17
  -0.176931     4 ->  22
   0.156446     7 ->  12

IROOT= 10:  0.407680 au    11.094 eV   89475.4 cm**-1
  Amplitude    Excitation
   0.886803     6 ->   8
   0.453020     6 ->  13
  Ground state amplitude: -0.000096

Percentage Active Character     99.88

  Amplitude    Excitation in Canonical Basis
   0.844690     6 ->   8
  -0.159056     6 ->  11
   0.466176     6 ->  13
   0.110090     6 ->  15
  -0.113533     6 ->  26


STEOM-CCSD done (    1.3 sec)
Calculating the Dipole integrals                  ... done
Transforming integrals                            ... done
Calculating the Linear Momentum integrals         ... done
Transforming integrals                            ... done
Calculating angular momentum integrals            ... done
Transforming integrals                            ... done

--------------------------------------------------------------------
               UNRELAXED EXCITED STATE DIPOLE MOMENTS
--------------------------------------------------------------------
               E(eV)     DX(au)      DY(au)      DZ(au)      |D|(D)
IROOT=  0:     0.000    0.000000    0.000000   -0.915753    2.327658
IROOT=  1:     3.991    0.004017    0.000001   -0.509608    1.295360
IROOT=  2:     7.174   -0.005728   -0.001431    1.138987    2.895113
IROOT=  3:     8.170   -0.000490    0.002932   -0.257829    0.655393
IROOT=  4:     8.331   -0.000012   -0.012885    0.799456    2.032320
IROOT=  5:     8.666    0.001895   -0.000016   -0.076025    0.193300
IROOT=  6:     9.253    0.000151    0.000007   -0.244507    0.621488
IROOT=  7:     9.599   -0.001864   -0.002130   -0.454700    1.155777
IROOT=  8:    10.031   -0.001561   -0.021607    1.415226    3.597640
IROOT=  9:    10.459    0.000143    0.000015   -1.009262    2.565339
IROOT= 10:    11.094    0.006760   -0.004160    1.157199    2.941435
--------------------------------------------------------------------

-----------------------------------------------------------------------------
         ABSORPTION SPECTRUM VIA TRANSITION ELECTRIC DIPOLE MOMENTS
-----------------------------------------------------------------------------
State   Energy  Wavelength   fosc         T2         TX        TY        TZ  
        (cm-1)    (nm)                  (au**2)     (au)      (au)      (au) 
-----------------------------------------------------------------------------
   1   32188.8    310.7   0.000000000   0.00000   0.00000   0.00000   0.00000
   2   57859.7    172.8   0.021979864   0.12506   0.00000   0.35364   0.00081
   3   65896.6    151.8   0.039379160   0.19673   0.00000   0.44355   0.00107
   4   67191.5    148.8   0.043027542   0.21082   0.00007   0.00040   0.45915
   5   69894.5    143.1   0.000000000   0.00000   0.00000   0.00000   0.00000
   6   74630.6    134.0   0.000616529   0.00272   0.05192   0.00000   0.00135
   7   77423.3    129.2   0.140442700   0.59718   0.00072   0.00086   0.77277
   8   80901.6    123.6   0.029793081   0.12124   0.00000   0.34818   0.00301
   9   84359.1    118.5   0.000000000   0.00000   0.00000   0.00000   0.00000
  10   89475.4    111.8   0.044789977   0.16480   0.40595   0.00000   0.00087

-------------------------------------------------------------------
                             CD SPECTRUM
-------------------------------------------------------------------
State   Energy Wavelength       R         MX        MY        MZ   
        (cm-1)   (nm)       (1e40*cgs)   (au)      (au)      (au)  
-------------------------------------------------------------------
   1     310.7   32188.8     -0.00309  -0.00000   0.00000   0.56023
   2     172.8   57859.7      0.00079  -0.26603   0.00000   0.00440
   3     151.8   65896.6     -0.00019   0.32305  -0.00000   0.00084
   4     148.8   67191.5      0.00018   0.00003   0.00053   0.00000
   5     143.1   69894.5      0.00001  -0.00000  -0.00000   0.00919
   6     134.0   74630.6      0.00109   0.00000  -0.69445  -0.00001
   7     129.2   77423.3      0.00210  -0.00054  -0.00670  -0.00010
   8     123.6   80901.6     -0.00051   0.32063  -0.00001   0.00016
   9     118.5   84359.1     -0.00047  -0.00000  -0.00000  -0.34514
  10     111.8   89475.4      0.00002   0.00000  -0.00865   0.00003

TDM done (    1.5 sec)


------------------------------------------------------------------------------- 
                                     TIMINGS                                   
------------------------------------------------------------------------------- 


Total execution time                   ...       55.147 sec

Fock Matrix Formation                  ...        0.460 sec (  0.8%)
Initial Guess                          ...        0.007 sec (  0.0%)
DIIS Solver                            ...        0.236 sec (  0.4%)
State Vector Update                    ...        0.013 sec (  0.0%)
Sigma-vector construction              ...        6.497 sec ( 11.8%)
  <0|H|D>                              ...        0.003 sec (  0.0% of sigma)
  <D|H|D>(0-ext)                       ...        0.036 sec (  0.6% of sigma)
  <D|H|D>(2-ext Fock)                  ...        0.012 sec (  0.2% of sigma)
  <D|H|D>(2-ext)                       ...        0.236 sec (  3.6% of sigma)
  <D|H|D>(4-ext)                       ...        1.139 sec ( 17.5% of sigma)
  <D|H|D>(4-ext-corr)                  ...        0.585 sec (  9.0% of sigma)
  <S|H|0>                              ...        0.004 sec (  0.1% of sigma)
  <S|H|S>                              ...        0.007 sec (  0.1% of sigma)
  <S|H|D>(1-ext)                       ...        0.012 sec (  0.2% of sigma)
  <D|H|S>(1-ext)                       ...        0.030 sec (  0.5% of sigma)
  <S|H|D>(3-ext)                       ...        0.227 sec (  3.5% of sigma)
  Fock-dressing                        ...        3.295 sec ( 50.7% of sigma)
  (ik|jl)-dressing                     ...        0.023 sec (  0.4% of sigma)
  (ij|ab),(ia|jb)-dressing             ...        0.744 sec ( 11.4% of sigma)
  Pair energies                        ...        0.004 sec (  0.1% of sigma)
Total Time for computing STEOM-CCSD    ...       35.011 sec ( 63.5% of ALL)
  Dressing integrals                   ...        2.830 sec (  8.1% of (STEOM))
  EOM+STEOM Singles                    ...        1.043 sec (  3.0% of (STEOM))
  EOM Doubles                          ...       24.855 sec ( 71.0% of (STEOM))
  Build Hamiltonian                    ...        0.889 sec (  2.5% of (STEOM))
  Diagonalize Hamiltonian              ...        0.098 sec (  0.3% of (STEOM))
  Ritz vectors                         ...        0.675 sec (  1.9% of (STEOM))
  Residual vectors                     ...        0.717 sec (  2.0% of (STEOM))
  Orthogonalization                    ...        2.338 sec (  6.7% of (STEOM))
One-particle density matrix            ...        0.004 sec (  0.0%)


Maximum memory used throughout the entire MDCI-calculation: 2438.4 MB

-------------------------   --------------------
FINAL SINGLE POINT ENERGY      -114.178634408562
-------------------------   --------------------


                            ***************************************
                            *     ORCA property calculations      *
                            ***************************************

                                    ---------------------
                                    Active property flags
                                    ---------------------
   (+) Dipole Moment


------------------------------------------------------------------------------
                       ORCA ELECTRIC PROPERTIES CALCULATION
------------------------------------------------------------------------------

Dipole Moment Calculation                       ... on
Quadrupole Moment Calculation                   ... off
Polarizability Calculation                      ... off
GBWName                                         ... 000011.gbw
Electron density file                           ... 000011.scfp
The origin for moment calculation is the CENTER OF MASS  = ( 0.000000,  0.000000  0.138240)

-------------
DIPOLE MOMENT
-------------
                                X             Y             Z
Electronic contribution:      0.00000      -0.00000       1.11377
Nuclear contribution   :      0.00000       0.00000      -2.21183
                        -----------------------------------------
Total Dipole Moment    :      0.00000      -0.00000      -1.09806
                        -----------------------------------------
Magnitude (a.u.)       :      1.09806
Magnitude (Debye)      :      2.79106



--------------------
Rotational spectrum 
--------------------
 
Rotational constants in cm-1:     9.479180     1.314422     1.154355 
Rotational constants in MHz : 284178.676576 39405.394785 34606.687817 

 Dipole components along the rotational axes: 
x,y,z [a.u.] :    -1.098063    -0.000000     0.000000 
x,y,z [Debye]:    -2.791055    -0.000000     0.000000 

 

                           *** MDCI DENSITY ***

------------------------------------------------------------------------------
                       ORCA ELECTRIC PROPERTIES CALCULATION
------------------------------------------------------------------------------

Dipole Moment Calculation                       ... on
Quadrupole Moment Calculation                   ... off
Polarizability Calculation                      ... off
GBWName                                         ... 000011.gbw
Electron density file                           ... 000011.mdcip
The origin for moment calculation is the CENTER OF MASS  = ( 0.000000,  0.000000  0.138240)

-------------
DIPOLE MOMENT
-------------
                                X             Y             Z
Electronic contribution:      0.00000       0.00000       1.33171
Nuclear contribution   :      0.00000       0.00000      -2.21183
                        -----------------------------------------
Total Dipole Moment    :      0.00000       0.00000      -0.88012
                        -----------------------------------------
Magnitude (a.u.)       :      0.88012
Magnitude (Debye)      :      2.23710



--------------------
Rotational spectrum 
--------------------
 
Rotational constants in cm-1:     9.479180     1.314422     1.154355 
Rotational constants in MHz : 284178.676576 39405.394785 34606.687817 

 Dipole components along the rotational axes: 
x,y,z [a.u.] :    -0.880124     0.000000     0.000000 
x,y,z [Debye]:    -2.237098     0.000000     0.000000 

 

Timings for individual modules:

Sum of individual times         ...       64.138 sec (=   1.069 min)
GTO integral calculation        ...        1.864 sec (=   0.031 min)   2.9 %
SCF iterations                  ...        6.557 sec (=   0.109 min)  10.2 %
MDCI module                     ...       55.718 sec (=   0.929 min)  86.9 %
                             ****ORCA TERMINATED NORMALLY****
TOTAL RUN TIME: 0 days 0 hours 1 minutes 5 seconds 129 msec
