
                                        *****************
                                        * O   R   C   A *
                                        *****************

                                            #,                                       
                                            ###                                      
                                            ####                                     
                                            #####                                    
                                            ######                                   
                                           ########,                                 
                                     ,,################,,,,,                         
                               ,,#################################,,                 
                          ,,##########################################,,             
                       ,#########################################, ''#####,          
                    ,#############################################,,   '####,        
                  ,##################################################,,,,####,       
                ,###########''''           ''''###############################       
              ,#####''   ,,,,##########,,,,          '''####'''          '####       
            ,##' ,,,,###########################,,,                        '##       
           ' ,,###''''                  '''############,,,                           
         ,,##''                                '''############,,,,        ,,,,,,###''
      ,#''                                            '''#######################'''  
     '                                                          ''''####''''         
             ,#######,   #######,   ,#######,      ##                                
            ,#'     '#,  ##    ##  ,#'     '#,    #''#        ######   ,####,        
            ##       ##  ##   ,#'  ##            #'  '#       #        #'  '#        
            ##       ##  #######   ##           ,######,      #####,   #    #        
            '#,     ,#'  ##    ##  '#,     ,#' ,#      #,         ##   #,  ,#        
             '#######'   ##     ##  '#######'  #'      '#     #####' # '####'        



                  #######################################################
                  #                        -***-                        #
                  #          Department of theory and spectroscopy      #
                  #    Directorship and core code : Frank Neese         #
                  #        Max Planck Institute fuer Kohlenforschung    #
                  #                Kaiser Wilhelm Platz 1               #
                  #                 D-45470 Muelheim/Ruhr               #
                  #                      Germany                        #
                  #                                                     #
                  #                  All rights reserved                #
                  #                        -***-                        #
                  #######################################################


                         Program Version 5.0.0 -  RELEASE  -
                                (SVN: $Rev: 19529$)
                ($Date: 2021-06-28 11:36:33 +0200 (Mo, 28 Jun 2021) $)


 With contributions from (in alphabetic order):
   Daniel Aravena         : Magnetic Suceptibility
   Michael Atanasov       : Ab Initio Ligand Field Theory (pilot matlab implementation)
   Alexander A. Auer      : GIAO ZORA, VPT2 properties, NMR spectrum
   Ute Becker             : Parallelization
   Giovanni Bistoni       : ED, misc. LED, open-shell LED, HFLD
   Martin Brehm           : Molecular dynamics
   Dmytro Bykov           : SCF Hessian
   Vijay G. Chilkuri      : MRCI spin determinant printing, contributions to CSF-ICE
   Dipayan Datta          : RHF DLPNO-CCSD density
   Achintya Kumar Dutta   : EOM-CC, STEOM-CC
   Dmitry Ganyushin       : Spin-Orbit,Spin-Spin,Magnetic field MRCI
   Miquel Garcia          : C-PCM Hessian, Gaussian charge scheme
   Yang Guo               : DLPNO-NEVPT2, F12-NEVPT2, CIM, IAO-localization
   Andreas Hansen         : Spin unrestricted coupled pair/coupled cluster methods
   Benjamin Helmich-Paris : MC-RPA, TRAH-SCF, COSX integrals
   Lee Huntington         : MR-EOM, pCC
   Robert Izsak           : Overlap fitted RIJCOSX, COSX-SCS-MP3, EOM
   Marcus Kettner         : VPT2
   Christian Kollmar      : KDIIS, OOCD, Brueckner-CCSD(T), CCSD density, CASPT2, CASPT2-K
   Simone Kossmann        : Meta GGA functionals, TD-DFT gradient, OOMP2, MP2 Hessian
   Martin Krupicka        : Initial AUTO-CI
   Lucas Lang             : DCDCAS
   Marvin Lechner         : AUTO-CI (C++ implementation), FIC-MRCC
   Dagmar Lenk            : GEPOL surface, SMD
   Dimitrios Liakos       : Extrapolation schemes; Compound Job, initial MDCI parallelization
   Dimitrios Manganas     : Further ROCIS development; embedding schemes
   Dimitrios Pantazis     : SARC Basis sets
   Anastasios Papadopoulos: AUTO-CI, single reference methods and gradients
   Taras Petrenko         : DFT Hessian,TD-DFT gradient, ASA, ECA, R-Raman, ABS, FL, XAS/XES, NRVS
   Peter Pinski           : DLPNO-MP2, DLPNO-MP2 Gradient
   Christoph Reimann      : Effective Core Potentials
   Marius Retegan         : Local ZFS, SOC
   Christoph Riplinger    : Optimizer, TS searches, QM/MM, DLPNO-CCSD(T), (RO)-DLPNO pert. Triples
   Tobias Risthaus        : Range-separated hybrids, TD-DFT gradient, RPA, STAB
   Michael Roemelt        : Original ROCIS implementation
   Masaaki Saitow         : Open-shell DLPNO-CCSD energy and density
   Barbara Sandhoefer     : DKH picture change effects
   Avijit Sen             : IP-ROCIS
   Kantharuban Sivalingam : CASSCF convergence, NEVPT2, FIC-MRCI
   Bernardo de Souza      : ESD, SOC TD-DFT
   Georgi Stoychev        : AutoAux, RI-MP2 NMR
   Willem Van den Heuvel  : Paramagnetic NMR
   Boris Wezisla          : Elementary symmetry handling
   Frank Wennmohs         : Technical directorship


 We gratefully acknowledge several colleagues who have allowed us to
 interface, adapt or use parts of their codes:
   Stefan Grimme, W. Hujo, H. Kruse, P. Pracht,  : VdW corrections, initial TS optimization,
                  C. Bannwarth, S. Ehlert          DFT functionals, gCP, sTDA/sTD-DF
   Ed Valeev, F. Pavosevic, A. Kumar             : LibInt (2-el integral package), F12 methods
   Garnet Chan, S. Sharma, J. Yang, R. Olivares  : DMRG
   Ulf Ekstrom                                   : XCFun DFT Library
   Mihaly Kallay                                 : mrcc  (arbitrary order and MRCC methods)
   Jiri Pittner, Ondrej Demel                    : Mk-CCSD
   Frank Weinhold                                : gennbo (NPA and NBO analysis)
   Christopher J. Cramer and Donald G. Truhlar   : smd solvation model
   Lars Goerigk                                  : TD-DFT with DH, B97 family of functionals
   V. Asgeirsson, H. Jonsson                     : NEB implementation
   FAccTs GmbH                                   : IRC, NEB, NEB-TS, DLPNO-Multilevel, CI-OPT
                                                   MM, QMMM, 2- and 3-layer-ONIOM, Crystal-QMMM,
                                                   LR-CPCM, SF, NACMEs, symmetry and pop. for TD-DFT,
                                                   nearIR, NL-DFT gradient (VV10), updates on ESD,
                                                   ML-optimized integration grids
   S Lehtola, MJT Oliveira, MAL Marques          : LibXC Library
   Liviu Ungur et al                             : ANISO software


 Your calculation uses the libint2 library for the computation of 2-el integrals
 For citations please refer to: http://libint.valeyev.net

 Your ORCA version has been built with support for libXC version: 5.1.0
 For citations please refer to: https://tddft.org/programs/libxc/

 This ORCA versions uses:
   CBLAS   interface :  Fast vector & matrix operations
   LAPACKE interface :  Fast linear algebra routines
   SCALAPACK package :  Parallel linear algebra routines
   Shared memory     :  Shared parallel matrices
   BLAS/LAPACK       :  OpenBLAS 0.3.15  USE64BITINT DYNAMIC_ARCH NO_AFFINITY Haswell SINGLE_THREADED
        Core in use  :  Haswell
   Copyright (c) 2011-2014, The OpenBLAS Project




***************************************
The coordinates will be read from file: 000031.xyz
***************************************


================================================================================

----- Orbital basis set information -----
Your calculation utilizes the basis: aug-cc-pVTZ 
    H, B-Ne : Obtained from the ccRepo (grant-hill.group.shef.ac.uk/ccrepo) Feb. 2017
              R. A. Kendall, T. H. Dunning, Jr., R. J. Harrison, J. Chem. Phys. 96, 6796 (1992)
         He : Obtained from the ccRepo (grant-hill.group.shef.ac.uk/ccrepo) Feb. 2017
              D. E. Woon, T. H. Dunning, Jr., J. Chem. Phys. 100, 2975 (1994)
  Li-Be, Na : Obtained from the ccRepo (grant-hill.group.shef.ac.uk/ccrepo) Feb. 2017
              B. P. Prascher, D. E. Woon, K. A. Peterson, T. H. Dunning, Jr., A. K. Wilson, Theor. Chem. Acc. 128, 69 (2011)
         Mg : Obtained from the Peterson Research Group Website (tyr0.chem.wsu.edu/~kipeters) Feb. 2017
              B. P. Prascher, D. E. Woon, K. A. Peterson, T. H. Dunning, Jr., A. K. Wilson, Theor. Chem. Acc. 128, 69 (2011)
      Al-Ar : Obtained from the ccRepo (grant-hill.group.shef.ac.uk/ccrepo) Feb. 2017
              D. E. Woon, T. H. Dunning, Jr., J. Chem. Phys. 98, 1358 (1993)
      Sc-Zn : Obtained from the ccRepo (grant-hill.group.shef.ac.uk/ccrepo) Feb. 2017
              N. B. Balabanov, K. A. Peterson, J. Chem. Phys. 123, 064107 (2005)
              N. B. Balabanov, K. A. Peterson, J. Chem. Phys. 125, 074110 (2006)
      Ga-Kr : Obtained from the ccRepo (grant-hill.group.shef.ac.uk/ccrepo) Feb. 2017
              A. K. Wilson, D. E. Woon, K. A. Peterson, T. H. Dunning, Jr., J. Chem. Phys. 110, 7667 (1999)
     Ag, Au : Obtained from the Peterson Research Group Website (tyr0.chem.wsu.edu/~kipeters) Feb. 2017
              K. A. Peterson, C. Puzzarini, Theor. Chem. Acc. 114, 283 (2005)

================================================================================
                                        WARNINGS
                       Please study these warnings very carefully!
================================================================================


WARNING: Post HF methods need fully converged wavefunctions
  ===> : Setting SCFConvForced true
         You can overwrite this default with %scf ConvForced false 


WARNING: MDCI localization with Augmented Hessian Foster-Boys
  ===> : Switching off randomization!

INFO   : the flag for use of the SHARK integral package has been found!

================================================================================
                                       INPUT FILE
================================================================================
NAME = 000031.com
|  1> !STEOM-CCSD aug-cc-pVTZ TightSCF PrintMOs
|  2> 
|  3> *xyzfile 0 1 000031.xyz
|  4> 
|  5> %MaxCore 64000
|  6> %scf
|  7>  MaxIter 150
|  8> end
|  9> 
| 10> %pal nprocs 2
| 11> end
| 12> 
| 13> %mdci
| 14>  nroots 10
| 15>  DoRootwise true
| 16> end
| 17> 
| 18>                          ****END OF INPUT****
================================================================================

                       ****************************
                       * Single Point Calculation *
                       ****************************

---------------------------------
CARTESIAN COORDINATES (ANGSTROEM)
---------------------------------
  C      0.516845    0.694830   -0.000000
  C     -0.860166    0.100195    0.000000
  C      0.343308   -0.795021   -0.000000
  H      0.866514    1.164858    0.909176
  H      0.866513    1.164859   -0.909176
  H     -1.442047    0.167964   -0.909177
  H     -1.442048    0.167965    0.909176
  H      0.575574   -1.332837   -0.909179
  H      0.575574   -1.332837    0.909179

----------------------------
CARTESIAN COORDINATES (A.U.)
----------------------------
  NO LB      ZA    FRAG     MASS         X           Y           Z
   0 C     6.0000    0    12.011    0.976696    1.313038   -0.000000
   1 C     6.0000    0    12.011   -1.625478    0.189341    0.000000
   2 C     6.0000    0    12.011    0.648758   -1.502372   -0.000000
   3 H     1.0000    0     1.008    1.637474    2.201263    1.718094
   4 H     1.0000    0     1.008    1.637472    2.201264   -1.718094
   5 H     1.0000    0     1.008   -2.725074    0.317406   -1.718096
   6 H     1.0000    0     1.008   -2.725076    0.317408    1.718094
   7 H     1.0000    0     1.008    1.087677   -2.518697   -1.718099
   8 H     1.0000    0     1.008    1.087677   -2.518697    1.718099

--------------------------------
INTERNAL COORDINATES (ANGSTROEM)
--------------------------------
 C      0   0   0     0.000000000000     0.00000000     0.00000000
 C      1   0   0     1.499916690135     0.00000000     0.00000000
 C      2   1   0     1.499920449668    60.00022609     0.00000000
 H      1   2   3     1.081570954363   117.97541256   252.14380217
 H      1   2   3     1.081571065645   117.97537814   107.85627288
 H      2   1   3     1.081564123319   117.97422744   252.14316713
 H      2   1   3     1.081563883365   117.97426548   107.85692631
 H      3   2   1     1.081572928033   117.97505764   252.14347930
 H      3   2   1     1.081572928033   117.97505764   107.85652070

---------------------------
INTERNAL COORDINATES (A.U.)
---------------------------
 C      0   0   0     0.000000000000     0.00000000     0.00000000
 C      1   0   0     2.834431768053     0.00000000     0.00000000
 C      2   1   0     2.834438872540    60.00022609     0.00000000
 H      1   2   3     2.043872898149   117.97541256   252.14380217
 H      1   2   3     2.043873108443   117.97537814   107.85627288
 H      2   1   3     2.043859989348   117.97422744   252.14316713
 H      2   1   3     2.043859535901   117.97426548   107.85692631
 H      3   2   1     2.043876627845   117.97505764   252.14347930
 H      3   2   1     2.043876627845   117.97505764   107.85652070

---------------------
BASIS SET INFORMATION
---------------------
There are 2 groups of distinct atoms

 Group   1 Type C   : 19s6p3d2f contracted to 5s4p3d2f pattern {88111/3111/111/11}
 Group   2 Type H   : 6s3p2d contracted to 4s3p2d pattern {3111/111/11}

Atom   0C    basis set group =>   1
Atom   1C    basis set group =>   1
Atom   2C    basis set group =>   1
Atom   3H    basis set group =>   2
Atom   4H    basis set group =>   2
Atom   5H    basis set group =>   2
Atom   6H    basis set group =>   2
Atom   7H    basis set group =>   2
Atom   8H    basis set group =>   2


           ************************************************************
           *        Program running with 2 parallel MPI-processes     *
           *              working on a common directory               *
           ************************************************************
------------------------------------------------------------------------------
                           ORCA GTO INTEGRAL CALCULATION
------------------------------------------------------------------------------
------------------------------------------------------------------------------
                   ___                                                        
                  /   \      - P O W E R E D   B Y -                         
                 /     \                                                     
                 |  |  |   _    _      __       _____    __    __             
                 |  |  |  | |  | |    /  \     |  _  \  |  |  /  |          
                  \  \/   | |  | |   /    \    | | | |  |  | /  /          
                 / \  \   | |__| |  /  /\  \   | |_| |  |  |/  /          
                |  |  |   |  __  | /  /__\  \  |    /   |      \           
                |  |  |   | |  | | |   __   |  |    \   |  |\   \          
                \     /   | |  | | |  |  |  |  | |\  \  |  | \   \       
                 \___/    |_|  |_| |__|  |__|  |_| \__\ |__|  \__/        
                                                                              
                      - O R C A' S   B I G   F R I E N D -                    
                                      &                                       
                       - I N T E G R A L  F E E D E R -                       
                                                                              
 v1 FN, 2020, v2 2021                                                         
------------------------------------------------------------------------------


Reading SHARK input file 000031.SHARKINP.tmp ... ok
----------------------
SHARK INTEGRAL PACKAGE
----------------------

Number of atoms                             ...      9
Number of basis functions                   ...    276
Number of shells                            ...     96
Maximum angular momentum                    ...      3
Integral batch strategy                     ... SHARK/LIBINT Hybrid
RI-J (if used) integral strategy            ... SPLIT-RIJ (Revised 2003 algorithm where possible)
Printlevel                                  ...      1
Contraction scheme used                     ... SEGMENTED contraction
Coulomb Range Separation                    ... NOT USED
Exchange Range Separation                   ... NOT USED
Finite Nucleus Model                        ... NOT USED
Auxiliary Coulomb fitting basis             ... NOT available
Auxiliary J/K fitting basis                 ... NOT available
Auxiliary Correlation fitting basis         ... NOT available
Auxiliary 'external' fitting basis          ... NOT available
Integral threshold                          ...     2.500000e-11
Primitive cut-off                           ...     2.500000e-12
Primitive pair pre-selection threshold      ...     2.500000e-12

Calculating pre-screening integrals         ... done (  0.3 sec) Dimension = 96
Organizing shell pair data                  ... done (  0.1 sec)
Shell pair information
Total number of shell pairs                 ...      4656
Shell pairs after pre-screening             ...      4656
Total number of primitive shell pairs       ...     12441
Primitive shell pairs kept                  ...     11268
          la=0 lb=0:    780 shell pairs
          la=1 lb=0:   1170 shell pairs
          la=1 lb=1:    465 shell pairs
          la=2 lb=0:    819 shell pairs
          la=2 lb=1:    630 shell pairs
          la=2 lb=2:    231 shell pairs
          la=3 lb=0:    234 shell pairs
          la=3 lb=1:    180 shell pairs
          la=3 lb=2:    126 shell pairs
          la=3 lb=3:     21 shell pairs

Calculating one electron integrals          ... done (  0.0 sec)
Calculating Nuclear repulsion               ... done (  0.0 sec) ENN=     76.015078379184 Eh

SHARK setup successfully completed in   0.4 seconds

Maximum memory used throughout the entire GTOINT-calculation: 16.0 MB


           ************************************************************
           *        Program running with 2 parallel MPI-processes     *
           *              working on a common directory               *
           ************************************************************
-------------------------------------------------------------------------------
                                 ORCA SCF
-------------------------------------------------------------------------------

------------
SCF SETTINGS
------------
Hamiltonian:
 Ab initio Hamiltonian  Method          .... Hartree-Fock(GTOs)


General Settings:
 Integral files         IntName         .... 000031
 Hartree-Fock type      HFTyp           .... RHF
 Total Charge           Charge          ....    0
 Multiplicity           Mult            ....    1
 Number of Electrons    NEL             ....   24
 Basis Dimension        Dim             ....  276
 Nuclear Repulsion      ENuc            ....     76.0150783792 Eh

Convergence Acceleration:
 DIIS                   CNVDIIS         .... on
   Start iteration      DIISMaxIt       ....    12
   Startup error        DIISStart       ....  0.200000
   # of expansion vecs  DIISMaxEq       ....     5
   Bias factor          DIISBfac        ....   1.050
   Max. coefficient     DIISMaxC        ....  10.000
 Trust-Rad. Augm. Hess. CNVTRAH         .... auto
   Auto Start mean grad. ratio tolernc. ....  1.125000
   Auto Start start iteration           ....    20
   Auto Start num. interpolation iter.  ....    10
   Max. Number of Micro iterations      ....    16
   Max. Number of Macro iterations      .... Maxiter - #DIIS iter
   Number of Davidson start vectors     ....     2
   Converg. threshold I  (grad. norm)   ....   1.000e-05
   Converg. threshold II (energy diff.) ....   1.000e-08
   Grad. Scal. Fac. for Micro threshold ....   0.100
   Minimum threshold for Micro iter.    ....   0.010
   NR start threshold (gradient norm)   ....   0.001
   Initial trust radius                 ....   0.400
   Minimum AH scaling param. (alpha)    ....   1.000
   Maximum AH scaling param. (alpha)    .... 1000.000
   Orbital update algorithm             .... Taylor
   White noise on init. David. guess    .... on
   Maximum white noise                  ....   0.010
   Quad. conv. algorithm                .... NR
 SOSCF                  CNVSOSCF        .... on
   Start iteration      SOSCFMaxIt      ....   150
   Startup grad/error   SOSCFStart      ....  0.003300
 Level Shifting         CNVShift        .... on
   Level shift para.    LevelShift      ....    0.2500
   Turn off err/grad.   ShiftErr        ....    0.0010
 Zerner damping         CNVZerner       .... off
 Static damping         CNVDamp         .... on
   Fraction old density DampFac         ....    0.7000
   Max. Damping (<1)    DampMax         ....    0.9800
   Min. Damping (>=0)   DampMin         ....    0.0000
   Turn off err/grad.   DampErr         ....    0.1000
 Fernandez-Rico         CNVRico         .... off

SCF Procedure:
 Maximum # iterations   MaxIter         ....   150
 SCF integral mode      SCFMode         .... Direct
   Integral package                     .... SHARK and LIBINT hybrid scheme
 Reset frequency        DirectResetFreq ....    20
 Integral Threshold     Thresh          ....  2.500e-11 Eh
 Primitive CutOff       TCut            ....  2.500e-12 Eh

Convergence Tolerance:
 Convergence Check Mode ConvCheckMode   .... Total+1el-Energy
 Convergence forced     ConvForced      .... 1
 Energy Change          TolE            ....  1.000e-08 Eh
 1-El. energy change                    ....  1.000e-05 Eh
 Orbital Gradient       TolG            ....  1.000e-05
 Orbital Rotation angle TolX            ....  1.000e-05
 DIIS Error             TolErr          ....  5.000e-07


Diagonalization of the overlap matrix:
Smallest eigenvalue                        ... 1.548e-05
Time for diagonalization                   ...    0.030 sec
Threshold for overlap eigenvalues          ... 1.000e-08
Number of eigenvalues below threshold      ... 0
Time for construction of square roots      ...    0.011 sec
Total time needed                          ...    0.042 sec

Time for model grid setup =    0.125 sec

------------------------------
INITIAL GUESS: MODEL POTENTIAL
------------------------------
Loading Hartree-Fock densities                     ... done
Calculating cut-offs                               ... done
Initializing the effective Hamiltonian             ... done
Setting up the integral package (SHARK)            ... done
Starting the Coulomb interaction                   ... done (   0.1 sec)
Reading the grid                                   ... done
Mapping shells                                     ... done
Starting the XC term evaluation                    ... done (   0.1 sec)
Transforming the Hamiltonian                       ... done (   0.0 sec)
Diagonalizing the Hamiltonian                      ... done (   0.0 sec)
Back transforming the eigenvectors                 ... done (   0.0 sec)
Now organizing SCF variables                       ... done
                      ------------------
                      INITIAL GUESS DONE (   0.4 sec)
                      ------------------
--------------
SCF ITERATIONS
--------------
ITER       Energy         Delta-E        Max-DP      RMS-DP      [F,P]     Damp
               ***  Starting incremental Fock matrix formation  ***
  0   -116.9116967665   0.000000000000 0.04651221  0.00075083  0.2271938 0.7000
  1   -116.9800569894  -0.068360222910 0.03504941  0.00057340  0.1480622 0.7000
                               ***Turning on DIIS***
  2   -117.0205229507  -0.040465961216 0.08616998  0.00136746  0.0916952 0.0000
  3   -116.7343873208   0.286135629890 0.01216542  0.00028970  0.0311375 0.0000
  4   -117.0657620943  -0.331374773488 0.00576326  0.00014781  0.0056429 0.0000
                      *** Initiating the SOSCF procedure ***
                           *** Shutting down DIIS ***
                      *** Re-Reading the Fockian *** 
                      *** Removing any level shift *** 
ITER      Energy       Delta-E        Grad      Rot      Max-DP    RMS-DP
  5   -117.09132778  -0.0255656895  0.001269  0.001269  0.001942  0.000054
               *** Restarting incremental Fock matrix formation ***
  6   -117.10188757  -0.0105597849  0.000420  0.000725  0.000828  0.000021
  7   -117.10189438  -0.0000068065  0.000152  0.000423  0.000555  0.000015
  8   -117.10189567  -0.0000012925  0.000052  0.000052  0.000062  0.000002
  9   -117.10189574  -0.0000000715  0.000008  0.000010  0.000012  0.000000
                  ***Gradient check signals convergence***
              ***Rediagonalizing the Fockian in SOSCF/NRSCF***

               *****************************************************
               *                     SUCCESS                       *
               *           SCF CONVERGED AFTER  10 CYCLES          *
               *****************************************************


----------------
TOTAL SCF ENERGY
----------------

Total Energy       :         -117.10189574 Eh           -3186.50458 eV

Components:
Nuclear Repulsion  :           76.01507838 Eh            2068.47544 eV
Electronic Energy  :         -193.11697412 Eh           -5254.98002 eV
One Electron Energy:         -307.05062683 Eh           -8355.27233 eV
Two Electron Energy:          113.93365271 Eh            3100.29231 eV

Virial components:
Potential Energy   :         -234.06133687 Eh           -6369.13278 eV
Kinetic Energy     :          116.95944113 Eh            3182.62819 eV
Virial Ratio       :            2.00121798


---------------
SCF CONVERGENCE
---------------

  Last Energy change         ...   -2.0636e-09  Tolerance :   1.0000e-08
  Last MAX-Density change    ...    4.6392e-06  Tolerance :   1.0000e-07
  Last RMS-Density change    ...    1.0559e-07  Tolerance :   5.0000e-09
  Last Orbital Gradient      ...    1.5534e-06  Tolerance :   1.0000e-05
  Last Orbital Rotation      ...    2.4232e-06  Tolerance :   1.0000e-05

             **** THE GBW FILE WAS UPDATED (000031.gbw) ****
             **** DENSITY 000031.scfp WAS UPDATED ****
             **** ENERGY FILE WAS UPDATED (000031.en.tmp) ****
             **** THE GBW FILE WAS UPDATED (000031.gbw) ****
             **** DENSITY 000031.scfp WAS UPDATED ****
----------------
ORBITAL ENERGIES
----------------

  NO   OCC          E(Eh)            E(eV) 
   0   2.0000     -11.222206      -305.3717 
   1   2.0000     -11.221163      -305.3434 
   2   2.0000     -11.221163      -305.3434 
   3   2.0000      -1.133425       -30.8421 
   4   2.0000      -0.817512       -22.2456 
   5   2.0000      -0.817508       -22.2455 
   6   2.0000      -0.668255       -18.1841 
   7   2.0000      -0.627985       -17.0883 
   8   2.0000      -0.511307       -13.9134 
   9   2.0000      -0.511302       -13.9132 
  10   2.0000      -0.419913       -11.4264 
  11   2.0000      -0.419905       -11.4262 
  12   0.0000       0.033108         0.9009 
  13   0.0000       0.040402         1.0994 
  14   0.0000       0.041953         1.1416 
  15   0.0000       0.041953         1.1416 
  16   0.0000       0.061702         1.6790 
  17   0.0000       0.061703         1.6790 
  18   0.0000       0.098148         2.6708 
  19   0.0000       0.098149         2.6708 
  20   0.0000       0.098154         2.6709 
  21   0.0000       0.124939         3.3998 
  22   0.0000       0.124940         3.3998 
  23   0.0000       0.133348         3.6286 
  24   0.0000       0.141706         3.8560 
  25   0.0000       0.148476         4.0402 
  26   0.0000       0.165572         4.5054 
  27   0.0000       0.165573         4.5055 
  28   0.0000       0.184729         5.0267 
  29   0.0000       0.184729         5.0267 
  30   0.0000       0.248927         6.7737 
  31   0.0000       0.250937         6.8283 
  32   0.0000       0.250937         6.8284 
  33   0.0000       0.262092         7.1319 
  34   0.0000       0.282384         7.6840 
  35   0.0000       0.290768         7.9122 
  36   0.0000       0.294073         8.0021 
  37   0.0000       0.294074         8.0022 
  38   0.0000       0.326029         8.8717 
  39   0.0000       0.326031         8.8718 
  40   0.0000       0.344054         9.3622 
  41   0.0000       0.345078         9.3901 
  42   0.0000       0.356935         9.7127 
  43   0.0000       0.356935         9.7127 
  44   0.0000       0.375266        10.2115 
  45   0.0000       0.375267        10.2115 
  46   0.0000       0.388804        10.5799 
  47   0.0000       0.388805        10.5799 
  48   0.0000       0.404718        11.0129 
  49   0.0000       0.415159        11.2970 
  50   0.0000       0.416969        11.3463 
  51   0.0000       0.416970        11.3463 
  52   0.0000       0.438836        11.9413 
  53   0.0000       0.439890        11.9700 
  54   0.0000       0.439891        11.9701 
  55   0.0000       0.455226        12.3873 
  56   0.0000       0.483344        13.1524 
  57   0.0000       0.509462        13.8632 
  58   0.0000       0.509463        13.8632 
  59   0.0000       0.510908        13.9025 
  60   0.0000       0.514057        13.9882 
  61   0.0000       0.516471        14.0539 
  62   0.0000       0.516474        14.0540 
  63   0.0000       0.524927        14.2840 
  64   0.0000       0.524928        14.2840 
  65   0.0000       0.545064        14.8320 
  66   0.0000       0.545066        14.8320 
  67   0.0000       0.608364        16.5544 
  68   0.0000       0.608374        16.5547 
  69   0.0000       0.609862        16.5952 
  70   0.0000       0.609865        16.5953 
  71   0.0000       0.651013        17.7150 
  72   0.0000       0.668271        18.1846 
  73   0.0000       0.695825        18.9344 
  74   0.0000       0.750715        20.4280 
  75   0.0000       0.750715        20.4280 
  76   0.0000       0.791818        21.5465 
  77   0.0000       0.791823        21.5466 
  78   0.0000       0.827024        22.5045 
  79   0.0000       0.848592        23.0914 
  80   0.0000       0.886276        24.1168 
  81   0.0000       0.886276        24.1168 
  82   0.0000       0.888521        24.1779 
  83   0.0000       0.897234        24.4150 
  84   0.0000       0.897236        24.4150 
  85   0.0000       0.930703        25.3257 
  86   0.0000       0.936379        25.4802 
  87   0.0000       0.936382        25.4802 
  88   0.0000       0.949381        25.8340 
  89   0.0000       0.958795        26.0901 
  90   0.0000       0.958796        26.0902 
  91   0.0000       0.982893        26.7459 
  92   0.0000       0.982899        26.7460 
  93   0.0000       0.996386        27.1130 
  94   0.0000       1.012028        27.5387 
  95   0.0000       1.012363        27.5478 
  96   0.0000       1.012369        27.5480 
  97   0.0000       1.047370        28.5004 
  98   0.0000       1.066982        29.0341 
  99   0.0000       1.066986        29.0342 
 100   0.0000       1.096495        29.8372 
 101   0.0000       1.096495        29.8372 
 102   0.0000       1.108162        30.1546 
 103   0.0000       1.108163        30.1547 
 104   0.0000       1.116649        30.3856 
 105   0.0000       1.127563        30.6825 
 106   0.0000       1.169028        31.8109 
 107   0.0000       1.169030        31.8109 
 108   0.0000       1.176810        32.0226 
 109   0.0000       1.229242        33.4494 
 110   0.0000       1.229245        33.4495 
 111   0.0000       1.241996        33.7964 
 112   0.0000       1.242001        33.7966 
 113   0.0000       1.248852        33.9830 
 114   0.0000       1.309813        35.6418 
 115   0.0000       1.309820        35.6420 
 116   0.0000       1.369012        37.2527 
 117   0.0000       1.375524        37.4299 
 118   0.0000       1.379590        37.5406 
 119   0.0000       1.392897        37.9027 
 120   0.0000       1.392907        37.9029 
 121   0.0000       1.393806        37.9274 
 122   0.0000       1.393815        37.9276 
 123   0.0000       1.442459        39.2513 
 124   0.0000       1.533652        41.7328 
 125   0.0000       1.533654        41.7329 
 126   0.0000       1.559482        42.4357 
 127   0.0000       1.559484        42.4357 
 128   0.0000       1.560427        42.4614 
 129   0.0000       1.581555        43.0363 
 130   0.0000       1.581559        43.0364 
 131   0.0000       1.581659        43.0391 
 132   0.0000       1.650259        44.9058 
 133   0.0000       1.650260        44.9059 
 134   0.0000       1.683483        45.8099 
 135   0.0000       1.683536        45.8113 
 136   0.0000       1.721037        46.8318 
 137   0.0000       1.745513        47.4978 
 138   0.0000       1.757582        47.8262 
 139   0.0000       1.757584        47.8263 
 140   0.0000       1.843740        50.1707 
 141   0.0000       1.843748        50.1709 
 142   0.0000       1.871990        50.9394 
 143   0.0000       1.871998        50.9397 
 144   0.0000       1.886261        51.3278 
 145   0.0000       1.887392        51.3585 
 146   0.0000       1.910353        51.9834 
 147   0.0000       1.910358        51.9835 
 148   0.0000       1.959782        53.3284 
 149   0.0000       1.960786        53.3557 
 150   0.0000       1.960797        53.3560 
 151   0.0000       2.027646        55.1750 
 152   0.0000       2.027653        55.1752 
 153   0.0000       2.039543        55.4988 
 154   0.0000       2.057145        55.9778 
 155   0.0000       2.057149        55.9779 
 156   0.0000       2.093690        56.9722 
 157   0.0000       2.103391        57.2362 
 158   0.0000       2.146233        58.4020 
 159   0.0000       2.217757        60.3482 
 160   0.0000       2.217780        60.3489 
 161   0.0000       2.230398        60.6922 
 162   0.0000       2.230427        60.6930 
 163   0.0000       2.337888        63.6172 
 164   0.0000       2.337891        63.6172 
 165   0.0000       2.394060        65.1457 
 166   0.0000       2.394079        65.1462 
 167   0.0000       2.402210        65.3674 
 168   0.0000       2.481030        67.5123 
 169   0.0000       2.481033        67.5123 
 170   0.0000       2.554968        69.5242 
 171   0.0000       2.568728        69.8986 
 172   0.0000       2.624816        71.4249 
 173   0.0000       2.624825        71.4251 
 174   0.0000       2.946111        80.1677 
 175   0.0000       3.086738        83.9944 
 176   0.0000       3.200109        87.0794 
 177   0.0000       3.200125        87.0798 
 178   0.0000       3.313289        90.1592 
 179   0.0000       3.313311        90.1598 
 180   0.0000       3.376717        91.8851 
 181   0.0000       3.409050        92.7650 
 182   0.0000       3.409075        92.7657 
 183   0.0000       3.438336        93.5619 
 184   0.0000       3.475843        94.5825 
 185   0.0000       3.554609        96.7258 
 186   0.0000       3.607538        98.1661 
 187   0.0000       3.633444        98.8710 
 188   0.0000       3.633459        98.8714 
 189   0.0000       3.638466        99.0077 
 190   0.0000       3.638472        99.0079 
 191   0.0000       3.683514       100.2335 
 192   0.0000       3.683523       100.2338 
 193   0.0000       3.691629       100.4543 
 194   0.0000       3.719916       101.2241 
 195   0.0000       3.719924       101.2243 
 196   0.0000       3.734037       101.6083 
 197   0.0000       3.819552       103.9353 
 198   0.0000       3.825242       104.0901 
 199   0.0000       3.825246       104.0902 
 200   0.0000       3.894376       105.9714 
 201   0.0000       3.894390       105.9717 
 202   0.0000       3.923422       106.7617 
 203   0.0000       3.985634       108.4546 
 204   0.0000       4.032382       109.7267 
 205   0.0000       4.032862       109.7398 
 206   0.0000       4.032865       109.7398 
 207   0.0000       4.075417       110.8977 
 208   0.0000       4.075432       110.8982 
 209   0.0000       4.129065       112.3576 
 210   0.0000       4.129081       112.3580 
 211   0.0000       4.156536       113.1051 
 212   0.0000       4.156561       113.1058 
 213   0.0000       4.204591       114.4127 
 214   0.0000       4.214121       114.6721 
 215   0.0000       4.319896       117.5503 
 216   0.0000       4.333207       117.9126 
 217   0.0000       4.333209       117.9126 
 218   0.0000       4.380793       119.2074 
 219   0.0000       4.380804       119.2077 
 220   0.0000       4.383425       119.2791 
 221   0.0000       4.383438       119.2794 
 222   0.0000       4.434763       120.6760 
 223   0.0000       4.510009       122.7236 
 224   0.0000       4.510025       122.7240 
 225   0.0000       4.558843       124.0524 
 226   0.0000       4.685167       127.4899 
 227   0.0000       4.781935       130.1231 
 228   0.0000       4.781935       130.1231 
 229   0.0000       4.816286       131.0578 
 230   0.0000       4.816288       131.0579 
 231   0.0000       4.855573       132.1269 
 232   0.0000       4.868933       132.4904 
 233   0.0000       4.868951       132.4909 
 234   0.0000       4.906854       133.5223 
 235   0.0000       4.906879       133.5230 
 236   0.0000       4.938998       134.3970 
 237   0.0000       4.939002       134.3971 
 238   0.0000       4.989184       135.7626 
 239   0.0000       5.003610       136.1552 
 240   0.0000       5.003618       136.1554 
 241   0.0000       5.194534       141.3504 
 242   0.0000       5.203310       141.5893 
 243   0.0000       5.215365       141.9173 
 244   0.0000       5.215376       141.9176 
 245   0.0000       5.237540       142.5207 
 246   0.0000       5.337868       145.2508 
 247   0.0000       5.382208       146.4573 
 248   0.0000       5.382215       146.4575 
 249   0.0000       5.470982       148.8730 
 250   0.0000       5.471021       148.8741 
 251   0.0000       5.569681       151.5587 
 252   0.0000       5.569684       151.5588 
 253   0.0000       5.624161       153.0412 
 254   0.0000       5.686527       154.7383 
 255   0.0000       5.700492       155.1183 
 256   0.0000       5.719684       155.6405 
 257   0.0000       5.719704       155.6411 
 258   0.0000       5.726228       155.8186 
 259   0.0000       5.771837       157.0597 
 260   0.0000       5.964828       162.3112 
 261   0.0000       5.964830       162.3113 
 262   0.0000       6.053423       164.7220 
 263   0.0000       6.168907       167.8645 
 264   0.0000       6.366029       173.2285 
 265   0.0000       6.366036       173.2287 
 266   0.0000       6.442901       175.3203 
 267   0.0000       6.442929       175.3210 
 268   0.0000       6.497327       176.8013 
 269   0.0000       6.544962       178.0975 
 270   0.0000       6.545027       178.0992 
 271   0.0000       6.786133       184.6601 
 272   0.0000       6.786142       184.6603 
 273   0.0000      16.867944       459.0001 
 274   0.0000      17.466052       475.2754 
 275   0.0000      17.466114       475.2771 
------------------
MOLECULAR ORBITALS
------------------
                      0         1         2         3         4         5   
                 -11.22221 -11.22116 -11.22116  -1.13342  -0.81751  -0.81751
                   2.00000   2.00000   2.00000   2.00000   2.00000   2.00000
                  --------  --------  --------  --------  --------  --------
  0C   1s         0.565546 -0.501874 -0.622738  0.012264  0.004442 -0.005849
  0C   2s         0.002660 -0.001817 -0.002255 -0.280148 -0.210399  0.277062
  0C   3s         0.024831 -0.021620 -0.026827 -0.051734 -0.041707  0.054922
  0C   4s         0.002915  0.011598  0.014402 -0.164153 -0.167077  0.220021
  0C   5s         0.000765  0.000849  0.001055 -0.005889  0.005285 -0.006954
  0C   1pz       -0.000000  0.000000 -0.000000 -0.000000 -0.000000  0.000000
  0C   1px       -0.000386  0.000052  0.000321  0.035942 -0.066707  0.002138
  0C   1py       -0.000519  0.000332  0.000221  0.048319 -0.003477  0.068330
  0C   2pz        0.000000 -0.000000 -0.000000 -0.000000 -0.000000  0.000000
  0C   2px       -0.000607 -0.001883 -0.000117  0.030823 -0.084403 -0.000858
  0C   2py       -0.000815 -0.000266 -0.001982  0.041439 -0.000815  0.084389
  0C   3pz        0.000000  0.000000  0.000000  0.000000 -0.000000  0.000000
  0C   3px        0.000520 -0.001814  0.000689 -0.004015 -0.039429  0.002628
  0C   3py        0.000700  0.000561 -0.001491 -0.005396 -0.003428  0.041179
  0C   4pz       -0.000000  0.000000  0.000000  0.000000  0.000000 -0.000000
  0C   4px       -0.000056 -0.000209  0.000081 -0.001741 -0.005125  0.001791
  0C   4py       -0.000075  0.000066 -0.000172 -0.002341 -0.001904  0.006194
  0C   1dz2       0.000072 -0.000158 -0.000196  0.003622 -0.004761  0.006270
  0C   1dxz       0.000000 -0.000000 -0.000000 -0.000000 -0.000000  0.000000
  0C   1dyz      -0.000000  0.000000  0.000000  0.000000  0.000000 -0.000000
  0C   1dx2y2    -0.000121  0.000184  0.000020  0.002400  0.007084  0.004385
  0C   1dxy       0.000403 -0.000243 -0.000364 -0.007994  0.000387  0.003608
  0C   2dz2       0.000673 -0.000281 -0.000348  0.002129 -0.010692  0.014081
  0C   2dxz       0.000000 -0.000000  0.000000 -0.000000 -0.000000  0.000000
  0C   2dyz      -0.000000 -0.000000  0.000000  0.000000  0.000000 -0.000000
  0C   2dx2y2     0.000295 -0.000662 -0.000010  0.004293  0.018077  0.006259
  0C   2dxy      -0.000982  0.000766  0.001194 -0.014301 -0.007634  0.019079
  0C   3dz2       0.000792 -0.000342 -0.000424 -0.005047 -0.004159  0.005478
  0C   3dxz       0.000000 -0.000000 -0.000000 -0.000000 -0.000000 -0.000000
  0C   3dyz       0.000000 -0.000000  0.000000  0.000000 -0.000000 -0.000000
  0C   3dx2y2     0.000108  0.000271 -0.000201 -0.001140  0.004916  0.000072
  0C   3dxy      -0.000358  0.000050 -0.000100  0.003797 -0.004925  0.008451
  0C   1f0        0.000000 -0.000000  0.000000  0.000000 -0.000000  0.000000
  0C   1f+1       0.000154 -0.000483 -0.000367 -0.004882 -0.001315  0.003002
  0C   1f-1       0.000208 -0.000412 -0.000684 -0.006563 -0.003046  0.003065
  0C   1f+2       0.000000 -0.000000 -0.000000 -0.000000 -0.000000  0.000000
  0C   1f-2       0.000000 -0.000000 -0.000000 -0.000000 -0.000000  0.000000
  0C   1f+3      -0.000024 -0.000215 -0.000175  0.000074 -0.000717  0.002006
  0C   1f-3       0.000008 -0.000062  0.000176 -0.000027  0.001856  0.000485
  0C   2f0        0.000000 -0.000000  0.000000  0.000000 -0.000000  0.000000
  0C   2f+1      -0.000651  0.001073  0.001861 -0.003433 -0.003024  0.005676
  0C   2f-1      -0.000875  0.001982  0.002066 -0.004615 -0.005769  0.006336
  0C   2f+2      -0.000000  0.000000  0.000000  0.000000 -0.000000  0.000000
  0C   2f-2      -0.000000  0.000000 -0.000000 -0.000000  0.000000  0.000000
  0C   2f+3       0.000141 -0.000017  0.000328  0.000798  0.002760 -0.004138
  0C   2f-3      -0.000051 -0.000526  0.000310 -0.000289 -0.001756  0.000927
  1C   1s         0.565800  0.790097 -0.123040  0.012264 -0.007286 -0.000922
  1C   2s         0.002661  0.002861 -0.000445 -0.280150  0.345140  0.043680
  1C   3s         0.024842  0.034036 -0.005300 -0.051735  0.068417  0.008659
  1C   4s         0.002909 -0.018271  0.002847 -0.164158  0.274075  0.034686
  1C   5s         0.000764 -0.001338  0.000209 -0.005884 -0.008669 -0.001096
  1C   1pz        0.000000 -0.000000  0.000000  0.000000  0.000000  0.000000
  1C   1px        0.000643  0.000462 -0.000095 -0.059816 -0.070356 -0.001370
  1C   1py       -0.000075 -0.000085 -0.000188  0.006967  0.000029  0.064681
  1C   2pz       -0.000000  0.000000 -0.000000 -0.000000  0.000000  0.000000
  1C   2px        0.001009 -0.002123  0.000128 -0.051298 -0.084373 -0.000833
  1C   2py       -0.000117 -0.000022 -0.001742  0.005975 -0.000844  0.084417
  1C   3pz       -0.000000 -0.000000 -0.000000 -0.000000  0.000000 -0.000000
  1C   3px       -0.000866 -0.001030 -0.000109  0.006676 -0.043367 -0.001155
  1C   3py        0.000101 -0.000236 -0.002275 -0.000778  0.000355  0.037244
  1C   4pz        0.000000 -0.000000 -0.000000 -0.000000 -0.000000  0.000000
  1C   4px        0.000092 -0.000118 -0.000013  0.002899 -0.007528 -0.000517
  1C   4py       -0.000011 -0.000027 -0.000263 -0.000338  0.000405  0.003792
  1C   1dz2       0.000072  0.000249 -0.000039  0.003622  0.007810  0.000988
  1C   1dxz      -0.000000 -0.000000  0.000000  0.000000 -0.000000 -0.000000
  1C   1dyz       0.000000  0.000000 -0.000000 -0.000000  0.000000  0.000000
  1C   1dx2y2     0.000410  0.000432 -0.000099 -0.008123  0.002410  0.002311
  1C   1dxy      -0.000097 -0.000124 -0.000115  0.001918 -0.001686  0.008281
  1C   2dz2       0.000674  0.000441 -0.000069  0.002129  0.017541  0.002220
  1C   2dxz       0.000000  0.000000  0.000000  0.000000 -0.000000 -0.000000
  1C   2dyz       0.000000 -0.000000  0.000000 -0.000000  0.000000  0.000000
  1C   2dx2y2    -0.000998 -0.001397  0.000341 -0.014532  0.019424  0.006856
  1C   2dxy       0.000236  0.000414  0.000459  0.003432 -0.007036  0.017732
  1C   3dz2       0.000792  0.000538 -0.000084 -0.005045  0.006824  0.000864
  1C   3dxz       0.000000  0.000000  0.000000  0.000000 -0.000000 -0.000000
  1C   3dyz       0.000000 -0.000000 -0.000000 -0.000000  0.000000  0.000000
  1C   3dx2y2    -0.000364  0.000034 -0.000087  0.003857  0.009668  0.002181
  1C   3dxy       0.000086 -0.000064 -0.000337 -0.000911 -0.002816  0.003698
  1C   1f0       -0.000000 -0.000000 -0.000000  0.000000 -0.000000 -0.000000
  1C   1f+1      -0.000257 -0.000972  0.000130  0.008125 -0.005246 -0.000776
  1C   1f-1       0.000030  0.000085 -0.000196 -0.000946  0.000732 -0.000866
  1C   1f+2       0.000000  0.000000  0.000000 -0.000000  0.000000  0.000000
  1C   1f-2      -0.000000 -0.000000  0.000000  0.000000 -0.000000 -0.000000
  1C   1f+3      -0.000023  0.000259 -0.000099  0.000074  0.002096 -0.000382
  1C   1f-3       0.000009 -0.000122 -0.000141 -0.000027 -0.000508 -0.001850
  1C   2f0       -0.000000  0.000000 -0.000000 -0.000000 -0.000000 -0.000000
  1C   2f+1       0.001084  0.003481 -0.000591  0.005713 -0.010464 -0.001473
  1C   2f-1      -0.000126 -0.000470 -0.000342 -0.000665  0.001380 -0.001104
  1C   2f+2      -0.000000 -0.000000  0.000000  0.000000  0.000000 -0.000000
  1C   2f-2       0.000000  0.000000 -0.000000 -0.000000 -0.000000  0.000000
  1C   2f+3       0.000141 -0.000276 -0.000179  0.000798 -0.004963 -0.000322
  1C   2f-3      -0.000051 -0.000005 -0.000611 -0.000289  0.001681  0.001057
  2C   1s         0.565426 -0.288639  0.745992  0.012264  0.002845  0.006771
  2C   2s         0.002659 -0.001045  0.002701 -0.280146 -0.134744 -0.320742
  2C   3s         0.024826 -0.012434  0.032136 -0.051734 -0.026710 -0.063581
  2C   4s         0.002919  0.006669 -0.017247 -0.164151 -0.106998 -0.254709
  2C   5s         0.000765  0.000488 -0.001263 -0.005889  0.003384  0.008050
  2C   1pz        0.000000 -0.000000  0.000000  0.000000 -0.000000  0.000000
  2C   1px       -0.000256 -0.000104 -0.000242  0.023874 -0.065494 -0.002779
  2C   1py        0.000594 -0.000231  0.000377 -0.055286  0.001436  0.069543
  2C   2pz       -0.000000  0.000000 -0.000000  0.000000 -0.000000  0.000000
  2C   2px       -0.000403 -0.001791  0.000213  0.020474 -0.084412 -0.000823
  2C   2py        0.000933  0.000064 -0.002073 -0.047414 -0.000855  0.084379
  2C   3pz        0.000000  0.000000  0.000000  0.000000 -0.000000  0.000000
  2C   3px        0.000345 -0.002113 -0.000389 -0.002667 -0.038121 -0.002674
  2C   3py       -0.000800 -0.000516 -0.001193  0.006175  0.001873  0.042487
  2C   4pz       -0.000000  0.000000  0.000000  0.000000  0.000000 -0.000000
  2C   4px       -0.000037 -0.000244 -0.000046 -0.001156 -0.004328 -0.001442
  2C   4py        0.000086 -0.000060 -0.000137  0.002679  0.001331  0.006992
  2C   1dz2       0.000072 -0.000091  0.000235  0.003622 -0.003049 -0.007258
  2C   1dxz       0.000000 -0.000000  0.000000  0.000000 -0.000000  0.000000
  2C   1dyz       0.000000  0.000000  0.000000  0.000000 -0.000000  0.000000
  2C   1dx2y2    -0.000289  0.000205 -0.000255  0.005723  0.006543 -0.000700
  2C   1dxy      -0.000307  0.000032 -0.000342  0.006076 -0.004697  0.004149
  2C   2dz2       0.000673 -0.000161  0.000417  0.002129 -0.006848 -0.016301
  2C   2dxz      -0.000000 -0.000000 -0.000000  0.000000 -0.000000 -0.000000
  2C   2dyz       0.000000  0.000000  0.000000 -0.000000  0.000000 -0.000000
  2C   2dx2y2     0.000703 -0.000726  0.000802  0.010237  0.018233  0.007724
  2C   2dxy       0.000746 -0.000047  0.001132  0.010869 -0.006169  0.018924
  2C   3dz2       0.000792 -0.000197  0.000508 -0.005047 -0.002664 -0.006342
  2C   3dxz      -0.000000  0.000000  0.000000  0.000000 -0.000000 -0.000000
  2C   3dyz      -0.000000 -0.000000 -0.000000  0.000000  0.000000 -0.000000
  2C   3dx2y2     0.000256  0.000251  0.000062 -0.002718  0.005466  0.005243
  2C   3dxy       0.000272 -0.000212 -0.000120 -0.002886  0.000245  0.007901
  2C   1f0        0.000000  0.000000  0.000000  0.000000  0.000000 -0.000000
  2C   1f+1       0.000103 -0.000297  0.000305 -0.003243 -0.000009 -0.002292
  2C   1f-1      -0.000238  0.000260 -0.000871  0.007510  0.002248  0.004371
  2C   1f+2      -0.000000  0.000000  0.000000 -0.000000  0.000000 -0.000000
  2C   1f-2       0.000000  0.000000  0.000000  0.000000  0.000000 -0.000000
  2C   1f+3      -0.000024 -0.000044  0.000274  0.000074 -0.001379 -0.001624
  2C   1f-3       0.000009  0.000183 -0.000035 -0.000027 -0.001348  0.001365
  2C   2f0        0.000000  0.000000  0.000000  0.000000 -0.000000 -0.000000
  2C   2f+1      -0.000432  0.000155 -0.001452 -0.002280 -0.000553 -0.004342
  2C   2f-1       0.001000 -0.001330  0.002985  0.005280  0.004249  0.008807
  2C   2f+2       0.000000 -0.000000 -0.000000 -0.000000  0.000000 -0.000000
  2C   2f-2      -0.000000  0.000000  0.000000  0.000000  0.000000 -0.000000
  2C   2f+3       0.000142  0.000293 -0.000150  0.000797  0.002203  0.004459
  2C   2f-3      -0.000051  0.000531  0.000301 -0.000289  0.000075 -0.001984
  3H   1s         0.000226 -0.000072 -0.000089 -0.031300 -0.056173  0.073970
  3H   2s         0.000693 -0.002444 -0.003034 -0.009843 -0.053814  0.070862
  3H   3s        -0.002092 -0.001058 -0.001315  0.030880  0.012580 -0.016566
  3H   4s        -0.000088  0.000063  0.000078  0.001350  0.003186 -0.004195
  3H   1pz        0.000107 -0.000167 -0.000207  0.001727  0.004896 -0.006447
  3H   1px        0.000025 -0.000066 -0.000068  0.001129  0.000756 -0.002552
  3H   1py        0.000033 -0.000075 -0.000103  0.001517  0.002581 -0.002241
  3H   2pz        0.000019 -0.000289 -0.000358 -0.008860  0.000423 -0.000557
  3H   2px        0.000378  0.000161 -0.000447 -0.000781 -0.003507 -0.001372
  3H   2py        0.000508 -0.000444 -0.000069 -0.001049  0.001310  0.002731
  3H   3pz        0.000101  0.000171  0.000212 -0.009787 -0.007424  0.009775
  3H   3px        0.000455  0.000157 -0.000160 -0.005552 -0.001863  0.003017
  3H   3py        0.000611 -0.000152  0.000077 -0.007463 -0.003071  0.003624
  3H   1dz2      -0.000009  0.000116  0.000144  0.000870 -0.000736  0.000969
  3H   1dxz      -0.000102  0.000054  0.000138  0.000065 -0.000113  0.000851
  3H   1dyz      -0.000137  0.000145  0.000127  0.000087 -0.000858  0.000607
  3H   1dx2y2     0.000023 -0.000098  0.000050  0.000187  0.000567  0.000313
  3H   1dxy      -0.000077  0.000021  0.000078 -0.000623 -0.000035  0.000364
  3H   2dz2       0.000119  0.000248  0.000308  0.002800  0.001166 -0.001535
  3H   2dxz      -0.000062  0.000095  0.000096  0.001931  0.001742 -0.000678
  3H   2dyz      -0.000083  0.000106  0.000148  0.002596  0.000716 -0.002146
  3H   2dx2y2     0.000103 -0.000315  0.000063 -0.000036 -0.000098 -0.000369
  3H   2dxy      -0.000344  0.000244  0.000439  0.000121 -0.000544  0.000567
  4H   1s         0.000226 -0.000072 -0.000089 -0.031300 -0.056173  0.073970
  4H   2s         0.000693 -0.002444 -0.003034 -0.009843 -0.053814  0.070863
  4H   3s        -0.002092 -0.001059 -0.001315  0.030880  0.012580 -0.016566
  4H   4s        -0.000088  0.000063  0.000078  0.001350  0.003186 -0.004195
  4H   1pz       -0.000107  0.000167  0.000207 -0.001727 -0.004896  0.006447
  4H   1px        0.000025 -0.000066 -0.000068  0.001129  0.000756 -0.002552
  4H   1py        0.000033 -0.000075 -0.000103  0.001517  0.002581 -0.002241
  4H   2pz       -0.000019  0.000289  0.000358  0.008860 -0.000423  0.000557
  4H   2px        0.000378  0.000161 -0.000447 -0.000781 -0.003507 -0.001372
  4H   2py        0.000508 -0.000444 -0.000069 -0.001049  0.001310  0.002731
  4H   3pz       -0.000101 -0.000171 -0.000212  0.009787  0.007423 -0.009775
  4H   3px        0.000455  0.000157 -0.000160 -0.005552 -0.001863  0.003017
  4H   3py        0.000611 -0.000152  0.000077 -0.007463 -0.003071  0.003624
  4H   1dz2      -0.000009  0.000116  0.000144  0.000870 -0.000736  0.000969
  4H   1dxz       0.000102 -0.000054 -0.000138 -0.000065  0.000113 -0.000851
  4H   1dyz       0.000137 -0.000145 -0.000127 -0.000087  0.000858 -0.000607
  4H   1dx2y2     0.000023 -0.000098  0.000050  0.000187  0.000567  0.000313
  4H   1dxy      -0.000077  0.000021  0.000078 -0.000623 -0.000035  0.000364
  4H   2dz2       0.000119  0.000248  0.000308  0.002800  0.001166 -0.001535
  4H   2dxz       0.000062 -0.000095 -0.000096 -0.001931 -0.001742  0.000678
  4H   2dyz       0.000083 -0.000106 -0.000148 -0.002596 -0.000716  0.002146
  4H   2dx2y2     0.000103 -0.000315  0.000063 -0.000036 -0.000098 -0.000369
  4H   2dxy      -0.000344  0.000244  0.000439  0.000121 -0.000544  0.000567
  5H   1s         0.000226  0.000113 -0.000018 -0.031301  0.092146  0.011662
  5H   2s         0.000695  0.003849 -0.000600 -0.009843  0.088276  0.011172
  5H   3s        -0.002091  0.001669 -0.000260  0.030877 -0.020638 -0.002612
  5H   4s        -0.000088 -0.000099  0.000015  0.001350 -0.005226 -0.000661
  5H   1pz       -0.000107 -0.000263  0.000041 -0.001727  0.008031  0.001016
  5H   1px       -0.000041 -0.000155  0.000023 -0.001878  0.004093  0.000655
  5H   1py        0.000005  0.000016 -0.000013  0.000219 -0.000625  0.001095
  5H   2pz       -0.000019 -0.000455  0.000071  0.008860  0.000694  0.000088
  5H   2px       -0.000629 -0.000397  0.000121  0.001299 -0.001763  0.000303
  5H   2py        0.000073  0.000125  0.000489 -0.000151 -0.000365  0.004474
  5H   3pz       -0.000101  0.000269 -0.000042  0.009787 -0.012177 -0.001541
  5H   3px       -0.000757 -0.000038  0.000038  0.009238 -0.005820 -0.000786
  5H   3py        0.000088  0.000048  0.000272 -0.001076  0.000731 -0.000333
  5H   1dz2      -0.000009 -0.000182  0.000028  0.000870  0.001207  0.000153
  5H   1dxz      -0.000169 -0.000231  0.000042  0.000108  0.001224  0.000217
  5H   1dyz       0.000020  0.000036  0.000051 -0.000013 -0.000209  0.000503
  5H   1dx2y2    -0.000078 -0.000070  0.000037 -0.000633  0.000294  0.000192
  5H   1dxy       0.000018  0.000034  0.000106  0.000150 -0.000156  0.000637
  5H   2dz2       0.000119 -0.000391  0.000061  0.002801 -0.001912 -0.000242
  5H   2dxz      -0.000103 -0.000222  0.000033  0.003214 -0.002648 -0.000193
  5H   2dyz       0.000012  0.000023 -0.000021 -0.000374  0.000154  0.001240
  5H   2dx2y2    -0.000349 -0.000486  0.000145  0.000123  0.000796  0.000028
  5H   2dxy       0.000082  0.000162  0.000267 -0.000029 -0.000147 -0.000327
  6H   1s         0.000226  0.000113 -0.000018 -0.031301  0.092146  0.011662
  6H   2s         0.000695  0.003849 -0.000600 -0.009843  0.088276  0.011172
  6H   3s        -0.002091  0.001669 -0.000260  0.030878 -0.020639 -0.002612
  6H   4s        -0.000088 -0.000099  0.000015  0.001350 -0.005226 -0.000661
  6H   1pz        0.000107  0.000263 -0.000041  0.001727 -0.008031 -0.001016
  6H   1px       -0.000041 -0.000155  0.000023 -0.001878  0.004093  0.000655
  6H   1py        0.000005  0.000016 -0.000013  0.000219 -0.000625  0.001095
  6H   2pz        0.000019  0.000455 -0.000071 -0.008860 -0.000694 -0.000088
  6H   2px       -0.000629 -0.000397  0.000121  0.001299 -0.001763  0.000303
  6H   2py        0.000073  0.000125  0.000489 -0.000151 -0.000365  0.004474
  6H   3pz        0.000101 -0.000269  0.000042 -0.009787  0.012177  0.001541
  6H   3px       -0.000757 -0.000038  0.000038  0.009238 -0.005820 -0.000786
  6H   3py        0.000088  0.000048  0.000272 -0.001076  0.000731 -0.000333
  6H   1dz2      -0.000009 -0.000182  0.000028  0.000870  0.001207  0.000153
  6H   1dxz       0.000169  0.000231 -0.000042 -0.000108 -0.001224 -0.000217
  6H   1dyz      -0.000020 -0.000036 -0.000051  0.000013  0.000209 -0.000503
  6H   1dx2y2    -0.000078 -0.000070  0.000037 -0.000633  0.000294  0.000192
  6H   1dxy       0.000018  0.000034  0.000106  0.000150 -0.000156  0.000637
  6H   2dz2       0.000119 -0.000391  0.000061  0.002801 -0.001912 -0.000242
  6H   2dxz       0.000103  0.000222 -0.000033 -0.003214  0.002648  0.000193
  6H   2dyz      -0.000012 -0.000023  0.000021  0.000374 -0.000154 -0.001240
  6H   2dx2y2    -0.000349 -0.000486  0.000145  0.000123  0.000796  0.000028
  6H   2dxy       0.000082  0.000162  0.000267 -0.000029 -0.000147 -0.000327
  7H   1s         0.000226 -0.000041  0.000107 -0.031299 -0.035974 -0.085631
  7H   2s         0.000693 -0.001405  0.003634 -0.009843 -0.034463 -0.082035
  7H   3s        -0.002092 -0.000608  0.001575  0.030880  0.008057  0.019178
  7H   4s        -0.000088  0.000036 -0.000094  0.001350  0.002040  0.004856
  7H   1pz       -0.000107  0.000096 -0.000248 -0.001727 -0.003135 -0.007463
  7H   1px        0.000016 -0.000032  0.000055  0.000750 -0.000352  0.001941
  7H   1py       -0.000038  0.000048 -0.000137 -0.001736 -0.001912 -0.003350
  7H   2pz       -0.000019  0.000166 -0.000429  0.008860 -0.000271 -0.000645
  7H   2px        0.000251  0.000374  0.000321 -0.000519 -0.004086  0.000976
  7H   2py       -0.000581  0.000324 -0.000282  0.001201 -0.001038  0.002151
  7H   3pz       -0.000101 -0.000098  0.000254  0.009787  0.004754  0.011316
  7H   3px        0.000302  0.000232  0.000108 -0.003688 -0.000549 -0.002312
  7H   3py       -0.000699  0.000118  0.000002  0.008539  0.002258  0.004939
  7H   1dz2      -0.000009  0.000067 -0.000172  0.000870 -0.000471 -0.001122
  7H   1dxz       0.000068  0.000014  0.000106 -0.000043 -0.000256  0.000645
  7H   1dyz      -0.000156  0.000099 -0.000194  0.000099 -0.000638 -0.000976
  7H   1dx2y2     0.000055 -0.000096  0.000020  0.000446  0.000535  0.000017
  7H   1dxy       0.000059  0.000052  0.000080  0.000474 -0.000331  0.000396
  7H   2dz2       0.000119  0.000143 -0.000369  0.002800  0.000746  0.001777
  7H   2dxz       0.000041 -0.000047  0.000078 -0.001283 -0.001441 -0.000542
  7H   2dyz      -0.000096  0.000069 -0.000196  0.002971  0.000504  0.002447
  7H   2dx2y2     0.000246 -0.000329  0.000253 -0.000086  0.000005  0.000604
  7H   2dxy       0.000261  0.000054  0.000424 -0.000092  0.000428  0.000463
  8H   1s         0.000226 -0.000041  0.000107 -0.031299 -0.035974 -0.085631
  8H   2s         0.000693 -0.001405  0.003634 -0.009843 -0.034463 -0.082035
  8H   3s        -0.002092 -0.000608  0.001575  0.030880  0.008057  0.019178
  8H   4s        -0.000088  0.000036 -0.000094  0.001350  0.002040  0.004856
  8H   1pz        0.000107 -0.000096  0.000248  0.001727  0.003135  0.007463
  8H   1px        0.000016 -0.000032  0.000055  0.000750 -0.000352  0.001941
  8H   1py       -0.000038  0.000048 -0.000137 -0.001736 -0.001912 -0.003350
  8H   2pz        0.000019 -0.000166  0.000429 -0.008860  0.000271  0.000645
  8H   2px        0.000251  0.000374  0.000321 -0.000519 -0.004086  0.000976
  8H   2py       -0.000581  0.000324 -0.000282  0.001201 -0.001038  0.002151
  8H   3pz        0.000101  0.000098 -0.000254 -0.009787 -0.004754 -0.011316
  8H   3px        0.000302  0.000232  0.000108 -0.003688 -0.000549 -0.002312
  8H   3py       -0.000699  0.000118  0.000002  0.008539  0.002258  0.004939
  8H   1dz2      -0.000009  0.000067 -0.000172  0.000870 -0.000471 -0.001122
  8H   1dxz      -0.000068 -0.000014 -0.000106  0.000043  0.000256 -0.000645
  8H   1dyz       0.000156 -0.000099  0.000194 -0.000099  0.000638  0.000976
  8H   1dx2y2     0.000055 -0.000096  0.000020  0.000446  0.000535  0.000017
  8H   1dxy       0.000059  0.000052  0.000080  0.000474 -0.000331  0.000396
  8H   2dz2       0.000119  0.000143 -0.000369  0.002800  0.000746  0.001777
  8H   2dxz      -0.000041  0.000047 -0.000078  0.001283  0.001441  0.000542
  8H   2dyz       0.000096 -0.000069  0.000196 -0.002971 -0.000504 -0.002447
  8H   2dx2y2     0.000246 -0.000329  0.000253 -0.000086  0.000005  0.000604
  8H   2dxy       0.000261  0.000054  0.000424 -0.000092  0.000428  0.000463
                      6         7         8         9        10        11   
                  -0.66825  -0.62798  -0.51131  -0.51130  -0.41991  -0.41991
                   2.00000   2.00000   2.00000   2.00000   2.00000   2.00000
                  --------  --------  --------  --------  --------  --------
  0C   1s        -0.000000 -0.001513  0.000000 -0.000000 -0.000600  0.000501
  0C   2s         0.000000 -0.024625 -0.000000 -0.000000  0.020418 -0.017032
  0C   3s         0.000000 -0.009903 -0.000000 -0.000000  0.000516 -0.000429
  0C   4s         0.000000 -0.073461  0.000000  0.000000  0.062216 -0.051912
  0C   5s         0.000000 -0.001235  0.000000 -0.000000 -0.010474  0.008756
  0C   1pz       -0.138878  0.000000  0.103780 -0.163800  0.000000  0.000000
  0C   1px       -0.000000 -0.097933  0.000000 -0.000000 -0.172972 -0.093783
  0C   1py       -0.000000 -0.131650  0.000000  0.000000  0.012084  0.167054
  0C   2pz       -0.188811  0.000000  0.143743 -0.226877  0.000000  0.000000
  0C   2px       -0.000000 -0.110754  0.000000 -0.000000 -0.229687 -0.117809
  0C   2py       -0.000000 -0.148884  0.000000  0.000000  0.009139  0.222591
  0C   3pz       -0.111765  0.000000  0.143734 -0.226861  0.000000  0.000000
  0C   3px       -0.000000 -0.054220  0.000000 -0.000000 -0.185055 -0.041541
  0C   3py       -0.000000 -0.072884  0.000000  0.000000 -0.047462  0.185391
  0C   4pz        0.001954 -0.000000  0.003325 -0.005251  0.000000  0.000000
  0C   4px        0.000000 -0.001413  0.000000  0.000000 -0.012834 -0.007332
  0C   4py       -0.000000 -0.001899  0.000000  0.000000  0.001278  0.012352
  0C   1dz2      -0.000000 -0.012001  0.000000 -0.000000 -0.006837  0.005706
  0C   1dxz      -0.001351 -0.000000  0.009610 -0.007515  0.000000  0.000000
  0C   1dyz      -0.001816  0.000000  0.005693 -0.014679  0.000000  0.000000
  0C   1dx2y2    -0.000000 -0.001925  0.000000  0.000000  0.012997  0.011335
  0C   1dxy       0.000000  0.006413  0.000000  0.000000 -0.003671  0.009723
  0C   2dz2      -0.000000 -0.024737  0.000000 -0.000000 -0.025838  0.021563
  0C   2dxz      -0.005489 -0.000000  0.024206 -0.018901  0.000000  0.000000
  0C   2dyz      -0.007378  0.000000  0.014314 -0.036953  0.000000  0.000000
  0C   2dx2y2    -0.000000 -0.004895  0.000000 -0.000000  0.023346  0.026861
  0C   2dxy       0.000000  0.016302 -0.000000  0.000000  0.005016  0.009728
  0C   3dz2      -0.000000 -0.016111  0.000000 -0.000000 -0.033689  0.028116
  0C   3dxz      -0.010614 -0.000000  0.001045 -0.020967 -0.000000  0.000000
  0C   3dyz      -0.014267 -0.000000  0.019636 -0.016630  0.000000 -0.000000
  0C   3dx2y2    -0.000000 -0.001687  0.000000 -0.000000  0.004290  0.019672
  0C   3dxy       0.000000  0.005621 -0.000000  0.000000  0.027244 -0.015753
  0C   1f0        0.002842 -0.000000  0.001025 -0.001618  0.000000  0.000000
  0C   1f+1       0.000000  0.002862 -0.000000 -0.000000  0.001833  0.001390
  0C   1f-1       0.000000  0.003848 -0.000000  0.000000 -0.000535 -0.001725
  0C   1f+2       0.001158 -0.000000 -0.003300 -0.001089 -0.000000  0.000000
  0C   1f-2      -0.003857  0.000000  0.000654 -0.002923  0.000000  0.000000
  0C   1f+3      -0.000000 -0.003756 -0.000000  0.000000  0.003816 -0.000007
  0C   1f-3       0.000000  0.001362 -0.000000  0.000000  0.003493  0.005846
  0C   2f0       -0.000694 -0.000000  0.003113 -0.004914  0.000000  0.000000
  0C   2f+1      -0.000000  0.000671  0.000000 -0.000000  0.002371 -0.001255
  0C   2f-1       0.000000  0.000903 -0.000000  0.000000  0.002445 -0.002579
  0C   2f+2       0.000746 -0.000000 -0.002091  0.001367  0.000000 -0.000000
  0C   2f-2      -0.002484  0.000000  0.003792 -0.006565  0.000000 -0.000000
  0C   2f+3       0.000000  0.000278  0.000000  0.000000 -0.000688  0.001659
  0C   2f-3       0.000000 -0.000101 -0.000000  0.000000  0.001916  0.001395
  1C   1s         0.000000 -0.001512  0.000000  0.000000 -0.000134 -0.000770
  1C   2s        -0.000000 -0.024627  0.000000 -0.000000  0.004548  0.026196
  1C   3s        -0.000000 -0.009903  0.000000 -0.000000  0.000115  0.000661
  1C   4s        -0.000000 -0.073470 -0.000000 -0.000000  0.013855  0.079837
  1C   5s        -0.000000 -0.001242 -0.000000  0.000000 -0.002333 -0.013465
  1C   1pz       -0.138884  0.000000 -0.193743 -0.007974 -0.000000  0.000000
  1C   1px        0.000000  0.162982 -0.000000  0.000000  0.046666  0.114726
  1C   1py       -0.000000 -0.018983 -0.000000  0.000000  0.220593 -0.052588
  1C   2pz       -0.188818  0.000000 -0.268350 -0.011044 -0.000000  0.000000
  1C   2px        0.000000  0.184319 -0.000000  0.000000  0.062460  0.159535
  1C   2py       -0.000000 -0.021468 -0.000000  0.000000  0.286484 -0.069561
  1C   3pz       -0.111772  0.000000 -0.268334 -0.011043 -0.000000  0.000000
  1C   3px        0.000000  0.090233  0.000000  0.000000  0.054230  0.185622
  1C   3py       -0.000000 -0.010509 -0.000000  0.000000  0.179697 -0.053901
  1C   4pz        0.001954  0.000000 -0.006209 -0.000256 -0.000000  0.000000
  1C   4px       -0.000000  0.002350 -0.000000  0.000000  0.003435  0.008112
  1C   4py        0.000000 -0.000274 -0.000000  0.000000  0.016723 -0.003917
  1C   1dz2       0.000000 -0.012002  0.000000 -0.000000 -0.001523 -0.008774
  1C   1dxz       0.002248  0.000000  0.019131  0.000196  0.000000  0.000000
  1C   1dyz      -0.000262 -0.000000 -0.002017 -0.005158  0.000000 -0.000000
  1C   1dx2y2    -0.000000  0.006516 -0.000000 -0.000000  0.002455 -0.009758
  1C   1dxy       0.000000 -0.001539 -0.000000  0.000000  0.017422 -0.000819
  1C   2dz2       0.000000 -0.024739  0.000000 -0.000000 -0.005754 -0.033159
  1C   2dxz       0.009135  0.000000  0.048148  0.000491  0.000000  0.000000
  1C   2dyz      -0.001064 -0.000000 -0.005075 -0.013011 -0.000000 -0.000000
  1C   2dx2y2    -0.000000  0.016565 -0.000000 -0.000000  0.007999 -0.003845
  1C   2dxy       0.000000 -0.003912 -0.000000  0.000000  0.035722 -0.005619
  1C   3dz2       0.000000 -0.016114  0.000000 -0.000000 -0.007502 -0.043235
  1C   3dxz       0.017663 -0.000000  0.030312  0.002740  0.000000 -0.000000
  1C   3dyz      -0.002057  0.000000 -0.004063  0.012638 -0.000000 -0.000000
  1C   3dx2y2    -0.000000  0.005713 -0.000000 -0.000000  0.009609  0.030313
  1C   3dxy       0.000000 -0.001349  0.000000 -0.000000  0.016601 -0.010434
  1C   1f0        0.002842  0.000000 -0.001914 -0.000079 -0.000000  0.000000
  1C   1f+1      -0.000000 -0.004763  0.000000 -0.000000 -0.000466 -0.000792
  1C   1f-1      -0.000000  0.000555 -0.000000 -0.000000 -0.002717  0.000573
  1C   1f+2      -0.003919  0.000000 -0.002829 -0.000926 -0.000000  0.000000
  1C   1f-2       0.000926 -0.000000  0.000817 -0.003394  0.000000  0.000000
  1C   1f+3      -0.000000 -0.003756  0.000000  0.000000 -0.001901  0.003309
  1C   1f-3       0.000000  0.001362  0.000000 -0.000000 -0.006810  0.000102
  1C   2f0       -0.000694  0.000000 -0.005812 -0.000239 -0.000000  0.000000
  1C   2f+1      -0.000000 -0.001117  0.000000  0.000000 -0.000826 -0.004290
  1C   2f-1      -0.000000  0.000130 -0.000000 -0.000000 -0.000592  0.000619
  1C   2f+2      -0.002524 -0.000000 -0.007681 -0.000565  0.000000 -0.000000
  1C   2f-2       0.000596  0.000000  0.001860 -0.000976 -0.000000 -0.000000
  1C   2f+3      -0.000000  0.000278 -0.000000 -0.000000 -0.001093 -0.001425
  1C   2f-3       0.000000 -0.000101  0.000000  0.000000 -0.002166  0.000961
  2C   1s        -0.000000 -0.001513  0.000000  0.000000  0.000734  0.000269
  2C   2s        -0.000000 -0.024626 -0.000000  0.000000 -0.024962 -0.009158
  2C   3s        -0.000000 -0.009903 -0.000000  0.000000 -0.000630 -0.000231
  2C   4s        -0.000000 -0.073458 -0.000000  0.000000 -0.076066 -0.027913
  2C   5s         0.000000 -0.001236 -0.000000  0.000000  0.012809  0.004710
  2C   1pz       -0.138877  0.000000  0.089969  0.171774 -0.000000 -0.000000
  2C   1px       -0.000000 -0.065051 -0.000000 -0.000000  0.117425 -0.179742
  2C   1py        0.000000  0.150634 -0.000000 -0.000000 -0.073877 -0.123348
  2C   2pz       -0.188809  0.000000  0.124614  0.237922 -0.000000 -0.000000
  2C   2px       -0.000000 -0.073567 -0.000000 -0.000000  0.156578 -0.232146
  2C   2py        0.000000  0.170353 -0.000000 -0.000000 -0.105199 -0.163681
  2C   3pz       -0.111764  0.000000  0.124604  0.237904 -0.000000 -0.000000
  2C   3px       -0.000000 -0.036015 -0.000000  0.000000  0.131321 -0.135193
  2C   3py        0.000000  0.083396  0.000000 -0.000000 -0.141111 -0.130992
  2C   4pz        0.001955 -0.000000  0.002883  0.005506 -0.000000 -0.000000
  2C   4px       -0.000000 -0.000938 -0.000000 -0.000000  0.008677 -0.013699
  2C   4py        0.000000  0.002172 -0.000000  0.000000 -0.005090 -0.009158
  2C   1dz2      -0.000000 -0.012001 -0.000000  0.000000  0.008360  0.003068
  2C   1dxz      -0.000897  0.000000  0.007693  0.004587  0.000000 -0.000000
  2C   1dyz       0.002077 -0.000000 -0.006408 -0.016596  0.000000  0.000000
  2C   1dx2y2    -0.000000 -0.004591  0.000000  0.000000 -0.010541  0.009919
  2C   1dxy      -0.000000 -0.004874  0.000000 -0.000000 -0.002255 -0.013815
  2C   2dz2      -0.000000 -0.024737 -0.000000  0.000000  0.031593  0.011597
  2C   2dxz      -0.003646  0.000000  0.019385  0.011533  0.000000 -0.000000
  2C   2dyz       0.008442 -0.000000 -0.016116 -0.041774  0.000000  0.000000
  2C   2dx2y2    -0.000000 -0.011671  0.000000  0.000000 -0.010918  0.024799
  2C   2dxy      -0.000000 -0.012390 -0.000000 -0.000000  0.007078 -0.024536
  2C   3dz2      -0.000000 -0.016111 -0.000000  0.000000  0.041191  0.015120
  2C   3dxz      -0.007051 -0.000000 -0.004848  0.016239  0.000000 -0.000000
  2C   3dyz       0.016326 -0.000000 -0.017561 -0.022523  0.000000  0.000000
  2C   3dx2y2    -0.000000 -0.004024 -0.000000  0.000000  0.016166  0.020386
  2C   3dxy      -0.000000 -0.004272 -0.000000  0.000000  0.026529 -0.003878
  2C   1f0        0.002842 -0.000000  0.000889  0.001697 -0.000000 -0.000000
  2C   1f+1       0.000000  0.001901  0.000000  0.000000 -0.001206  0.002290
  2C   1f-1      -0.000000 -0.004403  0.000000  0.000000  0.000365  0.001314
  2C   1f+2       0.002761 -0.000000 -0.003206 -0.000600 -0.000000 -0.000000
  2C   1f-2       0.002931 -0.000000  0.001143 -0.003018  0.000000  0.000000
  2C   1f+3      -0.000000 -0.003756  0.000000 -0.000000 -0.001914 -0.003301
  2C   1f-3       0.000000  0.001362 -0.000000 -0.000000  0.003317 -0.005948
  2C   2f0       -0.000694 -0.000000  0.002699  0.005153 -0.000000 -0.000000
  2C   2f+1       0.000000  0.000445  0.000000  0.000000 -0.001855 -0.000004
  2C   2f-1       0.000000 -0.001032 -0.000000  0.000000  0.003696  0.001649
  2C   2f+2       0.001779 -0.000000 -0.003213 -0.004439 -0.000000 -0.000000
  2C   2f-2       0.001888 -0.000000 -0.002015 -0.005443  0.000000 -0.000000
  2C   2f+3       0.000000  0.000278 -0.000000  0.000000  0.001781 -0.000234
  2C   2f-3       0.000000 -0.000101  0.000000  0.000000  0.000250 -0.002356
  3H   1s        -0.072607 -0.066244  0.068029 -0.107373 -0.039398  0.032877
  3H   2s        -0.084800 -0.097498  0.078568 -0.124007 -0.055902  0.046648
  3H   3s         0.037932 -0.014950 -0.035882  0.056638  0.004668 -0.003899
  3H   4s        -0.001896 -0.000376 -0.000059  0.000094 -0.001953  0.001630
  3H   1pz        0.004479  0.006999 -0.003737  0.005898  0.003455 -0.002883
  3H   1px        0.003272  0.001125 -0.001719  0.003709 -0.002713 -0.003220
  3H   1py        0.004399  0.001512 -0.003250  0.004390  0.001986  0.002422
  3H   2pz       -0.005229  0.011407  0.004587 -0.007240  0.003568 -0.002977
  3H   2px        0.001993 -0.002491  0.000439  0.000361 -0.013395 -0.005730
  3H   2py        0.002679 -0.003350 -0.000405 -0.000145 -0.000639  0.013112
  3H   3pz       -0.019854  0.002099  0.016367 -0.025833  0.003723 -0.003107
  3H   3px       -0.002909 -0.003113  0.012523 -0.005025 -0.014250  0.005976
  3H   3py       -0.003911 -0.004184  0.002920 -0.015571 -0.013080  0.015316
  3H   1dz2       0.000587 -0.002476  0.000138 -0.000218 -0.001441  0.001203
  3H   1dxz      -0.001037 -0.000642  0.000246 -0.001011  0.001186  0.001247
  3H   1dyz      -0.001394 -0.000862  0.000919 -0.000987 -0.000703 -0.001078
  3H   1dx2y2     0.000367 -0.000167 -0.000449 -0.000066  0.001256  0.001677
  3H   1dxy      -0.001224  0.000555  0.000223 -0.000585  0.000684  0.000247
  3H   2dz2       0.002778 -0.002338 -0.001199  0.001892 -0.002488  0.002077
  3H   2dxz       0.001463  0.001061 -0.000789  0.000970  0.002775  0.001043
  3H   2dyz       0.001966  0.001427 -0.000801  0.001468  0.000280 -0.002732
  3H   2dx2y2     0.000032  0.000046 -0.000510 -0.000639 -0.000180  0.000975
  3H   2dxy      -0.000106 -0.000155 -0.000672  0.000626  0.002071 -0.001481
  4H   1s         0.072607 -0.066244 -0.068029  0.107373 -0.039398  0.032877
  4H   2s         0.084800 -0.097498 -0.078568  0.124007 -0.055902  0.046648
  4H   3s        -0.037932 -0.014950  0.035882 -0.056638  0.004668 -0.003899
  4H   4s         0.001896 -0.000376  0.000059 -0.000094 -0.001953  0.001630
  4H   1pz        0.004479 -0.006999 -0.003737  0.005898 -0.003455  0.002883
  4H   1px       -0.003272  0.001125  0.001719 -0.003709 -0.002713 -0.003220
  4H   1py       -0.004399  0.001512  0.003250 -0.004390  0.001986  0.002422
  4H   2pz       -0.005229 -0.011407  0.004587 -0.007240 -0.003568  0.002977
  4H   2px       -0.001993 -0.002492 -0.000439 -0.000361 -0.013395 -0.005730
  4H   2py       -0.002679 -0.003350  0.000405  0.000145 -0.000639  0.013112
  4H   3pz       -0.019854 -0.002099  0.016367 -0.025833 -0.003723  0.003107
  4H   3px        0.002909 -0.003113 -0.012523  0.005025 -0.014250  0.005976
  4H   3py        0.003911 -0.004184 -0.002920  0.015571 -0.013080  0.015316
  4H   1dz2      -0.000587 -0.002476 -0.000138  0.000218 -0.001441  0.001203
  4H   1dxz      -0.001037  0.000642  0.000246 -0.001011 -0.001187 -0.001247
  4H   1dyz      -0.001394  0.000862  0.000919 -0.000987  0.000703  0.001078
  4H   1dx2y2    -0.000367 -0.000167  0.000449  0.000066  0.001256  0.001677
  4H   1dxy       0.001224  0.000555 -0.000223  0.000585  0.000684  0.000247
  4H   2dz2      -0.002778 -0.002338  0.001199 -0.001892 -0.002488  0.002077
  4H   2dxz       0.001463 -0.001061 -0.000789  0.000970 -0.002775 -0.001043
  4H   2dyz       0.001966 -0.001427 -0.000801  0.001468 -0.000280  0.002732
  4H   2dx2y2    -0.000032  0.000046  0.000510  0.000639 -0.000180  0.000975
  4H   2dxy       0.000106 -0.000155  0.000672 -0.000626  0.002071 -0.001481
  5H   1s         0.072611 -0.066246  0.127001  0.005227 -0.008774 -0.050557
  5H   2s         0.084803 -0.097497  0.146673  0.006036 -0.012449 -0.071733
  5H   3s        -0.037935 -0.014946 -0.066990 -0.002757  0.001040  0.005996
  5H   4s         0.001896 -0.000376 -0.000111 -0.000005 -0.000435 -0.002507
  5H   1pz        0.004480 -0.006999  0.006976  0.000287 -0.000769 -0.004434
  5H   1px        0.005446 -0.001872  0.006735  0.000354  0.000604 -0.000071
  5H   1py       -0.000634  0.000218 -0.000812  0.000627  0.005136 -0.000895
  5H   2pz       -0.005229 -0.011407 -0.008564 -0.000352 -0.000795 -0.004579
  5H   2px        0.003317  0.004148  0.000113  0.000086  0.003726  0.010525
  5H   2py       -0.000386 -0.000483 -0.000042  0.000697  0.015616 -0.004012
  5H   3pz       -0.019855 -0.002099 -0.030555 -0.001257 -0.000829 -0.004778
  5H   3px       -0.004842  0.005181 -0.018250  0.000388  0.004848  0.024106
  5H   3py        0.000564 -0.000604  0.001719  0.009844  0.005050 -0.003782
  5H   1dz2      -0.000587 -0.002476  0.000258  0.000011 -0.000321 -0.001850
  5H   1dxz       0.001726 -0.001068  0.001638  0.000115  0.000276  0.000141
  5H   1dyz      -0.000201  0.000124 -0.000208  0.000404  0.002092 -0.000385
  5H   1dx2y2     0.001244  0.000564  0.000619  0.000125  0.000558  0.000282
  5H   1dxy      -0.000294 -0.000133 -0.000164  0.000415  0.002079 -0.000450
  5H   2dz2      -0.002778 -0.002338 -0.002238 -0.000092 -0.000554 -0.003193
  5H   2dxz      -0.002434  0.001766 -0.002065 -0.000064  0.000782  0.002333
  5H   2dyz       0.000283 -0.000206  0.000233  0.000192  0.003097 -0.000825
  5H   2dx2y2     0.000108 -0.000157 -0.000910  0.000148  0.000591  0.002516
  5H   2dxy      -0.000025  0.000037  0.000181  0.000794  0.000530 -0.000710
  6H   1s        -0.072611 -0.066246 -0.127001 -0.005227 -0.008774 -0.050557
  6H   2s        -0.084803 -0.097497 -0.146673 -0.006036 -0.012449 -0.071733
  6H   3s         0.037935 -0.014946  0.066990  0.002757  0.001040  0.005995
  6H   4s        -0.001896 -0.000376  0.000111  0.000005 -0.000435 -0.002507
  6H   1pz        0.004480  0.006999  0.006976  0.000287  0.000769  0.004434
  6H   1px       -0.005446 -0.001872 -0.006735 -0.000354  0.000604 -0.000071
  6H   1py        0.000634  0.000218  0.000812 -0.000627  0.005136 -0.000895
  6H   2pz       -0.005229  0.011407 -0.008564 -0.000352  0.000795  0.004579
  6H   2px       -0.003317  0.004148 -0.000113 -0.000086  0.003726  0.010525
  6H   2py        0.000386 -0.000483  0.000042 -0.000697  0.015616 -0.004012
  6H   3pz       -0.019855  0.002099 -0.030555 -0.001257  0.000829  0.004778
  6H   3px        0.004842  0.005181  0.018250 -0.000388  0.004848  0.024106
  6H   3py       -0.000564 -0.000604 -0.001719 -0.009844  0.005050 -0.003782
  6H   1dz2       0.000587 -0.002476 -0.000258 -0.000011 -0.000321 -0.001850
  6H   1dxz       0.001726  0.001068  0.001638  0.000115 -0.000276 -0.000141
  6H   1dyz      -0.000201 -0.000124 -0.000208  0.000404 -0.002092  0.000385
  6H   1dx2y2    -0.001244  0.000564 -0.000619 -0.000125  0.000558  0.000282
  6H   1dxy       0.000294 -0.000133  0.000164 -0.000415  0.002079 -0.000450
  6H   2dz2       0.002778 -0.002338  0.002238  0.000092 -0.000554 -0.003193
  6H   2dxz      -0.002434 -0.001766 -0.002065 -0.000064 -0.000782 -0.002333
  6H   2dyz       0.000283  0.000206  0.000233  0.000192 -0.003097  0.000825
  6H   2dx2y2    -0.000108 -0.000157  0.000910 -0.000148  0.000591  0.002516
  6H   2dxy       0.000025  0.000037 -0.000181 -0.000794  0.000530 -0.000710
  7H   1s         0.072607 -0.066244 -0.058975 -0.112600  0.048172  0.017681
  7H   2s         0.084800 -0.097498 -0.068112 -0.130045  0.068351  0.025086
[...]
Memory needed for SIP and SEA amplitudes   ...     44.05 MB
 -> Final InCoreLevel    ... 1


Making SIP amplitudes for STEOM-CCSD       ... done (    0.0)
Making SEA amplitudes for STEOM-CCSD       ... done (    0.8)
Dressing integrals for STEOM-CCSD          ... 
Dressing of Occ / Occ block ... done (    0.0)
Dressing of Virt / Virt block ... done (    4.7)
done ( 3913.0)
done (  134.8)
Building the initial guess                 ... done (    0.0)
Solving Root No   1 

Iter    Delta-E          Residual              Time
---------------------------------------------------
  0   0.292137267546   0.000264029013         0.048
  1   0.000764915187   0.000037613880         0.049
  2   0.000201541150   0.000019092776         0.049
  3   0.000095896240   0.000012920773         0.044
  4   0.000003082674   0.000002877597         0.048

      *** CONVERGENCE OF RESIDUAL NORM REACHED ***
       --- The STEOM iterations have converged ---
Solving Root No   2 

Iter    Delta-E          Residual              Time
---------------------------------------------------
  0   0.292134180618   0.000265240849         0.045
  1   0.000705175202   0.000035738276         0.049
  2   0.000209567280   0.000019059004         0.049
  3   0.000106098910   0.000012082569         0.056
  4   0.000000250869   0.000002916710         0.121

      *** CONVERGENCE OF RESIDUAL NORM REACHED ***
       --- The STEOM iterations have converged ---
Solving Root No   3 

Iter    Delta-E          Residual              Time
---------------------------------------------------
  0   0.310159142502   0.000516873956         0.058
  1   0.002119351176   0.000070759710         0.120
  2   0.000379631931   0.000007199002         0.060

      *** CONVERGENCE OF RESIDUAL NORM REACHED ***
       --- The STEOM iterations have converged ---
Solving Root No   4 

Iter    Delta-E          Residual              Time
---------------------------------------------------
  0   0.310133350248   0.000526878582         0.033
  1   0.002033668847   0.000071060258         0.035
  2   0.000424042536   0.000007286597         0.020

      *** CONVERGENCE OF RESIDUAL NORM REACHED ***
       --- The STEOM iterations have converged ---
Solving Root No   5 

Iter    Delta-E          Residual              Time
---------------------------------------------------
  0   0.312848232379   0.000420683487         0.049
  1   0.001407297904   0.000031467300         0.049
  2   0.000176771579   0.000003274089         0.049

      *** CONVERGENCE OF RESIDUAL NORM REACHED ***
       --- The STEOM iterations have converged ---
Solving Root No   6 

Iter    Delta-E          Residual              Time
---------------------------------------------------
  0   0.311806296525   0.000287334184         0.047
  1   0.000507387988   0.000051814669         0.049
  2   0.000113335195   0.000016459108         0.145
  3   0.000077751051   0.000006246473         0.060

      *** CONVERGENCE OF RESIDUAL NORM REACHED ***
       --- The STEOM iterations have converged ---
Solving Root No   7 

Iter    Delta-E          Residual              Time
---------------------------------------------------
  0   0.313401576201   0.000390925798         0.033
  1   0.000959664290   0.000068005805         0.035
  2   0.000559687490   0.000399343600         0.035
  3   0.001464426516   0.000332806751         0.120
  4   0.000536325584   0.000020549124         0.060
  5   0.000041174367   0.000010103768         0.019
  6   0.000016031992   0.000002118057         0.032

      *** CONVERGENCE OF RESIDUAL NORM REACHED ***
       --- The STEOM iterations have converged ---
Solving Root No   8 

Iter    Delta-E          Residual              Time
---------------------------------------------------
  0   0.313391591020   0.000311690723         0.032
  1   0.000879363469   0.000071799393         0.033
  2   0.000467934042   0.000246712017         0.050
  3   0.001282755546   0.000334320981         0.032
  4   0.000483294568   0.000017924758         0.032
  5   0.000038724837   0.000007707601         0.049

      *** CONVERGENCE OF RESIDUAL NORM REACHED ***
       --- The STEOM iterations have converged ---
Solving Root No   9 

Iter    Delta-E          Residual              Time
---------------------------------------------------
  0   0.353326946046   0.000163829564         0.032
  1   0.000420860279   0.000008195241         0.049

      *** CONVERGENCE OF RESIDUAL NORM REACHED ***
       --- The STEOM iterations have converged ---
Solving Root No  10 

Iter    Delta-E          Residual              Time
---------------------------------------------------
  0   0.354214808188   0.000154512041         0.044
  1   0.000444194348   0.000037333849         0.048
  2   0.000898994578   0.000353383606         0.049
  3   0.000742724983   0.000009837534         0.049

      *** CONVERGENCE OF RESIDUAL NORM REACHED ***
       --- The STEOM iterations have converged ---

------------------
STEOM-CCSD RESULTS
------------------

IROOT=  1:  0.291072 au     7.920 eV   63882.9 cm**-1
  Amplitude    Excitation
   0.392437    10 ->  12
  -0.905020    11 ->  12
   0.107315    11 ->  13
  Ground state amplitude: -0.001134

Percentage Active Character     99.73

  Amplitude    Excitation in Canonical Basis
  -0.883218    11 ->  12
   0.143472    11 ->  20
   0.400204    11 ->  25

IROOT=  2:  0.291113 au     7.922 eV   63891.9 cm**-1
  Amplitude    Excitation
   0.904860    10 ->  12
   0.394581    11 ->  12
  -0.105488    11 ->  14
  Ground state amplitude: -0.000645

Percentage Active Character     99.72

  Amplitude    Excitation in Canonical Basis
   0.883144    10 ->  12
  -0.144020    10 ->  20
  -0.400088    10 ->  25

IROOT=  3:  0.307660 au     8.372 eV   67523.6 cm**-1
  Amplitude    Excitation
   0.253951    10 ->  15
   0.273238    10 ->  17
  -0.536980    11 ->  15
  -0.743010    11 ->  17
  Ground state amplitude:  0.000000

Percentage Active Character     99.15

  Amplitude    Excitation in Canonical Basis
  -0.870275    11 ->  13
  -0.454381    11 ->  24
   0.119084    11 ->  41

IROOT=  4:  0.307676 au     8.372 eV   67527.0 cm**-1
  Amplitude    Excitation
  -0.599977    10 ->  15
  -0.697275    10 ->  17
  -0.208329    11 ->  15
  -0.312292    11 ->  17
  Ground state amplitude: -0.000000

Percentage Active Character     99.17

  Amplitude    Excitation in Canonical Basis
  -0.870401    10 ->  13
  -0.454292    10 ->  24
   0.118954    10 ->  41

IROOT=  5:  0.311108 au     8.466 eV   68280.3 cm**-1
  Amplitude    Excitation
  -0.704454    10 ->  14
   0.704626    11 ->  13
  Ground state amplitude: -0.003416

Percentage Active Character     99.80

  Amplitude    Excitation in Canonical Basis
   0.598670    10 ->  15
  -0.268705    10 ->  18
   0.161061    10 ->  22
  -0.180601    10 ->  29
  -0.599151    11 ->  14
   0.269940    11 ->  19
  -0.160558    11 ->  21
   0.180669    11 ->  28

IROOT=  6:  0.311264 au     8.470 eV   68314.6 cm**-1
  Amplitude    Excitation
  -0.697315    10 ->  13
  -0.698286    11 ->  14
  Ground state amplitude:  0.000002

Percentage Active Character     99.74

  Amplitude    Excitation in Canonical Basis
   0.619045    10 ->  14
  -0.171855    10 ->  19
   0.209032    10 ->  21
  -0.184519    10 ->  28
   0.620263    11 ->  15
  -0.171749    11 ->  18
   0.209827    11 ->  22
  -0.184937    11 ->  29

IROOT=  7:  0.312753 au     8.510 eV   68641.4 cm**-1
  Amplitude    Excitation
   0.113611    10 ->  12
  -0.504039    10 ->  13
  -0.481394    10 ->  14
  -0.481644    11 ->  13
   0.502197    11 ->  14
  Ground state amplitude: -0.000069

Percentage Active Character     99.70

  Amplitude    Excitation in Canonical Basis
   0.611219    10 ->  14
  -0.217650    10 ->  19
   0.176073    10 ->  21
  -0.172765    10 ->  28
  -0.609677    11 ->  15
   0.216612    11 ->  18
  -0.175656    11 ->  22
   0.172306    11 ->  29

IROOT=  8:  0.312805 au     8.512 eV   68652.8 cm**-1
  Amplitude    Excitation
  -0.480748    10 ->  13
   0.502656    10 ->  14
   0.129317    11 ->  12
   0.500870    11 ->  13
   0.479568    11 ->  14
   0.109696    11 ->  18
  Ground state amplitude: -0.000055

Percentage Active Character     99.77

  Amplitude    Excitation in Canonical Basis
  -0.607766    10 ->  15
   0.220861    10 ->  18
  -0.175361    10 ->  22
   0.172614    10 ->  29
  -0.606569    11 ->  14
   0.219469    11 ->  19
  -0.100384    11 ->  20
  -0.175081    11 ->  21
   0.172249    11 ->  28

IROOT=  9:  0.352906 au     9.603 eV   77453.9 cm**-1
  Amplitude    Excitation
  -0.337399    10 ->  15
   0.589288    10 ->  16
   0.237134    10 ->  17
  -0.449981    11 ->  15
  -0.371375    11 ->  16
   0.371541    11 ->  17
  Ground state amplitude:  0.000000

Percentage Active Character     99.82

  Amplitude    Excitation in Canonical Basis
  -0.679746    10 ->  16
  -0.237979    10 ->  27
   0.641448    11 ->  17
  -0.224496    11 ->  26

IROOT= 10:  0.353927 au     9.631 eV   77678.0 cm**-1
  Amplitude    Excitation
  -0.154358     9 ->  12
  -0.671635    10 ->  16
  -0.576913    11 ->  15
   0.121970    11 ->  16
   0.392645    11 ->  17
  Ground state amplitude:  0.000000

Percentage Active Character     99.77

  Amplitude    Excitation in Canonical Basis
   0.127653     8 ->  12
   0.625611    10 ->  17
  -0.222985    10 ->  26
  -0.669540    11 ->  16
  -0.238952    11 ->  27


STEOM-CCSD done (  138.4 sec)
Calculating the Dipole integrals                  ... done
Transforming integrals                            ... done
Calculating the Linear Momentum integrals         ... done
Transforming integrals                            ... done
Calculating angular momentum integrals            ... done
Transforming integrals                            ... done

--------------------------------------------------------------------
               UNRELAXED EXCITED STATE DIPOLE MOMENTS
--------------------------------------------------------------------
               E(eV)     DX(au)      DY(au)      DZ(au)      |D|(D)
IROOT=  0:     0.000    0.000007   -0.000002    0.000000    0.000020
IROOT=  1:     7.920   -0.513612    0.235027    0.000003    1.435688
IROOT=  2:     7.922    0.475075   -0.259846    0.000007    1.376370
IROOT=  3:     8.372   -0.131308    0.059070   -0.000002    0.365975
IROOT=  4:     8.372    0.144690   -0.055999   -0.000007    0.394357
IROOT=  5:     8.466    0.010285    0.004796    0.000000    0.028846
IROOT=  6:     8.470    0.002144    0.000483   -0.000000    0.005586
IROOT=  7:     8.510   -0.291223   -0.185344   -0.000000    0.877429
IROOT=  8:     8.512    0.260555    0.165893   -0.000001    0.785120
IROOT=  9:     9.603    0.057947   -0.035984   -0.000000    0.173378
IROOT= 10:     9.631    0.473917    0.182445   -0.000001    1.290782
--------------------------------------------------------------------

-----------------------------------------------------------------------------
         ABSORPTION SPECTRUM VIA TRANSITION ELECTRIC DIPOLE MOMENTS
-----------------------------------------------------------------------------
State   Energy  Wavelength   fosc         T2         TX        TY        TZ  
        (cm-1)    (nm)                  (au**2)     (au)      (au)      (au) 
-----------------------------------------------------------------------------
   1   63882.9    156.5   0.000345184   0.00178   0.04213   0.00067   0.00000
   2   63891.9    156.5   0.000322015   0.00166   0.00317   0.04057   0.00000
   3   67523.6    148.1   0.000000298   0.00000   0.00000   0.00000   0.00121
   4   67527.0    148.1   0.000000123   0.00000   0.00000   0.00000   0.00078
   5   68280.3    146.5   0.000000597   0.00000   0.00150   0.00077   0.00000
   6   68314.6    146.4   0.000000124   0.00000   0.00075   0.00020   0.00000
   7   68641.4    145.7   0.077551363   0.37195   0.26859   0.54754   0.00000
   8   68652.8    145.7   0.078715057   0.37746   0.55155   0.27066   0.00000
   9   77453.9    129.1   0.000000066   0.00000   0.00000   0.00000   0.00053
  10   77678.0    128.7   0.000011240   0.00005   0.00000   0.00000   0.00690

-------------------------------------------------------------------
                             CD SPECTRUM
-------------------------------------------------------------------
State   Energy Wavelength       R         MX        MY        MZ   
        (cm-1)   (nm)       (1e40*cgs)   (au)      (au)      (au)  
-------------------------------------------------------------------
   1     156.5   63882.9     -0.00000   0.00000   0.00000   0.00049
   2     156.5   63891.9     -0.00000  -0.00000   0.00000  -0.00119
   3     148.1   67523.6     -0.00001  -0.00436   0.13162   0.00000
   4     148.1   67527.0     -0.00001   0.13122   0.00459  -0.00000
   5     146.5   68280.3     -0.00000   0.00000   0.00000   0.00003
   6     146.4   68314.6      0.00004  -0.00000  -0.00000  -0.34675
   7     145.7   68641.4     -0.00000  -0.00000   0.00000   0.00003
   8     145.7   68652.8      0.00001  -0.00000   0.00000   0.00029
   9     129.1   77453.9      0.00000  -0.00167   0.00219  -0.00000
  10     128.7   77678.0      0.00001   0.05152   0.09999  -0.00000

TDM done (  140.6 sec)


------------------------------------------------------------------------------- 
                                     TIMINGS                                   
------------------------------------------------------------------------------- 


Total execution time                   ...     3917.848 sec

Fock Matrix Formation                  ...       16.969 sec (  0.4%)
Initial Guess                          ...        0.075 sec (  0.0%)
DIIS Solver                            ...        3.681 sec (  0.1%)
State Vector Update                    ...        0.272 sec (  0.0%)
Sigma-vector construction              ...      535.613 sec ( 13.7%)
  <0|H|D>                              ...        0.103 sec (  0.0% of sigma)
  <D|H|D>(0-ext)                       ...        4.189 sec (  0.8% of sigma)
  <D|H|D>(2-ext Fock)                  ...        0.804 sec (  0.2% of sigma)
  <D|H|D>(2-ext)                       ...       24.628 sec (  4.6% of sigma)
  <D|H|D>(4-ext)                       ...      158.814 sec ( 29.7% of sigma)
  <D|H|D>(4-ext-corr)                  ...       47.848 sec (  8.9% of sigma)
  <S|H|0>                              ...        0.228 sec (  0.0% of sigma)
  <S|H|S>                              ...        0.276 sec (  0.1% of sigma)
  <S|H|D>(1-ext)                       ...        0.929 sec (  0.2% of sigma)
  <D|H|S>(1-ext)                       ...        2.237 sec (  0.4% of sigma)
  <S|H|D>(3-ext)                       ...       21.187 sec (  4.0% of sigma)
  Fock-dressing                        ...      223.644 sec ( 41.8% of sigma)
  (ik|jl)-dressing                     ...        2.934 sec (  0.5% of sigma)
  (ij|ab),(ia|jb)-dressing             ...       46.363 sec (  8.7% of sigma)
  Pair energies                        ...        0.192 sec (  0.0% of sigma)
Total Time for computing STEOM-CCSD    ...     2505.057 sec ( 63.9% of ALL)
  Dressing integrals                   ...      327.677 sec ( 13.1% of (STEOM))
  Initial EOM+STEOM-Guess              ...        0.013 sec (  0.0% of (STEOM))
  EOM+STEOM Singles                    ...       52.392 sec (  2.1% of (STEOM))
  EOM Doubles                          ...     2067.318 sec ( 82.5% of (STEOM))
  Build Hamiltonian                    ...        5.055 sec (  0.2% of (STEOM))
  Diagonalize Hamiltonian              ...        1.474 sec (  0.1% of (STEOM))
  Ritz vectors                         ...        6.786 sec (  0.3% of (STEOM))
  Residual vectors                     ...        7.844 sec (  0.3% of (STEOM))
  Orthogonalization                    ...       18.610 sec (  0.7% of (STEOM))
One-particle density matrix            ...        0.290 sec (  0.0%)


Maximum memory used throughout the entire MDCI-calculation: 38971.6 MB

-------------------------   --------------------
FINAL SINGLE POINT ENERGY      -117.363927814248
-------------------------   --------------------


                            ***************************************
                            *     ORCA property calculations      *
                            ***************************************

                                    ---------------------
                                    Active property flags
                                    ---------------------
   (+) Dipole Moment


------------------------------------------------------------------------------
                       ORCA ELECTRIC PROPERTIES CALCULATION
------------------------------------------------------------------------------

Dipole Moment Calculation                       ... on
Quadrupole Moment Calculation                   ... off
Polarizability Calculation                      ... off
GBWName                                         ... 000031.gbw
Electron density file                           ... 000031.scfp
The origin for moment calculation is the CENTER OF MASS  = (-0.000003,  0.000001 -0.000000)

-------------
DIPOLE MOMENT
-------------
                                X             Y             Z
Electronic contribution:     -0.00008       0.00003       0.00000
Nuclear contribution   :      0.00009      -0.00003      -0.00000
                        -----------------------------------------
Total Dipole Moment    :      0.00000      -0.00000       0.00000
                        -----------------------------------------
Magnitude (a.u.)       :      0.00000
Magnitude (Debye)      :      0.00001



--------------------
Rotational spectrum 
--------------------
 
Rotational constants in cm-1:     0.677449     0.677448     0.423884 
Rotational constants in MHz : 20309.412473 20309.394594 12707.735510 

 Dipole components along the rotational axes: 
x,y,z [a.u.] :     0.000004     0.000002     0.000000 
x,y,z [Debye]:     0.000010     0.000005     0.000000 

 

                           *** MDCI DENSITY ***

------------------------------------------------------------------------------
                       ORCA ELECTRIC PROPERTIES CALCULATION
------------------------------------------------------------------------------

Dipole Moment Calculation                       ... on
Quadrupole Moment Calculation                   ... off
Polarizability Calculation                      ... off
GBWName                                         ... 000031.gbw
Electron density file                           ... 000031.mdcip
The origin for moment calculation is the CENTER OF MASS  = (-0.000003,  0.000001 -0.000000)

-------------
DIPOLE MOMENT
-------------
                                X             Y             Z
Electronic contribution:     -0.00008       0.00003       0.00000
Nuclear contribution   :      0.00009      -0.00003      -0.00000
                        -----------------------------------------
Total Dipole Moment    :      0.00001      -0.00000       0.00000
                        -----------------------------------------
Magnitude (a.u.)       :      0.00001
Magnitude (Debye)      :      0.00002



--------------------
Rotational spectrum 
--------------------
 
Rotational constants in cm-1:     0.677449     0.677448     0.423884 
Rotational constants in MHz : 20309.412473 20309.394594 12707.735510 

 Dipole components along the rotational axes: 
x,y,z [a.u.] :     0.000007     0.000003     0.000000 
x,y,z [Debye]:     0.000018     0.000007     0.000000 

 

Timings for individual modules:

Sum of individual times         ...     4065.318 sec (=  67.755 min)
GTO integral calculation        ...        0.887 sec (=   0.015 min)   0.0 %
SCF iterations                  ...      141.129 sec (=   2.352 min)   3.5 %
MDCI module                     ...     3923.302 sec (=  65.388 min)  96.5 %
                             ****ORCA TERMINATED NORMALLY****
TOTAL RUN TIME: 0 days 1 hours 7 minutes 47 seconds 999 msec
