 Entering Gaussian System, Link 0=g16
 Input=000016.com
 Output=000016.log
 Initial command:
 /home/sabyasachi/g16/l1.exe "/scratch/sabyasachi/PBS_7976480.helios/Gau-159648.inp" -scrdir="/scratch/sabyasachi/PBS_7976480.helios/"
 Entering Link 1 = /home/sabyasachi/g16/l1.exe PID=    159649.
  
 Copyright (c) 1988-2019, Gaussian, Inc.  All Rights Reserved.
  
 This is part of the Gaussian(R) 16 program.  It is based on
 the Gaussian(R) 09 system (copyright 2009, Gaussian, Inc.),
 the Gaussian(R) 03 system (copyright 2003, Gaussian, Inc.),
 the Gaussian(R) 98 system (copyright 1998, Gaussian, Inc.),
 the Gaussian(R) 94 system (copyright 1995, Gaussian, Inc.),
 the Gaussian 92(TM) system (copyright 1992, Gaussian, Inc.),
 the Gaussian 90(TM) system (copyright 1990, Gaussian, Inc.),
 the Gaussian 88(TM) system (copyright 1988, Gaussian, Inc.),
 the Gaussian 86(TM) system (copyright 1986, Carnegie Mellon
 University), and the Gaussian 82(TM) system (copyright 1983,
 Carnegie Mellon University). Gaussian is a federally registered
 trademark of Gaussian, Inc.
  
 This software contains proprietary and confidential information,
 including trade secrets, belonging to Gaussian, Inc.
  
 This software is provided under written license and may be
 used, copied, transmitted, or stored only in accord with that
 written license.
  
 The following legend is applicable only to US Government
 contracts under FAR:
  
                    RESTRICTED RIGHTS LEGEND
  
 Use, reproduction and disclosure by the US Government is
 subject to restrictions as set forth in subparagraphs (a)
 and (c) of the Commercial Computer Software - Restricted
 Rights clause in FAR 52.227-19.
  
 Gaussian, Inc.
 340 Quinnipiac St., Bldg. 40, Wallingford CT 06492
  
  
 ---------------------------------------------------------------
 Warning -- This program may not be used in any manner that
 competes with the business of Gaussian, Inc. or will provide
 assistance to any competitor of Gaussian, Inc.  The licensee
 of this program is prohibited from giving any competitor of
 Gaussian, Inc. access to this program.  By using this program,
 the user acknowledges that Gaussian, Inc. is engaged in the
 business of creating and licensing software in the field of
 computational chemistry and represents and warrants to the
 licensee that it is not a competitor of Gaussian, Inc. and that
 it will not use this program in any manner prohibited above.
 ---------------------------------------------------------------
  

 Cite this work as:
 Gaussian 16, Revision C.01,
 M. J. Frisch, G. W. Trucks, H. B. Schlegel, G. E. Scuseria, 
 M. A. Robb, J. R. Cheeseman, G. Scalmani, V. Barone, 
 G. A. Petersson, H. Nakatsuji, X. Li, M. Caricato, A. V. Marenich, 
 J. Bloino, B. G. Janesko, R. Gomperts, B. Mennucci, H. P. Hratchian, 
 J. V. Ortiz, A. F. Izmaylov, J. L. Sonnenberg, D. Williams-Young, 
 F. Ding, F. Lipparini, F. Egidi, J. Goings, B. Peng, A. Petrone, 
 T. Henderson, D. Ranasinghe, V. G. Zakrzewski, J. Gao, N. Rega, 
 G. Zheng, W. Liang, M. Hada, M. Ehara, K. Toyota, R. Fukuda, 
 J. Hasegawa, M. Ishida, T. Nakajima, Y. Honda, O. Kitao, H. Nakai, 
 T. Vreven, K. Throssell, J. A. Montgomery, Jr., J. E. Peralta, 
 F. Ogliaro, M. J. Bearpark, J. J. Heyd, E. N. Brothers, K. N. Kudin, 
 V. N. Staroverov, T. A. Keith, R. Kobayashi, J. Normand, 
 K. Raghavachari, A. P. Rendell, J. C. Burant, S. S. Iyengar, 
 J. Tomasi, M. Cossi, J. M. Millam, M. Klene, C. Adamo, R. Cammi, 
 J. W. Ochterski, R. L. Martin, K. Morokuma, O. Farkas, 
 J. B. Foresman, and D. J. Fox, Gaussian, Inc., Wallingford CT, 2019.
 
 ******************************************
 Gaussian 16:  EM64L-G16RevC.01  3-Jul-2019
                21-Mar-2022 
 ******************************************
 %mem=64gb
 %nproc=8
 Will use up to    8 processors via shared memory.
 ----------------------------------------------------------------------
 #P TD(Nstates=10000) pbe1pbe/Gen SCF(maxcycles=100) Int(Grid=ultrafine
 )
 ----------------------------------------------------------------------
 1/38=1,172=1/1;
 2/12=2,17=6,18=5,40=1/2;
 3/5=7,11=9,25=1,30=1,74=-13,75=-5/1,2,3,8;
 4//1;
 5/5=2,7=100,38=5/2;
 8/6=1,10=1,108=10000/1;
 9/41=10000,42=1,70=2/14;
 6/7=2,8=2,9=2,10=2/1;
 99/5=1,9=1/99;
 Leave Link    1 at Mon Mar 21 20:21:04 2022, MaxMem=  8589934592 cpu:               0.3 elap:               0.0
 (Enter /home/sabyasachi/g16/l101.exe)
 ---------------------
 xGDB7_00001_tier4.com
 ---------------------
 Symbolic Z-matrix:
 Charge =  0 Multiplicity = 1
 6                    -1.20842  -0.23907  -0.02192 
 6                     0.08389   0.55345   0.04673 
 8                     1.23347  -0.256    -0.10586 
 1                    -2.072     0.42514   0.0517 
 1                    -1.27067  -0.95776   0.79973 
 1                    -1.27063  -0.78828  -0.96233 
 1                     0.13003   1.1192    0.98611 
 1                     0.12595   1.27703  -0.76855 
 1                     1.23675  -0.91361   0.59134 
 
 ITRead=  0  0  0  0  0  0  0  0  0
 MicOpt= -1 -1 -1 -1 -1 -1 -1 -1 -1
 NAtoms=      9 NQM=        9 NQMF=       0 NMMI=      0 NMMIF=      0
                NMic=       0 NMicF=      0.
                    Isotopes and Nuclear Properties:
 (Nuclear quadrupole moments (NQMom) in fm**2, nuclear magnetic moments (NMagM)
  in nuclear magnetons)

  Atom         1           2           3           4           5           6           7           8           9
 IAtWgt=          12          12          16           1           1           1           1           1           1
 AtmWgt=  12.0000000  12.0000000  15.9949146   1.0078250   1.0078250   1.0078250   1.0078250   1.0078250   1.0078250
 NucSpn=           0           0           0           1           1           1           1           1           1
 AtZEff=  -0.0000000  -0.0000000  -0.0000000  -0.0000000  -0.0000000  -0.0000000  -0.0000000  -0.0000000  -0.0000000
 NQMom=    0.0000000   0.0000000   0.0000000   0.0000000   0.0000000   0.0000000   0.0000000   0.0000000   0.0000000
 NMagM=    0.0000000   0.0000000   0.0000000   2.7928460   2.7928460   2.7928460   2.7928460   2.7928460   2.7928460
 AtZNuc=   6.0000000   6.0000000   8.0000000   1.0000000   1.0000000   1.0000000   1.0000000   1.0000000   1.0000000
 Leave Link  101 at Mon Mar 21 20:21:04 2022, MaxMem=  8589934592 cpu:               0.6 elap:               0.1
 (Enter /home/sabyasachi/g16/l202.exe)
                          Input orientation:                          
 ---------------------------------------------------------------------
 Center     Atomic      Atomic             Coordinates (Angstroms)
 Number     Number       Type             X           Y           Z
 ---------------------------------------------------------------------
      1          6           0       -1.208422   -0.239069   -0.021917
      2          6           0        0.083893    0.553452    0.046734
      3          8           0        1.233467   -0.256002   -0.105864
      4          1           0       -2.071999    0.425136    0.051700
      5          1           0       -1.270670   -0.957756    0.799731
      6          1           0       -1.270625   -0.788280   -0.962327
      7          1           0        0.130030    1.119197    0.986112
      8          1           0        0.125952    1.277026   -0.768547
      9          1           0        1.236751   -0.913605    0.591341
 ---------------------------------------------------------------------
                    Distance matrix (angstroms):
                    1          2          3          4          5
     1  C    0.000000
     2  C    1.517524   0.000000
     3  O    2.443390   1.414221   0.000000
     4  H    1.091949   2.159713   3.378592   0.000000
     5  H    1.093385   2.164624   2.753773   1.764672   0.000000
     6  H    1.090813   2.157120   2.699505   1.772803   1.770189
     7  H    2.156957   1.097555   2.073923   2.490738   2.512057
     8  H    2.153266   1.090876   2.003974   2.495899   3.066643
     9  H    2.609589   1.943691   0.958409   3.609885   2.516453
                    6          7          8          9
     6  H    0.000000
     7  H    3.065407   0.000000
     8  H    2.500693   1.761748   0.000000
     9  H    2.952376   2.347969   2.807496   0.000000
 Stoichiometry    C2H6O
 Framework group  C1[X(C2H6O)]
 Deg. of freedom    21
 Full point group                 C1      NOp   1
 Largest Abelian subgroup         C1      NOp   1
 Largest concise Abelian subgroup C1      NOp   1
                         Standard orientation:                         
 ---------------------------------------------------------------------
 Center     Atomic      Atomic             Coordinates (Angstroms)
 Number     Number       Type             X           Y           Z
 ---------------------------------------------------------------------
      1          6           0       -1.208422   -0.239069   -0.021917
      2          6           0        0.083893    0.553452    0.046734
      3          8           0        1.233467   -0.256002   -0.105864
      4          1           0       -2.071999    0.425135    0.051700
      5          1           0       -1.270670   -0.957756    0.799731
      6          1           0       -1.270625   -0.788280   -0.962327
      7          1           0        0.130030    1.119197    0.986112
      8          1           0        0.125951    1.277026   -0.768547
      9          1           0        1.236751   -0.913605    0.591341
 ---------------------------------------------------------------------
 Rotational constants (GHZ):          34.6666409           9.2583988           8.1755823
 Leave Link  202 at Mon Mar 21 20:21:04 2022, MaxMem=  8589934592 cpu:               0.1 elap:               0.0
 (Enter /home/sabyasachi/g16/l301.exe)
 General basis read from cards:  (5D, 7F)
 Centers:       4      5      6      7      8      9
 S 3 1.00
     Exponent=  1.3010701000D+01 Coefficients=  1.9682158000D-02
     Exponent=  1.9622572000D+00 Coefficients=  1.3796524000D-01
     Exponent=  4.4453796000D-01 Coefficients=  4.7831935000D-01
 S 1 1.00
     Exponent=  1.2194962000D-01 Coefficients=  1.0000000000D+00
 P 1 1.00
     Exponent=  8.0000000000D-01 Coefficients=  1.0000000000D+00
 P 1 1.00
     Exponent=  1.1704099050D-01 Coefficients=  1.0000000000D+00
 ****
 Centers:       1      2
 S 5 1.00
     Exponent=  1.2384016938D+03 Coefficients=  5.4568832082D-03
     Exponent=  1.8629004992D+02 Coefficients=  4.0638409211D-02
     Exponent=  4.2251176346D+01 Coefficients=  1.8025593888D-01
     Exponent=  1.1676557932D+01 Coefficients=  4.6315121755D-01
     Exponent=  3.5930506482D+00 Coefficients=  4.4087173314D-01
 S 1 1.00
     Exponent=  4.0245147363D-01 Coefficients=  1.0000000000D+00
 S 1 1.00
     Exponent=  1.3090182668D-01 Coefficients=  1.0000000000D+00
 S 1 1.00
     Exponent=  6.7053540256D-02 Coefficients=  1.0000000000D+00
 P 3 1.00
     Exponent=  9.4680970621D+00 Coefficients=  3.8387871728D-02
     Exponent=  2.0103545142D+00 Coefficients=  2.1117025112D-01
     Exponent=  5.4771004707D-01 Coefficients=  5.1328172114D-01
 P 1 1.00
     Exponent=  1.5268613795D-01 Coefficients=  1.0000000000D+00
 D 1 1.00
     Exponent=  8.0000000000D-01 Coefficients=  1.0000000000D+00
 D 1 1.00
     Exponent=  1.1713185140D-01 Coefficients=  1.0000000000D+00
 ****
 Centers:       3
 S 5 1.00
     Exponent=  2.2661767785D+03 Coefficients= -5.3431809926D-03
     Exponent=  3.4087010191D+02 Coefficients= -3.9890039230D-02
     Exponent=  7.7363135167D+01 Coefficients= -1.7853911985D-01
     Exponent=  2.1479644940D+01 Coefficients= -4.6427684959D-01
     Exponent=  6.6589433124D+00 Coefficients= -4.4309745172D-01
 S 1 1.00
     Exponent=  8.0975975668D-01 Coefficients=  1.0000000000D+00
 S 1 1.00
     Exponent=  2.5530772234D-01 Coefficients=  1.0000000000D+00
 S 1 1.00
     Exponent=  7.6572453250D-02 Coefficients=  1.0000000000D+00
 P 3 1.00
     Exponent=  1.7721504317D+01 Coefficients=  4.3394573193D-02
     Exponent=  3.8635505440D+00 Coefficients=  2.3094120765D-01
     Exponent=  1.0480920883D+00 Coefficients=  5.1375311064D-01
 P 1 1.00
     Exponent=  2.7641544411D-01 Coefficients=  1.0000000000D+00
 P 1 1.00
     Exponent=  6.9002276350D-02 Coefficients=  1.0000000000D+00
 D 1 1.00
     Exponent=  1.2000000000D+00 Coefficients=  1.0000000000D+00
 D 1 1.00
     Exponent=  1.7992024323D-01 Coefficients=  1.0000000000D+00
 ****
 Ernie: Thresh=  0.10000D-02 Tol=  0.10000D-05 Strict=F.
 There are   117 symmetry adapted cartesian basis functions of A   symmetry.
 There are   111 symmetry adapted basis functions of A   symmetry.
   111 basis functions,   159 primitive gaussians,   117 cartesian basis functions
    13 alpha electrons       13 beta electrons
       nuclear repulsion energy        81.9103171642 Hartrees.
 IExCor= 1009 DFT=T Ex+Corr=PBE1PBE ExCW=0 ScaHFX=  0.250000
 ScaDFX=  0.750000  0.750000  1.000000  1.000000 ScalE2=  1.000000  1.000000
 IRadAn=      5 IRanWt=     -1 IRanGd=            0 ICorTp=0 IEmpDi=  4
 NAtoms=    9 NActive=    9 NUniq=    9 SFac= 1.00D+00 NAtFMM=   60 NAOKFM=F Big=F
 Integral buffers will be    131072 words long.
 Regular integral format.
 Two-electron integral symmetry is turned on.
 Leave Link  301 at Mon Mar 21 20:21:04 2022, MaxMem=  8589934592 cpu:               0.5 elap:               0.1
 (Enter /home/sabyasachi/g16/l302.exe)
 NPDir=0 NMtPBC=     1 NCelOv=     1 NCel=       1 NClECP=     1 NCelD=      1
         NCelK=      1 NCelE2=     1 NClLst=     1 CellRange=     0.0.
 One-electron integrals computed using PRISM.
 One-electron integral symmetry used in STVInt
 NBasis=   111 RedAO= T EigKep=  3.00D-04  NBF=   111
 NBsUse=   111 1.00D-06 EigRej= -1.00D+00 NBFU=   111
 Precomputing XC quadrature grid using
 IXCGrd= 4 IRadAn=           5 IRanWt=          -1 IRanGd=           0 AccXCQ= 0.00D+00.
 Generated NRdTot=       0 NPtTot=           0 NUsed=           0 NTot=          32
 NSgBfM=   117   117   117   117   117 MxSgAt=     9 MxSgA2=     9.
 Leave Link  302 at Mon Mar 21 20:21:04 2022, MaxMem=  8589934592 cpu:               1.1 elap:               0.2
 (Enter /home/sabyasachi/g16/l303.exe)
 DipDrv:  MaxL=1.
 Leave Link  303 at Mon Mar 21 20:21:04 2022, MaxMem=  8589934592 cpu:               0.2 elap:               0.0
 (Enter /home/sabyasachi/g16/l308.exe)
 Leave Link  308 at Mon Mar 21 20:21:04 2022, MaxMem=  8589934592 cpu:               0.2 elap:               0.1
 (Enter /home/sabyasachi/g16/l401.exe)
 ExpMin= 6.71D-02 ExpMax= 2.27D+03 ExpMxC= 3.41D+02 IAcc=3 IRadAn=         5 AccDes= 0.00D+00
 Harris functional with IExCor= 1009 and IRadAn=       5 diagonalized for initial guess.
 HarFok:  IExCor= 1009 AccDes= 0.00D+00 IRadAn=         5 IDoV= 1 UseB2=F ITyADJ=14
 ICtDFT=  3500011 ScaDFX=  1.000000  1.000000  1.000000  1.000000
 FoFCou: FMM=F IPFlag=           0 FMFlag=      100000 FMFlg1=           0
         NFxFlg=           0 DoJE=T BraDBF=F KetDBF=T FulRan=T
         wScrn=  0.000000 ICntrl=       500 IOpCl=  0 I1Cent=   200000004 NGrid=           0
         NMat0=    1 NMatS0=      1 NMatT0=    0 NMatD0=    1 NMtDS0=    0 NMtDT0=    0
 Petite list used in FoFCou.
 Harris En= -154.830272887315    
 JPrj=0 DoOrth=F DoCkMO=F.
 Leave Link  401 at Mon Mar 21 20:21:05 2022, MaxMem=  8589934592 cpu:               3.5 elap:               0.5
 (Enter /home/sabyasachi/g16/l502.exe)
 Keep R1 ints in memory in canonical form, NReq=26869764.
 FoFCou: FMM=F IPFlag=           0 FMFlag=           0 FMFlg1=           0
         NFxFlg=           0 DoJE=F BraDBF=F KetDBF=F FulRan=T
         wScrn=  0.000000 ICntrl=       600 IOpCl=  0 I1Cent=           0 NGrid=           0
         NMat0=    1 NMatS0=   6216 NMatT0=    0 NMatD0=    1 NMtDS0=    0 NMtDT0=    0
 Symmetry not used in FoFCou.
 Two-electron integral symmetry not used.
 Closed shell SCF:
 Using DIIS extrapolation, IDIIS=  1040.
 NGot=  8589934592 LenX=  8570582328 LenY=  8570568198
 Requested convergence on RMS density matrix=1.00D-08 within 100 cycles.
 Requested convergence on MAX density matrix=1.00D-06.
 Requested convergence on             energy=1.00D-06.
 No special actions if energy rises.
 Integral accuracy reduced to 1.0D-05 until final iterations.

 Cycle   1  Pass 0  IDiag  1:
 E= -154.651138620385    
 DIIS: error= 2.65D-02 at cycle   1 NSaved=   1.
 NSaved= 1 IEnMin= 1 EnMin= -154.651138620385     IErMin= 1 ErrMin= 2.65D-02
 ErrMax= 2.65D-02  0.00D+00 EMaxC= 1.00D-01 BMatC= 1.08D-01 BMatP= 1.08D-01
 IDIUse=3 WtCom= 7.35D-01 WtEn= 2.65D-01
 Coeff-Com:  0.100D+01
 Coeff-En:   0.100D+01
 Coeff:      0.100D+01
 Gap=     0.231 Goal=   None    Shift=    0.000
 GapD=    0.231 DampG=1.000 DampE=0.500 DampFc=0.5000 IDamp=-1.
 Damping current iteration by 5.00D-01
 RMSDP=6.49D-03 MaxDP=1.58D-01              OVMax= 1.55D-01

 Cycle   2  Pass 0  IDiag  1:
 E= -154.696998288999     Delta-E=       -0.045859668614 Rises=F Damp=T
 DIIS: error= 5.38D-03 at cycle   2 NSaved=   2.
 NSaved= 2 IEnMin= 2 EnMin= -154.696998288999     IErMin= 2 ErrMin= 5.38D-03
 ErrMax= 5.38D-03  0.00D+00 EMaxC= 1.00D-01 BMatC= 5.47D-03 BMatP= 1.08D-01
 IDIUse=3 WtCom= 9.46D-01 WtEn= 5.38D-02
 Coeff-Com:  0.954D-01 0.905D+00
 Coeff-En:   0.146D+00 0.854D+00
 Coeff:      0.982D-01 0.902D+00
 Gap=     0.322 Goal=   None    Shift=    0.000
 RMSDP=1.89D-03 MaxDP=3.67D-02 DE=-4.59D-02 OVMax= 9.73D-02

 Cycle   3  Pass 0  IDiag  1:
 E= -154.755955566802     Delta-E=       -0.058957277804 Rises=F Damp=F
 DIIS: error= 2.70D-03 at cycle   3 NSaved=   3.
 NSaved= 3 IEnMin= 3 EnMin= -154.755955566802     IErMin= 3 ErrMin= 2.70D-03
 ErrMax= 2.70D-03  0.00D+00 EMaxC= 1.00D-01 BMatC= 2.42D-03 BMatP= 5.47D-03
 IDIUse=3 WtCom= 9.73D-01 WtEn= 2.70D-02
 Coeff-Com:  0.109D-01 0.382D+00 0.607D+00
 Coeff-En:   0.000D+00 0.000D+00 0.100D+01
 Coeff:      0.106D-01 0.372D+00 0.617D+00
 Gap=     0.313 Goal=   None    Shift=    0.000
 RMSDP=5.34D-04 MaxDP=1.18D-02 DE=-5.90D-02 OVMax= 1.39D-02

 Cycle   4  Pass 0  IDiag  1:
 E= -154.757469472245     Delta-E=       -0.001513905443 Rises=F Damp=F
 DIIS: error= 1.22D-03 at cycle   4 NSaved=   4.
 NSaved= 4 IEnMin= 4 EnMin= -154.757469472245     IErMin= 4 ErrMin= 1.22D-03
 ErrMax= 1.22D-03  0.00D+00 EMaxC= 1.00D-01 BMatC= 4.71D-04 BMatP= 2.42D-03
 IDIUse=3 WtCom= 9.88D-01 WtEn= 1.22D-02
 Coeff-Com: -0.581D-02 0.719D-01 0.322D+00 0.612D+00
 Coeff-En:   0.000D+00 0.000D+00 0.157D+00 0.843D+00
 Coeff:     -0.574D-02 0.711D-01 0.320D+00 0.615D+00
 Gap=     0.314 Goal=   None    Shift=    0.000
 RMSDP=1.89D-04 MaxDP=4.40D-03 DE=-1.51D-03 OVMax= 4.50D-03

 Cycle   5  Pass 0  IDiag  1:
 E= -154.757860590231     Delta-E=       -0.000391117985 Rises=F Damp=F
 DIIS: error= 2.12D-04 at cycle   5 NSaved=   5.
 NSaved= 5 IEnMin= 5 EnMin= -154.757860590231     IErMin= 5 ErrMin= 2.12D-04
 ErrMax= 2.12D-04  0.00D+00 EMaxC= 1.00D-01 BMatC= 8.24D-06 BMatP= 4.71D-04
 IDIUse=3 WtCom= 9.98D-01 WtEn= 2.12D-03
 Coeff-Com: -0.222D-02 0.164D-02 0.640D-01 0.194D+00 0.743D+00
 Coeff-En:   0.000D+00 0.000D+00 0.000D+00 0.000D+00 0.100D+01
 Coeff:     -0.222D-02 0.163D-02 0.639D-01 0.193D+00 0.743D+00
 Gap=     0.314 Goal=   None    Shift=    0.000
 RMSDP=3.76D-05 MaxDP=5.12D-04 DE=-3.91D-04 OVMax= 6.42D-04

 Cycle   6  Pass 0  IDiag  1:
 E= -154.757867155537     Delta-E=       -0.000006565306 Rises=F Damp=F
 DIIS: error= 3.58D-05 at cycle   6 NSaved=   6.
 NSaved= 6 IEnMin= 6 EnMin= -154.757867155537     IErMin= 6 ErrMin= 3.58D-05
 ErrMax= 3.58D-05  0.00D+00 EMaxC= 1.00D-01 BMatC= 3.26D-07 BMatP= 8.24D-06
 IDIUse=1 WtCom= 1.00D+00 WtEn= 0.00D+00
 Coeff-Com: -0.689D-03-0.574D-03 0.200D-01 0.679D-01 0.305D+00 0.608D+00
 Coeff:     -0.689D-03-0.574D-03 0.200D-01 0.679D-01 0.305D+00 0.608D+00
 Gap=     0.314 Goal=   None    Shift=    0.000
 RMSDP=7.47D-06 MaxDP=2.08D-04 DE=-6.57D-06 OVMax= 1.43D-04

 Initial convergence to 1.0D-05 achieved.  Increase integral accuracy.
 Cycle   7  Pass 1  IDiag  1:
 E= -154.757872035701     Delta-E=       -0.000004880164 Rises=F Damp=F
 DIIS: error= 9.09D-06 at cycle   1 NSaved=   1.
 NSaved= 1 IEnMin= 1 EnMin= -154.757872035701     IErMin= 1 ErrMin= 9.09D-06
 ErrMax= 9.09D-06  0.00D+00 EMaxC= 1.00D-01 BMatC= 1.76D-08 BMatP= 1.76D-08
 IDIUse=1 WtCom= 1.00D+00 WtEn= 0.00D+00
 Coeff-Com:  0.100D+01
 Coeff:      0.100D+01
 Gap=     0.314 Goal=   None    Shift=    0.000
 RMSDP=7.47D-06 MaxDP=2.08D-04 DE=-4.88D-06 OVMax= 5.91D-05

 Cycle   8  Pass 1  IDiag  1:
 E= -154.757872033814     Delta-E=        0.000000001887 Rises=F Damp=F
 DIIS: error= 9.92D-06 at cycle   2 NSaved=   2.
 NSaved= 2 IEnMin= 1 EnMin= -154.757872035701     IErMin= 1 ErrMin= 9.09D-06
 ErrMax= 9.92D-06  0.00D+00 EMaxC= 1.00D-01 BMatC= 1.99D-08 BMatP= 1.76D-08
 IDIUse=1 WtCom= 1.00D+00 WtEn= 0.00D+00
 Coeff-Com:  0.516D+00 0.484D+00
 Coeff:      0.516D+00 0.484D+00
 Gap=     0.314 Goal=   None    Shift=    0.000
 RMSDP=1.40D-06 MaxDP=4.62D-05 DE= 1.89D-09 OVMax= 3.14D-05

 Cycle   9  Pass 1  IDiag  1:
 E= -154.757872052866     Delta-E=       -0.000000019052 Rises=F Damp=F
 DIIS: error= 4.47D-07 at cycle   3 NSaved=   3.
 NSaved= 3 IEnMin= 3 EnMin= -154.757872052866     IErMin= 3 ErrMin= 4.47D-07
 ErrMax= 4.47D-07  0.00D+00 EMaxC= 1.00D-01 BMatC= 4.87D-11 BMatP= 1.76D-08
 IDIUse=1 WtCom= 1.00D+00 WtEn= 0.00D+00
 Coeff-Com:  0.114D+00 0.121D+00 0.765D+00
 Coeff:      0.114D+00 0.121D+00 0.765D+00
 Gap=     0.314 Goal=   None    Shift=    0.000
 RMSDP=1.38D-07 MaxDP=1.40D-06 DE=-1.91D-08 OVMax= 1.90D-06

 Cycle  10  Pass 1  IDiag  1:
 E= -154.757872052912     Delta-E=       -0.000000000046 Rises=F Damp=F
 DIIS: error= 1.22D-07 at cycle   4 NSaved=   4.
 NSaved= 4 IEnMin= 4 EnMin= -154.757872052912     IErMin= 4 ErrMin= 1.22D-07
 ErrMax= 1.22D-07  0.00D+00 EMaxC= 1.00D-01 BMatC= 3.18D-12 BMatP= 4.87D-11
 IDIUse=1 WtCom= 1.00D+00 WtEn= 0.00D+00
 Coeff-Com: -0.112D-01-0.629D-02 0.179D+00 0.838D+00
 Coeff:     -0.112D-01-0.629D-02 0.179D+00 0.838D+00
 Gap=     0.314 Goal=   None    Shift=    0.000
 RMSDP=3.30D-08 MaxDP=4.70D-07 DE=-4.59D-11 OVMax= 8.09D-07

 Cycle  11  Pass 1  IDiag  1:
 E= -154.757872052912     Delta-E=       -0.000000000000 Rises=F Damp=F
 DIIS: error= 5.86D-08 at cycle   5 NSaved=   5.
 NSaved= 5 IEnMin= 5 EnMin= -154.757872052912     IErMin= 5 ErrMin= 5.86D-08
 ErrMax= 5.86D-08  0.00D+00 EMaxC= 1.00D-01 BMatC= 9.19D-13 BMatP= 3.18D-12
 IDIUse=1 WtCom= 1.00D+00 WtEn= 0.00D+00
 Coeff-Com: -0.120D-01-0.955D-02 0.627D-01 0.466D+00 0.493D+00
 Coeff:     -0.120D-01-0.955D-02 0.627D-01 0.466D+00 0.493D+00
 Gap=     0.314 Goal=   None    Shift=    0.000
 RMSDP=8.00D-09 MaxDP=1.99D-07 DE=-1.71D-13 OVMax= 1.86D-07

 SCF Done:  E(RPBE1PBE) =  -154.757872053     A.U. after   11 cycles
            NFock= 11  Conv=0.80D-08     -V/T= 2.0099
 KE= 1.532422545102D+02 PE=-5.248571550247D+02 EE= 1.349467112974D+02
 Leave Link  502 at Mon Mar 21 20:21:08 2022, MaxMem=  8589934592 cpu:              25.1 elap:               3.4
 (Enter /home/sabyasachi/g16/l801.exe)
 DoSCS=F DFT=T ScalE2(SS,OS)=  1.000000  1.000000
 ExpMin= 6.71D-02 ExpMax= 2.27D+03 ExpMxC= 3.41D+02 IAcc=3 IRadAn=         5 AccDes= 0.00D+00
 HarFok:  IExCor=  205 AccDes= 0.00D+00 IRadAn=         5 IDoV=-2 UseB2=F ITyADJ=14
 ICtDFT= 12500011 ScaDFX=  1.000000  1.000000  1.000000  1.000000
 Largest valence mixing into a core orbital is  7.29D-05
 Largest core mixing into a valence orbital is  1.99D-05
 Range of M.O.s used for correlation:     4   111
 NBasis=   111 NAE=    13 NBE=    13 NFC=     3 NFV=     0
 NROrb=    108 NOA=    10 NOB=    10 NVA=    98 NVB=    98

 **** Warning!!: The largest alpha MO coefficient is  0.22508652D+02

 Leave Link  801 at Mon Mar 21 20:21:08 2022, MaxMem=  8589934592 cpu:               0.7 elap:               0.1
 (Enter /home/sabyasachi/g16/l914.exe)
 RHF ground state
 Keep R1, R2, and R3 ints in memory in canonical form, NReq=1127667128.
 FoFCou: FMM=F IPFlag=           0 FMFlag=           0 FMFlg1=           0
         NFxFlg=           0 DoJE=F BraDBF=F KetDBF=F FulRan=T
         wScrn=  0.000000 ICntrl=       600 IOpCl=  0 I1Cent=           0 NGrid=           0
         NMat0=    1 NMatS0=   6216 NMatT0=    0 NMatD0=    1 NMtDS0=    0 NMtDT0=    0
 Symmetry not used in FoFCou.
 Two-electron integral symmetry not used.
 MDV=  8589934592 DFT=T DoStab=F Mixed=T DoRPA=T DoScal=F NonHer=T
 Making orbital integer symmetry assigments:
 Orbital symmetries:
       Occupied  (A) (A) (A) (A) (A) (A) (A) (A) (A) (A) (A) (A)
                 (A)
       Virtual   (A) (A) (A) (A) (A) (A) (A) (A) (A) (A) (A) (A)
                 (A) (A) (A) (A) (A) (A) (A) (A) (A) (A) (A) (A)
                 (A) (A) (A) (A) (A) (A) (A) (A) (A) (A) (A) (A)
                 (A) (A) (A) (A) (A) (A) (A) (A) (A) (A) (A) (A)
                 (A) (A) (A) (A) (A) (A) (A) (A) (A) (A) (A) (A)
                 (A) (A) (A) (A) (A) (A) (A) (A) (A) (A) (A) (A)
                 (A) (A) (A) (A) (A) (A) (A) (A) (A) (A) (A) (A)
                 (A) (A) (A) (A) (A) (A) (A) (A) (A) (A) (A) (A)
                 (A) (A)
   980 initial guesses have been made.
 Convergence on wavefunction:    0.001000000000000
 Davidson Disk Diagonalization:  ConvIn= 1.00D-03 SkipCon=T Conv= 1.00D-03.
 Max sub-space:  5880 roots to seek:  1960 dimension of matrix:         1960
 *** WARNING: Number of orthogonal guesses is          980
 Iteration     1 Dimension   980 NMult     0 NNew    980
 CISAX will form   980 AO SS matrices at one time.
 NMat=   980 NSing=   980 JSym2X= 0.
 New state      8 was old state     10
 New state      9 was old state      8
 New state     10 was old state      9
 New state     11 was old state     12
 New state     12 was old state     11
 New state     17 was old state     20
 New state     18 was old state     19
 New state     19 was old state     17
 New state     20 was old state     18
 New state     21 was old state     22
 New state     22 was old state     21
 New state     24 was old state     26
 New state     25 was old state     24
 New state     26 was old state     25
 New state     27 was old state     28
 New state     28 was old state     27
 New state     33 was old state     37
 New state     34 was old state     33
 New state     36 was old state     34
 New state     37 was old state     36
 New state     40 was old state     41
 New state     41 was old state     40
 New state     42 was old state     45
 New state     43 was old state     44
 New state     44 was old state     42
 New state     45 was old state     43
 New state     48 was old state     49
 New state     49 was old state     51
 New state     50 was old state     48
 New state     51 was old state     50
 New state     53 was old state     54
 New state     54 was old state     55
 New state     55 was old state     59
 New state     56 was old state     60
 New state     57 was old state     56
 New state     59 was old state     57
 New state     60 was old state     63
 New state     61 was old state     62
 New state     62 was old state     61
 New state     63 was old state     66
 New state     64 was old state     65
 New state     65 was old state     64
 New state     66 was old state     67
 New state     67 was old state     73
 New state     69 was old state     71
 New state     70 was old state     74
 New state     71 was old state     70
 New state     72 was old state     69
 New state     73 was old state     72
 New state     74 was old state     78
 New state     76 was old state     77
 New state     77 was old state     76
 New state     78 was old state     79
 New state     79 was old state     86
 New state     82 was old state     85
 New state     84 was old state     89
 New state     85 was old state     84
 New state     86 was old state     82
 New state     89 was old state     90
 New state     90 was old state     91
 New state     91 was old state     92
 New state     92 was old state     95
 New state     95 was old state     96
 New state     96 was old state     98
 New state     97 was old state     99
 New state     98 was old state     97
 New state     99 was old state    102
 New state    102 was old state    104
 New state    104 was old state    111
 New state    106 was old state    109
 New state    107 was old state    106
 New state    108 was old state    107
 New state    109 was old state    114
 New state    110 was old state    112
 New state    111 was old state    110
 New state    112 was old state    108
 New state    114 was old state    115
 New state    115 was old state    118
 New state    118 was old state    119
 New state    119 was old state    120
 New state    120 was old state    124
 New state    122 was old state    123
 New state    123 was old state    122
 New state    124 was old state    126
 New state    125 was old state    128
 New state    126 was old state    134
 New state    128 was old state    129
 New state    129 was old state    125
 New state    130 was old state    133
 New state    131 was old state    130
 New state    133 was old state    135
 New state    134 was old state    137
 New state    135 was old state    136
 New state    136 was old state    131
 New state    137 was old state    138
 New state    138 was old state    139
 New state    139 was old state    140
 New state    140 was old state    141
 New state    141 was old state    142
 New state    142 was old state    144
 New state    144 was old state    145
 New state    145 was old state    149
 New state    146 was old state    147
 New state    147 was old state    146
 New state    149 was old state    150
 New state    150 was old state    154
 New state    151 was old state    153
 New state    152 was old state    151
 New state    153 was old state    161
 New state    154 was old state    152
 New state    157 was old state    159
 New state    158 was old state    157
 New state    159 was old state    158
 New state    161 was old state    162
 New state    162 was old state    168
 New state    163 was old state    164
 New state    164 was old state    166
 New state    165 was old state    167
 New state    166 was old state    165
 New state    167 was old state    169
 New state    168 was old state    178
 New state    169 was old state    170
 New state    170 was old state    171
 New state    171 was old state    176
 New state    172 was old state    174
 New state    173 was old state    172
 New state    174 was old state    173
 New state    176 was old state    184
 New state    178 was old state    180
 New state    179 was old state    181
 New state    180 was old state    182
 New state    181 was old state    179
 New state    182 was old state    189
 New state    184 was old state    185
 New state    185 was old state    188
 New state    186 was old state    190
 New state    188 was old state    186
 New state    189 was old state    195
 New state    190 was old state    191
 New state    191 was old state    196
 New state    192 was old state    193
 New state    193 was old state    194
 New state    194 was old state    192
 New state    195 was old state    198
 New state    196 was old state    197
 New state    197 was old state    225
 New state    198 was old state    200
 New state    199 was old state    202
 New state    200 was old state    199
 New state    202 was old state    207
 New state    203 was old state    206
 New state    204 was old state    205
 New state    205 was old state    203
 New state    206 was old state    209
 New state    207 was old state    204
 New state    208 was old state    217
 New state    209 was old state    215
 New state    210 was old state    208
 New state    211 was old state    210
 New state    212 was old state    214
 New state    214 was old state    211
 New state    215 was old state    218
 New state    216 was old state    221
 New state    217 was old state    219
 New state    218 was old state    216
 New state    219 was old state    220
 New state    220 was old state    224
 New state    221 was old state    223
 New state    223 was old state    228
 New state    224 was old state    226
 New state    225 was old state    227
 New state    226 was old state    232
 New state    227 was old state    238
 New state    228 was old state    251
 New state    229 was old state    236
 New state    230 was old state    229
 New state    231 was old state    237
 New state    232 was old state    230
 New state    233 was old state    234
 New state    234 was old state    233
 New state    236 was old state    239
 New state    237 was old state    231
 New state    238 was old state    242
 New state    239 was old state    240
 New state    240 was old state    244
 New state    242 was old state    243
 New state    243 was old state    249
 New state    244 was old state    245
 New state    245 was old state    246
 New state    246 was old state    250
 New state    248 was old state    254
 New state    249 was old state    256
 New state    250 was old state    252
 New state    251 was old state    253
 New state    252 was old state    255
 New state    253 was old state    257
 New state    254 was old state    261
 New state    255 was old state    260
 New state    256 was old state    258
 New state    257 was old state    259
 New state    258 was old state    263
 New state    259 was old state    269
 New state    260 was old state    270
 New state    261 was old state    278
 New state    263 was old state    271
 New state    264 was old state    268
 New state    265 was old state    264
 New state    266 was old state    267
 New state    267 was old state    265
 New state    268 was old state    266
 New state    269 was old state    272
 New state    270 was old state    274
 New state    271 was old state    276
 No map to state    272
 New state    273 was old state    277
 New state    274 was old state    273
 New state    276 was old state    281
 New state    277 was old state    279
 New state    278 was old state    280
 New state    279 was old state    285
 New state    280 was old state    282
 New state    281 was old state    286
 New state    282 was old state    293
 New state    285 was old state    287
 New state    286 was old state    288
 New state    287 was old state    294
 New state    288 was old state    290
 New state    289 was old state    300
 New state    290 was old state    292
 New state    291 was old state    289
 New state    292 was old state    291
 New state    293 was old state    298
 New state    294 was old state    296
 New state    295 was old state    297
 New state    296 was old state    295
 New state    297 was old state    310
 New state    298 was old state    299
 New state    299 was old state    302
 New state    300 was old state    301
 New state    301 was old state    309
 New state    302 was old state    303
 New state    303 was old state    305
 New state    304 was old state    306
 New state    305 was old state    304
 New state    306 was old state    319
 New state    307 was old state    308
 New state    308 was old state    307
 New state    309 was old state    313
 New state    310 was old state    312
 New state    312 was old state    317
 New state    313 was old state    314
 New state    314 was old state    316
 New state    316 was old state    325
 New state    317 was old state    332
 New state    319 was old state    321
 New state    321 was old state    334
 New state    322 was old state    326
 New state    323 was old state    322
 New state    324 was old state    331
 New state    325 was old state    324
 New state    326 was old state    327
 New state    327 was old state    323
 New state    329 was old state    333
 New state    330 was old state    329
 New state    331 was old state    330
 New state    332 was old state    337
 New state    333 was old state    340
 New state    334 was old state    339
 New state    335 was old state    336
 New state    336 was old state    335
 New state    337 was old state    338
 New state    338 was old state    343
 New state    339 was old state    341
 New state    340 was old state    342
 New state    341 was old state    349
 New state    342 was old state    344
 New state    343 was old state    350
 New state    344 was old state    345
 New state    345 was old state    353
 New state    346 was old state    358
 New state    348 was old state    346
 New state    349 was old state    348
 New state    350 was old state    356
 New state    351 was old state    352
 New state    352 was old state    355
 New state    353 was old state    351
 New state    355 was old state    357
 New state    356 was old state    363
 New state    357 was old state    360
 New state    358 was old state    359
 New state    359 was old state    361
 No map to state    360
 New state    361 was old state    362
 New state    362 was old state    364
 New state    363 was old state    365
 New state    364 was old state    367
 New state    365 was old state    366
 New state    366 was old state    370
 New state    367 was old state    368
 New state    368 was old state    369
 New state    369 was old state    371
 New state    370 was old state    373
 New state    371 was old state    372
 New state    372 was old state    379
 New state    373 was old state    374
 New state    374 was old state    375
 New state    375 was old state    376
 New state    376 was old state    378
 New state    378 was old state    381
 New state    379 was old state    382
 New state    381 was old state    383
 New state    382 was old state    384
 New state    383 was old state    385
 New state    384 was old state    386
 New state    385 was old state    388
 No map to state    386
 New state    387 was old state    392
 New state    388 was old state    387
 New state    390 was old state    391
 New state    391 was old state    390
 New state    392 was old state    393
 New state    393 was old state    399
 New state    395 was old state    396
 New state    396 was old state    398
 New state    397 was old state    400
 New state    398 was old state    404
 New state    399 was old state    397
 New state    400 was old state    401
 New state    401 was old state    405
 New state    403 was old state    410
 New state    404 was old state    395
 New state    405 was old state    409
 New state    406 was old state    403
 New state    407 was old state    406
 New state    408 was old state    413
 New state    409 was old state    407
 New state    410 was old state    412
 New state    411 was old state    408
 New state    412 was old state    414
 New state    413 was old state    416
 New state    414 was old state    411
 New state    416 was old state    418
 New state    417 was old state    439
 New state    418 was old state    417
 New state    419 was old state    422
 New state    420 was old state    419
 New state    422 was old state    420
 New state    423 was old state    425
 New state    424 was old state    423
 New state    425 was old state    424
 New state    427 was old state    428
 New state    428 was old state    429
 New state    429 was old state    427
 New state    430 was old state    431
 New state    431 was old state    430
 New state    435 was old state    438
 New state    436 was old state    437
 New state    437 was old state    435
 New state    438 was old state    436
 New state    439 was old state    445
 New state    440 was old state    441
 New state    441 was old state    444
 New state    442 was old state    440
 New state    443 was old state    448
 New state    444 was old state    442
 New state    445 was old state    449
 New state    447 was old state    443
 New state    448 was old state    450
 New state    449 was old state    447
 New state    450 was old state    452
 New state    451 was old state    457
 New state    452 was old state    453
 New state    453 was old state    454
 New state    454 was old state    455
 New state    455 was old state    451
 New state    456 was old state    458
 New state    457 was old state    462
 New state    458 was old state    460
 New state    459 was old state    461
 New state    460 was old state    456
 New state    461 was old state    459
 New state    462 was old state    466
 New state    463 was old state    469
 New state    464 was old state    463
 New state    465 was old state    472
 New state    466 was old state    473
 New state    468 was old state    465
 New state    469 was old state    476
 New state    470 was old state    474
 New state    471 was old state    470
 New state    472 was old state    477
 New state    473 was old state    468
 New state    474 was old state    471
 New state    475 was old state    478
 New state    476 was old state    481
 New state    477 was old state    475
 New state    478 was old state    479
 New state    479 was old state    483
 New state    480 was old state    486
 New state    481 was old state    491
 New state    482 was old state    480
 New state    483 was old state    484
 New state    484 was old state    482
 New state    485 was old state    489
 New state    486 was old state    490
 New state    487 was old state    493
 New state    488 was old state    485
 New state    489 was old state    488
 New state    490 was old state    487
 New state    491 was old state    498
 New state    492 was old state    499
 New state    493 was old state    501
 New state    494 was old state    492
 New state    495 was old state    503
 New state    497 was old state    495
 New state    498 was old state    494
 New state    499 was old state    507
 New state    500 was old state    497
 New state    501 was old state    500
 New state    503 was old state    506
 New state    505 was old state    508
 New state    506 was old state    505
 New state    507 was old state    511
 New state    508 was old state    509
 New state    509 was old state    517
 New state    510 was old state    515
 New state    511 was old state    516
 New state    513 was old state    510
 New state    514 was old state    518
 New state    515 was old state    513
 New state    516 was old state    522
 New state    517 was old state    514
 New state    518 was old state    520
 New state    520 was old state    523
 New state    521 was old state    525
 New state    522 was old state    526
 New state    523 was old state    528
 New state    524 was old state    531
 New state    525 was old state    521
 New state    526 was old state    527
 New state    527 was old state    529
 New state    528 was old state    530
 New state    529 was old state    524
 New state    530 was old state    539
 New state    531 was old state    536
 New state    534 was old state    538
 New state    535 was old state    534
 New state    536 was old state    537
 New state    537 was old state    535
 New state    538 was old state    540
 New state    539 was old state    542
 New state    540 was old state    541
 New state    541 was old state    544
 New state    542 was old state    543
 New state    543 was old state    548
 New state    544 was old state    547
 New state    545 was old state    549
 New state    546 was old state    551
 New state    547 was old state    550
 New state    548 was old state    545
 New state    549 was old state    554
 New state    550 was old state    546
 New state    551 was old state    552
 New state    552 was old state    553
 New state    553 was old state    557
 New state    554 was old state    555
 New state    555 was old state    558
 New state    557 was old state    559
 New state    558 was old state    561
 New state    559 was old state    560
 New state    560 was old state    568
 New state    561 was old state    562
 New state    562 was old state    565
 New state    565 was old state    566
 New state    566 was old state    567
 New state    567 was old state    569
 New state    568 was old state    571
 New state    569 was old state    570
 No map to state    570
 New state    571 was old state    574
 New state    573 was old state    575
 New state    574 was old state    573
 New state    575 was old state    576
 New state    576 was old state    577
 New state    577 was old state    579
 New state    578 was old state    580
 New state    579 was old state    578
 New state    580 was old state    581
 New state    581 was old state    582
 New state    582 was old state    584
 New state    584 was old state    586
 New state    585 was old state    589
 New state    586 was old state    585
 New state    587 was old state    588
 New state    588 was old state    587
 New state    589 was old state    594
 New state    592 was old state    595
 New state    593 was old state    592
 New state    594 was old state    593
 New state    595 was old state    597
 New state    596 was old state    600
 New state    597 was old state    599
 New state    598 was old state    596
 New state    599 was old state    598
 New state    600 was old state    602
 New state    602 was old state    604
 New state    604 was old state    605
 New state    605 was old state    606
 New state    606 was old state    607
 New state    607 was old state    608
 New state    608 was old state    609
 New state    609 was old state    610
 New state    610 was old state    612
 New state    612 was old state    614
 New state    613 was old state    619
 New state    614 was old state    613
 New state    615 was old state    617
 New state    616 was old state    618
 New state    617 was old state    615
 New state    618 was old state    616
 New state    619 was old state    621
 New state    620 was old state    622
 New state    621 was old state    623
 New state    622 was old state    625
 New state    623 was old state    624
 New state    624 was old state    637
 New state    625 was old state    620
 New state    626 was old state    628
 New state    628 was old state    631
 New state    629 was old state    633
 New state    630 was old state    626
 New state    631 was old state    630
 New state    632 was old state    629
 New state    633 was old state    632
 New state    634 was old state    638
 New state    635 was old state    639
 New state    637 was old state    634
 New state    638 was old state    635
 New state    639 was old state    640
 New state    640 was old state    644
 New state    641 was old state    642
 New state    642 was old state    641
 New state    644 was old state    645
 New state    645 was old state    647
 New state    647 was old state    648
 New state    648 was old state    655
 New state    649 was old state    650
 New state    650 was old state    649
 New state    653 was old state    659
 New state    654 was old state    653
 New state    655 was old state    654
 New state    656 was old state    658
 New state    657 was old state    656
 New state    658 was old state    661
 New state    659 was old state    657
 New state    661 was old state    662
 New state    662 was old state    664
 New state    664 was old state    667
 New state    665 was old state    666
 New state    666 was old state    670
 New state    667 was old state    672
 New state    668 was old state    671
 New state    669 was old state    665
 New state    670 was old state    669
 New state    671 was old state    668
 New state    672 was old state    674
 New state    674 was old state    677
 New state    675 was old state    679
 New state    676 was old state    675
 New state    677 was old state    678
 New state    678 was old state    676
 New state    679 was old state    680
 New state    680 was old state    683
 New state    683 was old state    685
 New state    684 was old state    689
 New state    685 was old state    684
 No map to state    687
 New state    688 was old state    687
 New state    689 was old state    690
 New state    690 was old state    688
 New state    691 was old state    692
 New state    692 was old state    691
 New state    694 was old state    696
 New state    695 was old state    694
 New state    696 was old state    697
 New state    697 was old state    698
 New state    698 was old state    695
 New state    700 was old state    702
 New state    701 was old state    700
 New state    702 was old state    704
 New state    703 was old state    701
 New state    704 was old state    706
 New state    705 was old state    703
 New state    706 was old state    707
 New state    707 was old state    705
 New state    708 was old state    709
 New state    709 was old state    710
 New state    710 was old state    708
 New state    712 was old state    713
 New state    713 was old state    712
 New state    721 was old state    722
 New state    722 was old state    724
 New state    723 was old state    721
 New state    724 was old state    723
 New state    726 was old state    727
 New state    727 was old state    728
 New state    728 was old state    729
 New state    729 was old state    726
 New state    730 was old state    731
 New state    731 was old state    732
 New state    732 was old state    730
 New state    733 was old state    735
 New state    734 was old state    733
 New state    735 was old state    734
 New state    745 was old state    748
 New state    746 was old state    745
 New state    747 was old state    749
 New state    748 was old state    746
 New state    749 was old state    747
 New state    750 was old state    755
 New state    751 was old state    750
 New state    753 was old state    751
 New state    754 was old state    753
 New state    755 was old state    760
 New state    756 was old state    754
 New state    757 was old state    756
 New state    758 was old state    757
 New state    760 was old state    758
 New state    762 was old state    763
 New state    763 was old state    762
 New state    766 was old state    769
 New state    769 was old state    766
 New state    772 was old state    773
 New state    773 was old state    772
 New state    774 was old state    775
 New state    775 was old state    774
 New state    776 was old state    777
 New state    777 was old state    778
 New state    778 was old state    776
 New state    783 was old state    785
 New state    784 was old state    783
 New state    785 was old state    784
 New state    786 was old state    789
 New state    787 was old state    788
 New state    788 was old state    787
 New state    789 was old state    786
 New state    790 was old state    791
 New state    791 was old state    792
 New state    792 was old state    794
 New state    794 was old state    790
 New state    796 was old state    798
 New state    797 was old state    796
 New state    798 was old state    797
 New state    803 was old state    804
 New state    804 was old state    803
 New state    807 was old state    808
 New state    808 was old state    807
 New state    810 was old state    811
 New state    811 was old state    810
 New state    812 was old state    813
 New state    813 was old state    812
 New state    818 was old state    819
 New state    819 was old state    818
 New state    821 was old state    822
 New state    822 was old state    821
 New state    825 was old state    828
 New state    826 was old state    827
 New state    827 was old state    826
 New state    828 was old state    825
 New state    829 was old state    830
 New state    830 was old state    831
 New state    831 was old state    829
 New state    832 was old state    834
 New state    833 was old state    835
 New state    834 was old state    833
 New state    835 was old state    832
 New state    840 was old state    841
 New state    841 was old state    844
 New state    842 was old state    843
 New state    843 was old state    840
 New state    844 was old state    842
 New state    845 was old state    846
 New state    846 was old state    845
 New state    851 was old state    854
 New state    854 was old state    851
 New state    858 was old state    860
 New state    859 was old state    858
 New state    860 was old state    859
 New state    863 was old state    864
 New state    864 was old state    863
 New state    874 was old state    876
 New state    876 was old state    874
 New state    877 was old state    879
 New state    878 was old state    877
 New state    879 was old state    880
 New state    880 was old state    878
 New state    881 was old state    882
 New state    882 was old state    885
 New state    883 was old state    881
 New state    885 was old state    883
 New state    888 was old state    889
 New state    889 was old state    891
 New state    890 was old state    888
 New state    891 was old state    890
 New state    893 was old state    894
 New state    894 was old state    893
 New state    895 was old state    896
 New state    896 was old state    897
 New state    897 was old state    899
 New state    898 was old state    901
 New state    899 was old state    900
 New state    900 was old state    898
 New state    901 was old state    902
 New state    902 was old state    905
 New state    905 was old state    906
 New state    906 was old state    907
 New state    907 was old state    914
 New state    909 was old state    910
 New state    910 was old state    909
 New state    911 was old state    915
 New state    912 was old state    911
 New state    913 was old state    912
 New state    914 was old state    913
 New state    915 was old state    916
 New state    916 was old state    919
 New state    919 was old state    921
 New state    921 was old state    926
 New state    922 was old state    924
 New state    923 was old state    922
 New state    924 was old state    923
 New state    925 was old state    927
 New state    926 was old state    929
 New state    927 was old state    925
 New state    929 was old state    931
 New state    930 was old state    932
 New state    931 was old state    933
 New state    932 was old state    934
 New state    933 was old state    930
 New state    934 was old state    938
 New state    937 was old state    939
 New state    938 was old state    937
 New state    939 was old state    940
 New state    940 was old state    941
 New state    941 was old state    942
 New state    942 was old state    946
 New state    944 was old state    945
 New state    945 was old state    944
 New state    946 was old state    947
 New state    947 was old state    948
 New state    948 was old state    949
 New state    949 was old state    955
 New state    955 was old state    957
 No map to state    957
 New state    967 was old state    968
 New state    968 was old state    967
 Excitation Energies [eV] at current iteration:
 Root      1 :     7.039215211055434
 Root      2 :     8.118940796736915
 Root      3 :     8.492592933302678
 Root      4 :     8.524226965825921
 Root      5 :     8.947693074766107
 Root      6 :     9.427921335627163
 Root      7 :     9.700197254979251
 Root      8 :     9.794469464115423
 Root      9 :     9.804456231546764
 Root     10 :     9.860305098127935
 Root     11 :    10.079461080954120
 Root     12 :    10.152560445458680
 Root     13 :    10.307034868621470
 Root     14 :    10.488163402443570
 Root     15 :    10.724214128248810
 Root     16 :    10.795132541382730
 Root     17 :    10.894564087538520
 Root     18 :    10.974532419172260
 Root     19 :    11.021458372608480
 Root     20 :    11.088303212906160
 Root     21 :    11.197151776766580
 Root     22 :    11.344948486777770
 Root     23 :    11.518420372824870
 Root     24 :    11.550511487917940
 Root     25 :    11.607483479123320
 Root     26 :    11.635265719755030
 Root     27 :    11.824552114895210
 Root     28 :    11.884732152429720
 Root     29 :    11.919134546423360
 Root     30 :    12.117507080710430
 Root     31 :    12.169053006153860
 Root     32 :    12.212606781228350
 Root     33 :    12.353662666910710
 Root     34 :    12.366566207186310
 Root     35 :    12.420374813794910
 Root     36 :    12.487798744556780
 Root     37 :    12.504299126070190
 Root     38 :    12.542124355045420
 Root     39 :    12.677359225971660
 Root     40 :    12.707502190763530
 Root     41 :    12.795104884038700
 Root     42 :    12.894606588370230
 Root     43 :    12.934790189600380
 Root     44 :    12.996665716854930
 Root     45 :    13.058094261120190
 Root     46 :    13.107251778611780
 Root     47 :    13.193873969150450
 Root     48 :    13.266358890078180
 Root     49 :    13.346264749928140
 Root     50 :    13.408639156355030
 Root     51 :    13.462627350940810
 Root     52 :    13.561407684512840
 Root     53 :    13.646109570475230
 Root     54 :    13.727974694966930
 Root     55 :    13.770364044661080
 Root     56 :    13.791700909102490
 Root     57 :    13.933809500581600
 Root     58 :    13.970589778073360
 Root     59 :    13.995585139405240
 Root     60 :    14.038252452924500
 Root     61 :    14.147016529866070
 Root     62 :    14.217981471508810
 Root     63 :    14.324486931843670
 Root     64 :    14.339130971411710
 Root     65 :    14.377333426145720
 Root     66 :    14.446768781946830
 Root     67 :    14.505068946318640
 Root     68 :    14.587734322380260
 Root     69 :    14.672550384844450
 Root     70 :    14.747933212363860
 Root     71 :    14.780927241486220
 Root     72 :    14.857077692484350
 Root     73 :    14.923293878685840
 Root     74 :    14.943979313861120
 Root     75 :    15.011184913368240
 Root     76 :    15.046785938958780
 Root     77 :    15.090067197306700
 Root     78 :    15.145530679732000
 Root     79 :    15.158890050527130
 Root     80 :    15.229935086002710
 Root     81 :    15.331324087362710
 Root     82 :    15.402596280169400
 Root     83 :    15.442396390043590
 Root     84 :    15.474328884081910
 Root     85 :    15.494061322229330
 Root     86 :    15.524600228455070
 Root     87 :    15.622668572300710
 Root     88 :    15.687679335261140
 Root     89 :    15.761979153144790
 Root     90 :    15.808212235211610
 Root     91 :    15.831364772954030
 Root     92 :    15.889515854993650
 Root     93 :    15.902292275730970
 Root     94 :    15.959890666858390
 Root     95 :    16.033814973413950
 Root     96 :    16.169420331439350
 Root     97 :    16.215446179922790
 Root     98 :    16.265595704473380
 Root     99 :    16.340734746684340
 Root    100 :    16.363143150469240
 Root    101 :    16.417419120461830
 Root    102 :    16.447431561367060
 Root    103 :    16.500561431304940
 Root    104 :    16.595803420922290
 Root    105 :    16.679840102981150
 Root    106 :    16.737390015314470
 Root    107 :    16.740400933963520
 Root    108 :    16.797669439457020
 Root    109 :    16.812145154711010
 Root    110 :    16.852952298537640
 Root    111 :    16.896804433187970
 Root    112 :    16.955505632035720
 Root    113 :    16.972681557440270
 Root    114 :    16.992820682043240
 Root    115 :    17.056838424235150
 Root    116 :    17.121315777979270
 Root    117 :    17.145015630784650
 Root    118 :    17.220254610296720
 Root    119 :    17.224367291017270
 Root    120 :    17.289783717504380
 Root    121 :    17.333152843421610
 Root    122 :    17.409333363873620
 Root    123 :    17.497991876042850
 Root    124 :    17.517596856232410
 Root    125 :    17.623922892014080
 Root    126 :    17.646604275166650
 Root    127 :    17.681388392873630
 Root    128 :    17.697984881889750
 Root    129 :    17.819638268725860
 Root    130 :    17.880879709850190
 Root    131 :    17.917871038413150
 Root    132 :    17.948294680752330
 Root    133 :    17.974047954717380
 Root    134 :    18.030148676364570
 Root    135 :    18.069015119412730
 Root    136 :    18.081370767034010
 Root    137 :    18.147967290878530
 Root    138 :    18.172303445182350
 Root    139 :    18.180411175826120
 Root    140 :    18.222711065318790
 Root    141 :    18.256073181411240
 Root    142 :    18.352665945717170
 Root    143 :    18.392650709527220
 Root    144 :    18.481509278678430
 Root    145 :    18.500655777607860
 Root    146 :    18.514664742614920
 Root    147 :    18.550411891949090
 Root    148 :    18.597947878864510
 Root    149 :    18.628410104568560
 Root    150 :    18.697745524298000
 Root    151 :    18.777430452358510
 Root    152 :    18.814483570692470
 Root    153 :    18.841392354982720
 Root    154 :    18.889231557816570
 Root    155 :    18.941606642152010
 Root    156 :    19.008403998387830
 Root    157 :    19.063707339302680
 Root    158 :    19.118769941005390
 Root    159 :    19.160221726261800
 Root    160 :    19.184196658880410
 Root    161 :    19.237234481209560
 Root    162 :    19.262284928182650
 Root    163 :    19.280128284253290
 Root    164 :    19.355611743285210
 Root    165 :    19.397890518395910
 Root    166 :    19.410339073464640
 Root    167 :    19.491261573699380
 Root    168 :    19.524412687816270
 Root    169 :    19.591898234724990
 Root    170 :    19.627574669905780
 Root    171 :    19.666536702043210
 Root    172 :    19.692205672224200
 Root    173 :    19.698132466202690
 Root    174 :    19.732986532710700
 Root    175 :    19.783488923701310
 Root    176 :    19.831263964856980
 Root    177 :    19.900730215068120
 Root    178 :    19.915415703898830
 Root    179 :    19.970847456329240
 Root    180 :    20.001142713020370
 Root    181 :    20.024154889641840
 Root    182 :    20.077670504774830
 Root    183 :    20.117869375613350
 Root    184 :    20.135247931212390
 Root    185 :    20.187909221637490
 Root    186 :    20.218114130556340
 Root    187 :    20.274294932532800
 Root    188 :    20.328068952975800
 Root    189 :    20.350066420722400
 Root    190 :    20.372673399453010
 Root    191 :    20.395910418722130
 Root    192 :    20.440930613602850
 Root    193 :    20.530959009726420
 Root    194 :    20.563601090162520
 Root    195 :    20.590332847793600
 Root    196 :    20.631442248332000
 Root    197 :    20.668645793796550
 Root    198 :    20.704546018008300
 Root    199 :    20.746160951777540
 Root    200 :    20.814200478584250
 Root    201 :    20.859267794850950
 Root    202 :    20.890009254906530
 Root    203 :    20.904104910409450
 Root    204 :    20.941533242083850
 Root    205 :    21.020819243927810
 Root    206 :    21.054849574307240
 Root    207 :    21.080182085893350
 Root    208 :    21.091019534719220
 Root    209 :    21.130843261715090
 Root    210 :    21.145882846140660
 Root    211 :    21.171109458435410
 Root    212 :    21.210128813567380
 Root    213 :    21.272431095960480
 Root    214 :    21.333125300456550
 Root    215 :    21.357813931689330
 Root    216 :    21.382963272088510
 Root    217 :    21.417526160054220
 Root    218 :    21.427752515386620
 Root    219 :    21.460431765543580
 Root    220 :    21.478683134279410
 Root    221 :    21.530874640102210
 Root    222 :    21.575107931672350
 Root    223 :    21.642391934534740
 Root    224 :    21.698462321232970
 Root    225 :    21.737065087079620
 Root    226 :    21.814438083977730
 Root    227 :    21.887933684225800
 Root    228 :    21.900742992143930
 Root    229 :    21.935691022608490
 Root    230 :    21.967375072360080
 Root    231 :    21.981553090338960
 Root    232 :    22.001740329256500
 Root    233 :    22.065054834204340
 Root    234 :    22.108310042703720
 Root    235 :    22.120152656769050
 Root    236 :    22.143022663069040
 Root    237 :    22.181970024652910
 Root    238 :    22.189726551308330
 Root    239 :    22.225489640521050
 Root    240 :    22.249462240174640
 Root    241 :    22.333767833073490
 Root    242 :    22.345047235671670
 Root    243 :    22.417104131515060
 Root    244 :    22.442064354726560
 Root    245 :    22.547887900885940
 Root    246 :    22.577392852003370
 Root    247 :    22.618626935838270
 Root    248 :    22.636803351654460
 Root    249 :    22.678054427800930
 Root    250 :    22.726909556013820
 Root    251 :    22.745833900552100
 Root    252 :    22.800626292863410
 Root    253 :    22.833892585601380
 Root    254 :    22.852694526527110
 Root    255 :    22.870408405436230
 Root    256 :    22.957060857406890
 Root    257 :    22.998643389723420
 Root    258 :    23.018414230339690
 Root    259 :    23.049641111057850
 Root    260 :    23.111488523662150
 Root    261 :    23.192549157022300
 Root    262 :    23.240544568159410
 Root    263 :    23.262302228997220
 Root    264 :    23.295503432907560
 Root    265 :    23.308285145228330
 Root    266 :    23.343488242485390
 Root    267 :    23.391718620806780
 Root    268 :    23.408624320786550
 Root    269 :    23.457697640417160
 Root    270 :    23.493074567059990
 Root    271 :    23.521236407135500
 Root    272 :    23.610626660460480
 Root    273 :    23.686532416418610
 Root    274 :    23.737303150930340
 Root    275 :    23.755576115147340
 Root    276 :    23.823165620075930
 Root    277 :    23.919205339081260
 Root    278 :    23.926947522526000
 Root    279 :    23.945609796546840
 Root    280 :    23.999509055854470
 Root    281 :    24.080213657274930
 Root    282 :    24.144993689115560
 Root    283 :    24.177865858240710
 Root    284 :    24.233906390174010
 Root    285 :    24.243676241183130
 Root    286 :    24.268288269620320
 Root    287 :    24.329109953335290
 Root    288 :    24.349455641935340
 Root    289 :    24.437375561925930
 Root    290 :    24.471781325877770
 Root    291 :    24.478930139132150
 Root    292 :    24.529637656195060
 Root    293 :    24.607675369950960
 Root    294 :    24.622457395777210
 Root    295 :    24.650255358872750
 Root    296 :    24.701703246409180
 Root    297 :    24.722691271081970
 Root    298 :    24.753807522519510
 Root    299 :    24.786668756022910
 Root    300 :    24.793287003241250
 Root    301 :    24.884316214325620
 Root    302 :    24.935306829225220
 Root    303 :    24.988096647577510
 Root    304 :    25.076450605893700
 Root    305 :    25.113241204726120
 Root    306 :    25.177443658540870
 Root    307 :    25.228062591727840
 Root    308 :    25.271157194695360
 Root    309 :    25.354761886818900
 Root    310 :    25.459798923241080
 Root    311 :    25.505255041418680
 Root    312 :    25.512123149940720
 Root    313 :    25.600712818542120
 Root    314 :    25.612563921121650
 Root    315 :    25.669376673421190
 Root    316 :    25.699073070830700
 Root    317 :    25.766284687188320
 Root    318 :    25.829642583338880
 Root    319 :    25.854225084710760
 Root    320 :    25.893694479881360
 Root    321 :    25.908428025255830
 Root    322 :    25.938334070450890
 Root    323 :    26.134450722429220
 Root    324 :    26.187853493034880
 Root    325 :    26.209510259846080
 Root    326 :    26.239733151503650
 Root    327 :    26.247264691387190
 Root    328 :    26.289321466611040
 Root    329 :    26.373095342322870
 Root    330 :    26.394482892430440
 Root    331 :    26.422634199380680
 Root    332 :    26.517743361763730
 Root    333 :    26.540033119714210
 Root    334 :    26.593558237589010
 Root    335 :    26.698149626533950
 Root    336 :    26.765296492230090
 Root    337 :    26.837894544609250
 Root    338 :    26.880704900022500
 Root    339 :    27.000009042130260
 Root    340 :    27.028461857366890
 Root    341 :    27.229131719788160
 Root    342 :    27.250464140525310
 Root    343 :    27.314672086085760
 Root    344 :    27.360301690723900
 Root    345 :    27.422879620273780
 Root    346 :    27.477431286429500
 Root    347 :    27.492127354034150
 Root    348 :    27.541369055559960
 Root    349 :    27.599970303281810
 Root    350 :    27.689805567890510
 Root    351 :    27.771044286723640
 Root    352 :    27.819314515605460
 Root    353 :    27.839508898814320
 Root    354 :    27.879911160481750
 Root    355 :    27.947952050557150
 Root    356 :    28.035245085103510
 Root    357 :    28.065966835833530
 Root    358 :    28.131376639292750
 Root    359 :    28.254115283709060
 Root    360 :    28.285808458389010
 Root    361 :    28.351223316188330
 Root    362 :    28.517322599336820
 Root    363 :    28.620879722559650
 Root    364 :    28.703903520438430
 Root    365 :    28.802633167859380
 Root    366 :    28.862241268848030
 Root    367 :    28.908733271172100
 Root    368 :    28.921473778436170
 Root    369 :    28.961584382199430
 Root    370 :    28.990840138558260
 Root    371 :    29.113103452652080
 Root    372 :    29.192186869675070
 Root    373 :    29.239150115657940
 Root    374 :    29.305475245157120
 Root    375 :    29.403800144366090
 Root    376 :    29.423632589632120
 Root    377 :    29.442335952350970
 Root    378 :    29.506938698776820
 Root    379 :    29.554668297776840
 Root    380 :    29.586174709881430
 Root    381 :    29.597860394847060
 Root    382 :    29.651795070476010
 Root    383 :    29.734838033425500
 Root    384 :    29.801763147737330
 Root    385 :    29.804883092113320
 Root    386 :    29.834355488039050
 Root    387 :    30.021797942462210
 Root    388 :    30.141072218984310
 Root    389 :    30.157632023254390
 Root    390 :    30.250204164036870
 Root    391 :    30.334278626502200
 Root    392 :    30.464530741821210
 Root    393 :    30.558470564025910
 Root    394 :    30.632350328566050
 Root    395 :    30.718157699051790
 Root    396 :    30.774958341940890
 Root    397 :    30.836455586703210
 Root    398 :    30.875440963193420
 Root    399 :    30.881089510809250
 Root    400 :    30.909264910638060
 Root    401 :    30.954249959029460
 Root    402 :    31.026926702491510
 Root    403 :    31.067991980887640
 Root    404 :    31.131064957950850
 Root    405 :    31.171906103310810
 Root    406 :    31.184169511105860
 Root    407 :    31.279898553236740
 Root    408 :    31.290507601090510
 Root    409 :    31.346136766731270
 Root    410 :    31.421084303383570
 Root    411 :    31.470685007710600
 Root    412 :    31.555444347942980
 Root    413 :    31.579246779440410
 Root    414 :    31.627873509092790
 Root    415 :    31.847174272605470
 Root    416 :    31.905384483863110
 Root    417 :    31.961792672371060
 Root    418 :    32.022946581147840
 Root    419 :    32.234543750454390
 Root    420 :    32.259089114564330
 Root    421 :    32.357005928580010
 Root    422 :    32.374553662483660
 Root    423 :    32.625515682267310
 Root    424 :    32.685816473596500
 Root    425 :    32.726527640318650
 Root    426 :    32.821556715929080
 Root    427 :    32.873345862233290
 Root    428 :    32.991516427697460
 Root    429 :    33.010543172623540
 Root    430 :    33.099632312581950
 Root    431 :    33.129573866095690
 Root    432 :    33.202111517251720
 Root    433 :    33.314557930584040
 Root    434 :    33.616827810870440
 Root    435 :    33.632887928892200
 Root    436 :    33.670145811482930
 Root    437 :    33.718995182131890
 Root    438 :    33.787372631402860
 Root    439 :    33.835543515181290
 Root    440 :    33.896521117389130
 Root    441 :    34.003788738979440
 Root    442 :    34.057948383924950
 Root    443 :    34.109367609026320
 Root    444 :    34.126934717389100
 Root    445 :    34.162242008679900
 Root    446 :    34.215424575522490
 Root    447 :    34.236858707613680
 Root    448 :    34.347311386113450
 Root    449 :    34.385012812781210
 Root    450 :    34.515514542770830
 Root    451 :    34.713308894413220
 Root    452 :    34.796766432241820
 Root    453 :    34.825662822190380
 Root    454 :    34.859067243197210
 Root    455 :    34.884127037612580
 Root    456 :    35.087052974718110
 Root    457 :    35.117426987098700
 Root    458 :    35.167065956110630
 Root    459 :    35.280645160439700
 Root    460 :    35.295916744056380
 Root    461 :    35.531821337443200
 Root    462 :    35.601288430591360
 Root    463 :    35.624270767987590
 Root    464 :    35.711692725361120
 Root    465 :    35.803887823197990
 Root    466 :    35.861030065980220
 Root    467 :    35.885948045319990
 Root    468 :    35.950074475570590
 Root    469 :    35.969678353821140
 Root    470 :    36.036152777740320
 Root    471 :    36.137452868071750
 Root    472 :    36.140465094775730
 Root    473 :    36.223370382354900
 Root    474 :    36.274165366678960
 Root    475 :    36.319150753082810
 Root    476 :    36.417394444683130
 Root    477 :    36.439243752965720
 Root    478 :    36.530750321019570
 Root    479 :    36.646451143959340
 Root    480 :    36.700631835128430
 Root    481 :    36.910468236214380
 Root    482 :    36.935836952000080
 Root    483 :    37.039209985186620
 Root    484 :    37.143180884756510
 Root    485 :    37.212606663272490
 Root    486 :    37.356354642351450
 Root    487 :    37.372894619869340
 Root    488 :    37.420359285382800
 Root    489 :    37.462761753108910
 Root    490 :    37.515586743583900
 Root    491 :    37.555170208498720
 Root    492 :    37.624649533476010
 Root    493 :    37.704235081056130
 Root    494 :    37.817593151545840
 Root    495 :    37.848331059905320
 Root    496 :    37.996481465817350
 Root    497 :    38.040680580683580
 Root    498 :    38.152343862323270
 Root    499 :    38.189734325408290
 Root    500 :    38.260472532300720
 Root    501 :    38.397852414381760
 Root    502 :    38.410903345869700
 Root    503 :    38.487444581689630
 Root    504 :    38.677595465708390
 Root    505 :    38.752645156816750
 Root    506 :    38.846713181772160
 Root    507 :    38.912425760435500
 Root    508 :    38.962319887124580
 Root    509 :    38.973797425476130
 Root    510 :    39.124400669920720
 Root    511 :    39.269188588679950
 Root    512 :    39.304710966557900
 Root    513 :    39.328948096035820
 Root    514 :    39.381008963027170
 Root    515 :    39.427113093085550
 Root    516 :    39.513741690372660
 Root    517 :    39.574156433838120
 Root    518 :    39.778946354940270
 Root    519 :    39.833520199892170
 Root    520 :    39.873201633279500
 Root    521 :    39.982864284135960
 Root    522 :    40.202259135748370
 Root    523 :    40.294913985319610
 Root    524 :    40.384571389479040
 Root    525 :    40.420358795339820
 Root    526 :    40.483222114812260
 Root    527 :    40.558245630069930
 Root    528 :    40.624101503694570
 Root    529 :    40.635914100819440
 Root    530 :    40.732456349112990
 Root    531 :    40.916812221445940
 Root    532 :    40.931047114229440
 Root    533 :    40.987495962612430
 Root    534 :    40.996844300252000
 Root    535 :    41.010729511591750
 Root    536 :    41.211992757378470
 Root    537 :    41.318703583081220
 Root    538 :    41.385141393313590
 Root    539 :    41.435781379624690
 Root    540 :    41.557138096790730
 Root    541 :    41.649131125412620
 Root    542 :    41.857352032662160
 Root    543 :    41.888265800889740
 Root    544 :    41.974507401440790
 Root    545 :    42.169122100685450
 Root    546 :    42.204238209867890
 Root    547 :    42.262143436655440
 Root    548 :    42.401460870617060
 Root    549 :    42.441913497889420
 Root    550 :    42.532146961709530
 Root    551 :    42.587445559628700
 Root    552 :    42.741449408619170
 Root    553 :    43.068826749047470
 Root    554 :    43.171764305499830
 Root    555 :    43.289112588590170
 Root    556 :    43.312731257691560
 Root    557 :    43.373891550194810
 Root    558 :    43.503562252959860
 Root    559 :    43.646039371422470
 Root    560 :    43.804469241418510
 Root    561 :    43.942352601951410
 Root    562 :    44.128494361418180
 Root    563 :    44.230158711573330
 Root    564 :    44.333628472566500
 Root    565 :    44.416576809552750
 Root    566 :    44.478930608277590
 Root    567 :    44.623156827421450
 Root    568 :    44.654133692291770
 Root    569 :    44.723046133113840
 Root    570 :    44.883678550033430
 Root    571 :    45.120565635791710
 Root    572 :    45.299080290235050
 Root    573 :    45.586831292353110
 Root    574 :    45.607293067045840
 Root    575 :    45.754510169595060
 Root    576 :    45.924945192982480
 Root    577 :    46.225800009566460
 Root    578 :    46.426335588713850
 Root    579 :    46.493578183527650
 Root    580 :    46.540917280492990
 Root    581 :    46.643917165091860
 Root    582 :    46.655673973750370
 Root    583 :    46.757647955449830
 Root    584 :    46.902099282014940
 Root    585 :    47.158531968076090
 Root    586 :    47.519197585358380
 Root    587 :    47.758907548022660
 Root    588 :    47.795044001756400
 Root    589 :    47.930889732039460
 Root    590 :    48.179996228655390
 Root    591 :    48.821333008107910
 Root    592 :    48.895587893279100
 Root    593 :    49.123736415802310
 Root    594 :    49.206394062875150
 Root    595 :    49.754986716008620
 Root    596 :    49.805509854884600
 Root    597 :    49.896536973594170
 Root    598 :    50.002000714020790
 Root    599 :    50.121218685553710
 Root    600 :    50.328565638980450
 Root    601 :    50.388969705416220
 Root    602 :    50.594294821199240
 Root    603 :    50.624041414069450
 Root    604 :    50.847916904181390
 Root    605 :    51.010360111102920
 Root    606 :    51.158548140959990
 Root    607 :    51.184288702506020
 Root    608 :    51.211316791042960
 Root    609 :    51.412047397456000
 Root    610 :    51.482387446151950
 Root    611 :    51.535433174603070
 Root    612 :    51.701085033159000
 Root    613 :    51.790113810699130
 Root    614 :    51.859136453267440
 Root    615 :    51.948338877226890
 Root    616 :    52.040454114107600
 Root    617 :    52.078701534910240
 Root    618 :    52.138230219158500
 Root    619 :    52.359140128625330
 Root    620 :    52.437808825066500
 Root    621 :    52.632139951101890
 Root    622 :    52.759811506727680
 Root    623 :    52.834468448498950
 Root    624 :    52.919805285724780
 Root    625 :    53.126177603960450
 Root    626 :    53.183217748292870
 Root    627 :    53.503300564892490
 Root    628 :    53.571289273014290
 Root    629 :    53.610575033056340
 Root    630 :    53.631795894885780
 Root    631 :    53.675010431412160
 Root    632 :    53.881527570711190
 Root    633 :    53.995231548420900
 Root    634 :    54.071504106784740
 Root    635 :    54.338566846686600
 Root    636 :    54.356785622061240
 Root    637 :    54.365041286042860
 Root    638 :    54.504149443827020
 Root    639 :    54.553883862370500
 Root    640 :    54.599247460384550
 Root    641 :    54.747406757760540
 Root    642 :    54.880662916960650
 Root    643 :    54.974501800630920
 Root    644 :    55.144031879052920
 Root    645 :    55.283976819367910
 Root    646 :    55.332429906134400
 Root    647 :    55.538735945658970
 Root    648 :    55.705853474889170
 Root    649 :    56.306783021347440
 Root    650 :    56.342191438466720
 Root    651 :    56.524044397198320
 Root    652 :    56.575007940748870
 Root    653 :    56.779939936815910
 Root    654 :    56.854779482660300
 Root    655 :    57.041212775766070
 Root    656 :    57.087855718724970
 Root    657 :    57.141402929092650
 Root    658 :    57.223713924659350
 Root    659 :    57.379023433205360
 Root    660 :    57.431060851698700
 Root    661 :    57.439916857626220
 Root    662 :    57.540696855232530
 Root    663 :    58.045418630969800
 Root    664 :    58.083490353948370
 Root    665 :    58.203313442160440
 Root    666 :    58.267062241528700
 Root    667 :    58.342824354919210
 Root    668 :    58.511285013606520
 Root    669 :    58.612946440633650
 Root    670 :    58.672027949744060
 Root    671 :    58.836829209143140
 Root    672 :    58.991422970374070
 Root    673 :    59.197986449596760
 Root    674 :    59.411079273902340
 Root    675 :    59.496929861461930
 Root    676 :    59.547017027388080
 Root    677 :    59.627496795718980
 Root    678 :    59.672466558979130
 Root    679 :    59.704619856627650
[...]
     15   0.985992D-01  0.218715D+00  0.125451D+00  0.209114D+00  0.332556D+00
     16  -0.460450D-01 -0.153517D+00  0.305268D-01  0.326951D-01 -0.902791D-01
               911           912           913           914           915 
      1  -0.151311D+03 -0.151308D+03 -0.151303D+03 -0.151303D+03 -0.151293D+03
      2  -0.243637D-01  0.582382D-01  0.571620D-01  0.485497D-01  0.351913D-01
      3  -0.119340D-01 -0.310161D-01  0.340652D-01  0.804636D-01 -0.676794D-02
      4   0.514727D-01 -0.216589D-01 -0.449088D-01  0.827972D-01  0.595848D-01
      5   0.787505D-01 -0.179483D+00 -0.161630D+00 -0.141502D+00 -0.112505D+00
      6   0.307241D-01  0.961732D-01 -0.100110D+00 -0.230850D+00  0.135903D-01
      7  -0.149633D+00  0.677387D-01  0.149143D+00 -0.237059D+00 -0.171785D+00
      8   0.560701D-01 -0.427895D-01 -0.384672D-01 -0.842081D-01 -0.526459D-01
      9   0.483783D+00 -0.307085D+00 -0.307469D+00  0.464410D-01 -0.293829D-04
     10  -0.314893D+00 -0.190498D+00 -0.478144D-01 -0.195574D+00 -0.791418D-01
     11   0.892386D+00 -0.230901D+00 -0.522902D+00 -0.238835D+00 -0.386247D+00
     12   0.209863D-01  0.148008D+00 -0.168859D+00  0.397877D-01 -0.924638D-01
     13   0.833205D-01 -0.109185D+00 -0.748175D-01  0.937926D-02  0.261355D-01
     14  -0.431598D+00  0.897466D-01  0.690624D-01 -0.112208D-01 -0.108770D+00
     15  -0.500370D+00  0.356481D+00  0.215450D+00  0.354666D-03 -0.408857D-01
     16   0.234929D-01 -0.899464D-01 -0.176176D+00 -0.225090D-01 -0.395688D-01
               916           917           918           919           920 
      1  -0.151285D+03 -0.151277D+03 -0.151268D+03 -0.151258D+03 -0.151252D+03
      2   0.136605D-01 -0.103708D-03  0.764965D-01  0.837611D-01  0.120937D-01
      3  -0.516554D-01 -0.218006D-01  0.468890D-01 -0.828049D-02  0.418301D-01
      4  -0.694319D-01  0.217185D-02  0.149970D-01 -0.650286D-01 -0.101587D+00
      5  -0.352135D-01 -0.727822D-03 -0.230800D+00 -0.266162D+00 -0.273544D-01
      6   0.150176D+00  0.647958D-01 -0.148342D+00  0.235093D-01 -0.137865D+00
      7   0.220460D+00  0.272237D-02 -0.401471D-01  0.198499D+00  0.312861D+00
      8  -0.138964D+00 -0.109165D+00 -0.320946D-01  0.509946D-01 -0.138530D+00
      9  -0.801272D+00  0.840724D-01  0.281711D+00 -0.375031D+00 -0.453728D+00
     10  -0.234879D+00  0.300899D+00 -0.334490D+00 -0.410717D-01 -0.399369D+00
     11  -0.711480D+00  0.632898D+00 -0.289830D+00 -0.139404D+00  0.227369D+00
     12   0.127493D+00  0.775654D-01  0.346028D+00 -0.208455D+00  0.168962D+00
     13  -0.189968D+00 -0.108024D+00  0.511916D-01 -0.179694D-01 -0.179866D+00
     14  -0.794044D-01  0.128738D+00 -0.116465D+00 -0.699498D-02 -0.278584D+00
     15   0.860709D+00 -0.175038D+00 -0.210787D+00  0.440071D+00  0.482375D+00
     16  -0.781141D-01 -0.129282D+00  0.997156D-01  0.138238D-01  0.487065D-02
               921           922           923           924           925 
      1  -0.151249D+03 -0.151246D+03 -0.151238D+03 -0.151236D+03 -0.151233D+03
      2   0.489418D-01 -0.289097D-02 -0.189891D-01  0.258091D-01  0.723867D-03
      3  -0.112128D-01  0.836254D-01  0.225201D-01 -0.443678D-01 -0.206151D-01
      4   0.315260D-01  0.278492D-01 -0.272325D-01  0.393503D-01  0.389532D-02
      5  -0.147310D+00  0.725664D-02  0.683262D-01 -0.755989D-01 -0.494279D-02
      6   0.328469D-01 -0.256618D+00 -0.601976D-01  0.133844D+00  0.635666D-01
      7  -0.952543D-01 -0.791781D-01  0.811022D-01 -0.120277D+00 -0.345307D-02
      8   0.182005D-01 -0.629429D-01 -0.257250D-03  0.168633D-01  0.224826D-01
      9   0.420888D+00  0.238375D+00 -0.280965D+00  0.352614D+00  0.598587D-01
     10  -0.715591D-01 -0.609901D+00  0.154681D+00 -0.546659D-02  0.103428D+00
     11   0.556427D-01 -0.616827D+00  0.375005D+00 -0.510891D+00 -0.417046D+00
     12   0.364400D+00  0.320564D-01 -0.115517D+00 -0.266352D-01 -0.172071D-01
     13   0.653311D-01  0.289760D+00 -0.243204D-01  0.122981D+00  0.535352D-01
     14   0.129277D+00 -0.780748D+00  0.264123D-01 -0.115722D-01  0.223960D+00
     15  -0.481182D+00 -0.294978D+00  0.247405D+00 -0.372962D+00  0.750287D-01
     16   0.628747D-01  0.404823D-01 -0.143083D-01 -0.231950D-01 -0.372877D-01
               926           927           928           929           930 
      1  -0.151223D+03 -0.151217D+03 -0.151214D+03 -0.151201D+03 -0.151194D+03
      2  -0.882050D-02 -0.344438D-01 -0.136098D+00 -0.614565D-01  0.136240D-01
      3   0.102566D+00 -0.217937D-01 -0.508908D-01 -0.185660D-01 -0.186230D-01
      4   0.562567D-01  0.104964D+00  0.221218D-01 -0.967748D-02 -0.783963D-01
      5   0.270585D-01  0.100200D+00  0.416614D+00  0.186460D+00 -0.598752D-01
      6  -0.304289D+00  0.864814D-01  0.155989D+00  0.422822D-01  0.687471D-01
      7  -0.160743D+00 -0.329693D+00 -0.696564D-01  0.359526D-01  0.238348D+00
      8  -0.341919D-01  0.245115D+00  0.445791D-01 -0.945452D-01  0.805986D-02
      9   0.381180D+00  0.784543D+00 -0.713187D-01 -0.103367D+00 -0.234644D+00
     10  -0.423253D+00  0.119315D+00  0.621887D+00 -0.180804D+00  0.558603D+00
     11  -0.727847D+00  0.614885D+00  0.182014D+01  0.134390D+01 -0.729814D+00
     12   0.827469D-01 -0.123600D+00  0.181659D+00  0.648558D-02  0.232995D-01
     13   0.139210D+00  0.202780D+00  0.195292D-01 -0.355290D-01 -0.299665D+00
     14  -0.732732D+00 -0.105391D+00  0.149781D+00 -0.121083D+00  0.620968D+00
     15  -0.416209D+00 -0.924156D+00 -0.315344D+00 -0.691519D-01  0.239137D+00
     16   0.927381D-01  0.204467D+00  0.424052D-01 -0.506210D-01 -0.788641D-01
               931           932           933           934           935 
      1  -0.151181D+03 -0.151177D+03 -0.151170D+03 -0.151168D+03 -0.151148D+03
      2   0.660233D-04 -0.413405D-01 -0.858666D-01  0.108633D+00  0.191501D-01
      3  -0.494861D-01  0.472028D-01 -0.566377D-02  0.412965D-01 -0.240550D-02
      4  -0.260141D-01  0.697880D-01  0.691978D-01 -0.597349D-01 -0.437288D-01
      5  -0.303675D-02  0.142550D+00  0.272163D+00 -0.346241D+00 -0.660071D-01
      6   0.153268D+00 -0.146066D+00  0.158532D-01 -0.122497D+00  0.362915D-02
      7   0.854903D-01 -0.208126D+00 -0.217572D+00  0.199632D+00  0.131096D+00
      8  -0.495620D-01  0.875203D-01  0.193282D+00 -0.955285D-01 -0.730103D-03
      9  -0.498096D-01  0.245597D+00  0.914786D+00 -0.336836D+00 -0.147653D+00
     10   0.864024D-01 -0.341493D+00  0.259150D+00 -0.837293D+00 -0.604614D-01
     11   0.438120D+00  0.229111D+00  0.841015D+00 -0.233720D+01 -0.461015D+00
     12  -0.287569D+00 -0.174422D-01 -0.222992D-01  0.327905D+00 -0.437295D-01
     13  -0.977929D-01  0.114700D+00  0.227721D+00 -0.207435D-01  0.116421D+00
     14   0.665402D-01 -0.541605D+00  0.751489D-01 -0.490784D+00  0.792053D-02
     15   0.111630D+00 -0.408164D+00 -0.103795D+01  0.590461D+00  0.128036D+00
     16  -0.173619D+00  0.189304D+00  0.163471D+00  0.890080D-01  0.199258D-01
               936           937           938           939           940 
      1  -0.151141D+03 -0.151135D+03 -0.151129D+03 -0.151118D+03 -0.151116D+03
      2  -0.110318D-01  0.621283D-01 -0.247400D-03  0.423402D-02  0.640271D-01
      3  -0.653881D-02 -0.228683D-01  0.196848D-01  0.391340D-02  0.266958D-01
      4   0.377858D-01 -0.460091D-01  0.206710D-01  0.113050D-01 -0.691110D-04
      5   0.291950D-01 -0.205237D+00  0.103384D-01 -0.262141D-01 -0.160011D+00
      6   0.249124D-01  0.817333D-01 -0.552072D-01 -0.982911D-02 -0.640572D-01
      7  -0.112651D+00  0.147083D+00 -0.645117D-01 -0.177609D-01  0.961045D-02
      8  -0.116129D-01 -0.813079D-01 -0.856480D-03 -0.918806D-01 -0.549102D-01
      9   0.977424D-01  0.156370D+00  0.245111D+00 -0.466517D+00 -0.142798D+00
     10   0.757703D-01 -0.322088D-01 -0.286068D+00  0.151725D-01 -0.184684D+00
     11   0.816347D-01 -0.108123D+01 -0.163784D+00 -0.569349D+00  0.465931D+00
     12   0.326990D-01 -0.138164D+00  0.204382D+00 -0.811196D-02 -0.947419D-01
     13   0.700784D-01 -0.607796D-01  0.131927D+00 -0.139468D+00  0.274295D-01
     14   0.115977D+00  0.681921D-01 -0.201001D+00  0.594447D-01 -0.572618D-01
     15  -0.852002D-01  0.564711D-01 -0.205778D+00  0.571145D+00  0.147913D+00
     16  -0.986400D-02 -0.154296D-01  0.716368D-01 -0.103520D+00 -0.411004D-01
               941           942           943           944           945 
      1  -0.151103D+03 -0.151093D+03 -0.151073D+03 -0.151063D+03 -0.151055D+03
      2  -0.345749D-01  0.681583D-01 -0.200727D-01  0.273156D-01  0.114030D-01
      3  -0.220091D-01 -0.337523D-03  0.625522D-01  0.227716D-01 -0.541008D-01
      4   0.908259D-01 -0.361909D-01 -0.172628D-01 -0.397720D-02 -0.498812D-01
      5   0.113580D+00 -0.233011D+00  0.700268D-01 -0.960652D-01 -0.555897D-01
      6   0.810587D-01 -0.115760D-02 -0.181914D+00 -0.561170D-01  0.175565D+00
      7  -0.292461D+00  0.136098D+00  0.508299D-01  0.150446D-01  0.165045D+00
      8   0.172653D+00 -0.231888D+00 -0.616695D-01  0.188087D-01  0.981688D-01
      9   0.580077D+00 -0.252444D+00 -0.500375D-01  0.979071D-01 -0.597726D+00
     10   0.255112D+00 -0.270037D-02  0.138038D+00  0.280049D+00  0.228577D+00
     11   0.740939D+00 -0.103421D+01  0.610624D-01 -0.547522D+00 -0.137505D+00
     12  -0.207918D+00  0.258546D+00  0.133556D+00  0.186893D-01  0.558435D-01
     13   0.117420D+00 -0.137255D+00 -0.111994D+00 -0.801223D-01 -0.854210D-01
     14   0.225199D+00  0.235574D+00  0.256514D+00  0.278846D+00  0.428477D+00
     15  -0.685041D+00  0.415275D+00  0.586752D-01  0.128122D-01  0.725911D+00
     16   0.173079D+00 -0.318524D-01 -0.327802D-01  0.717954D-01  0.816506D-02
               946           947           948           949           950 
      1  -0.151023D+03 -0.151010D+03 -0.151004D+03 -0.150995D+03 -0.150965D+03
      2   0.106264D+00  0.802915D-02 -0.370134D-01 -0.103072D+00  0.295119D-01
      3   0.129747D+00  0.435427D-01  0.301367D-01 -0.161009D+00 -0.334351D-02
      4   0.103952D+00  0.592624D-01 -0.104190D+00 -0.123360D+00  0.926660D-01
      5  -0.344958D+00 -0.183462D-01  0.128760D+00  0.328392D+00 -0.107045D+00
      6  -0.412681D+00 -0.137717D+00 -0.110599D+00  0.528983D+00 -0.104699D-02
      7  -0.335531D+00 -0.175827D+00  0.341226D+00  0.404894D+00 -0.283490D+00
      8   0.519225D-01  0.138546D+00 -0.117671D+00 -0.119499D+00 -0.790335D-01
      9   0.865373D+00 -0.301036D+00 -0.486869D+00 -0.974367D+00  0.157310D+00
     10  -0.949653D+00 -0.401829D-01 -0.189911D+00  0.142882D+01 -0.292099D+00
     11  -0.182837D+01 -0.275987D+00  0.483944D+00  0.143482D+01 -0.650231D+00
     12   0.288303D+00  0.139436D+00  0.114693D+00 -0.452719D+00  0.151229D+00
     13   0.251230D+00 -0.706077D-01 -0.220624D+00 -0.284003D+00  0.552299D-01
     14  -0.782943D+00 -0.169729D+00 -0.378605D+00  0.110846D+01 -0.252706D+00
     15  -0.677230D+00  0.326313D+00  0.548323D+00  0.865169D+00 -0.219825D+00
     16   0.290568D+00 -0.318934D-01 -0.174120D+00 -0.352818D+00  0.309497D-01
               951           952           953           954           955 
      1  -0.150952D+03 -0.150942D+03 -0.150936D+03 -0.150929D+03 -0.150916D+03
      2   0.823202D-02  0.119694D-01 -0.414218D-01 -0.795285D-01  0.992917D-02
      3   0.265187D-01 -0.201120D-01 -0.197763D-01  0.389697D-01  0.778743D-01
      4   0.259500D-01 -0.128107D-01 -0.221893D-01 -0.246588D-01  0.660001D-01
      5  -0.215429D-01 -0.535932D-01  0.129764D+00  0.278373D+00 -0.193425D-01
      6  -0.853232D-01  0.550138D-01  0.517211D-01 -0.133504D+00 -0.268335D+00
      7  -0.826825D-01  0.374254D-01  0.684276D-01  0.905993D-01 -0.212621D+00
      8  -0.723917D-02  0.135376D-01 -0.210004D-01 -0.205372D+00  0.724018D-01
      9   0.917454D-01  0.522987D-01 -0.136322D+00 -0.475194D+00  0.457020D+00
     10  -0.130298D+00 -0.344274D+00 -0.188507D+00 -0.117033D+00 -0.754525D+00
     11   0.501923D-01 -0.147501D+00  0.655468D+00  0.104064D+01 -0.336408D+00
     12  -0.118901D+00 -0.771612D-01  0.391542D-01  0.190614D+00  0.449276D+00
     13   0.310479D-01  0.398958D-01 -0.765387D-01 -0.172344D+00  0.155841D+00
     14  -0.161441D+00 -0.970363D-01 -0.319207D+00 -0.301407D+00 -0.683879D+00
     15  -0.647670D-01  0.730135D-01  0.974277D-01  0.508504D+00 -0.513952D+00
     16  -0.303628D-03  0.596062D-02 -0.505643D-01 -0.115978D+00  0.251416D+00
               956           957           958           959           960 
      1  -0.150888D+03 -0.150872D+03 -0.150848D+03 -0.150830D+03 -0.150810D+03
      2   0.121567D-01 -0.920358D-01 -0.758754D-01  0.452775D-01 -0.272147D-01
      3  -0.580822D-01 -0.137649D-02  0.455296D-01  0.318662D-01  0.131143D-01
      4   0.906262D-02 -0.346375D-01  0.116659D-02  0.604296D-02  0.271152D-01
      5  -0.345200D-01  0.312722D+00  0.269348D+00 -0.138946D+00  0.885810D-01
      6   0.193287D+00  0.862787D-03 -0.170226D+00 -0.935183D-01 -0.409754D-01
      7  -0.200169D-01  0.118402D+00  0.475420D-02 -0.184112D-01 -0.795705D-01
      8  -0.458141D-01 -0.888348D-01 -0.142906D+00 -0.876950D-03 -0.391770D-01
      9  -0.300131D+00 -0.381810D+00 -0.126930D+00  0.838226D-01 -0.310837D+00
     10   0.480253D-01  0.302199D+00 -0.317240D+00 -0.147791D+00  0.625177D-01
     11   0.494406D+00  0.149042D+01  0.129974D+01 -0.310720D+00  0.135234D+00
     12  -0.302042D+00 -0.342403D+00  0.170954D+00 -0.262371D+00 -0.494525D-01
     13   0.327438D-01 -0.607376D-01 -0.120620D+00  0.922911D-01 -0.167267D-01
     14   0.192796D+00  0.203876D+00 -0.514120D+00 -0.984249D-01  0.161560D-01
     15   0.335240D+00  0.258574D+00  0.585682D-01 -0.697066D-02  0.374313D+00
     16  -0.162448D+00 -0.147775D+00 -0.109649D+00 -0.625230D-01 -0.153856D-01
               961           962           963           964           965 
      1  -0.150808D+03 -0.150802D+03 -0.150718D+03 -0.150705D+03 -0.150684D+03
      2  -0.130209D+00 -0.237195D-01 -0.243792D-01 -0.118291D-01  0.299724D-01
      3   0.109609D+00 -0.407685D-01 -0.143268D-01 -0.852387D-02 -0.145813D-01
      4   0.114282D-01 -0.347726D-01  0.126864D-01  0.393780D-01  0.137532D-01
      5   0.475681D+00  0.793212D-01  0.877670D-01  0.403489D-01 -0.142842D+00
      6  -0.401327D+00  0.141706D+00  0.467334D-01  0.233316D-01  0.818889D-01
      7  -0.398936D-01  0.117058D+00 -0.422945D-01 -0.128457D+00 -0.435331D-01
      8  -0.901943D-02 -0.700592D-01  0.428568D-01 -0.577468D-01  0.192982D-01
      9   0.770194D-01 -0.292032D+00  0.542371D-01  0.159210D+00  0.105108D+00
     10  -0.773951D+00  0.440051D+00  0.979923D-01 -0.404027D-01  0.700243D-01
     11   0.177804D+01  0.228861D+00  0.400863D+00  0.264755D+00 -0.116317D+01
     12   0.147828D+00 -0.302088D+00 -0.925622D-01  0.452703D-02 -0.183388D+00
     13   0.888381D-01  0.306369D+00  0.854811D-01 -0.327371D-01  0.416599D-01
     14  -0.877132D+00  0.121255D+00  0.136184D-01 -0.244372D-01  0.656577D+00
     15  -0.302760D+00  0.303470D+00  0.791853D-01 -0.269029D-01  0.662561D-01
     16   0.220487D+00  0.201214D-01  0.102985D-02 -0.368777D-01 -0.368165D-01
               966           967           968           969           970 
      1  -0.150674D+03 -0.150625D+03 -0.150609D+03 -0.150554D+03 -0.150549D+03
      2   0.124600D-01 -0.667142D-01 -0.258143D-01 -0.401081D-01  0.175701D-01
      3  -0.324094D-01 -0.788698D-01 -0.295771D-01  0.504736D-01  0.998514D-02
      4  -0.479627D-01 -0.794208D-01  0.171760D-03 -0.197570D-01 -0.178586D-03
      5  -0.677622D-01  0.253813D+00  0.101173D+00  0.131361D+00 -0.814814D-01
      6   0.124961D+00  0.300650D+00  0.107562D+00 -0.173053D+00 -0.296256D-01
      7   0.169117D+00  0.299524D+00  0.579124D-02  0.742772D-01  0.126137D-01
      8  -0.906720D-02 -0.100864D+00 -0.345651D-01 -0.532927D-01 -0.999561D-01
      9  -0.269887D+00 -0.715414D+00 -0.121456D+00 -0.152815D+00 -0.185430D+00
     10   0.122358D+00  0.842457D+00  0.255920D+00 -0.187156D+00 -0.974712D-01
     11  -0.417452D+00  0.117013D+01  0.477621D+00  0.101224D+00 -0.413292D+00
     12  -0.269635D+00 -0.815051D-01  0.197090D-01 -0.143773D+00 -0.526693D-02
     13   0.107706D+00 -0.314377D+00 -0.327910D-01  0.136340D-01 -0.273821D-01
     14   0.248347D+00  0.682947D+00  0.750538D-01  0.609365D-01  0.562804D-03
     15   0.236402D+00  0.526101D+00  0.514777D-01  0.183978D+00  0.805096D-01
     16  -0.985705D-01 -0.211586D+00  0.140922D-03  0.209648D-01 -0.100973D+00
               971           972           973           974           975 
      1  -0.150534D+03 -0.150478D+03 -0.150460D+03 -0.150412D+03 -0.150395D+03
      2  -0.870577D-01 -0.666825D-01 -0.292314D-01  0.871438D-02 -0.556612D-01
      3   0.131943D+00  0.471979D-01 -0.451607D-01 -0.417781D-01 -0.191330D-02
      4  -0.688574D-01  0.284179D-01  0.200770D-01  0.820488D-01  0.506693D-01
      5   0.357619D+00  0.274958D+00  0.119164D+00 -0.314062D-01  0.229248D+00
      6  -0.519520D+00 -0.198765D+00  0.165172D+00  0.156036D+00  0.180537D-02
      7   0.259571D+00 -0.115020D+00 -0.684830D-01 -0.313663D+00 -0.201138D+00
      8  -0.165295D+00 -0.571373D-02  0.455185D-01  0.180062D+00  0.717630D-01
      9  -0.597967D+00  0.172388D+00  0.153639D+00  0.703558D+00  0.392125D+00
     10  -0.991594D+00 -0.330843D+00  0.400738D+00  0.359377D+00  0.698045D-01
     11   0.193217D+01  0.129306D+01  0.447341D+00 -0.277908D+00  0.103091D+01
     12   0.422424D+00  0.200097D+00 -0.663417D-02 -0.229096D+00  0.350361D-01
     13  -0.160917D+00  0.872723D-01 -0.119583D-01  0.278799D+00  0.131253D+00
     14  -0.143057D+01 -0.590682D+00  0.362241D+00  0.417757D+00 -0.111972D+00
     15   0.396929D+00 -0.277262D+00 -0.234539D+00 -0.704691D+00 -0.498527D+00
     16   0.197641D+00  0.766457D-01 -0.794298D-01 -0.165138D-01  0.128184D-01
               976           977           978           979           980 
      1  -0.150350D+03 -0.150319D+03 -0.150227D+03 -0.150093D+03 -0.149878D+03
      2  -0.345794D-01 -0.122865D-01  0.166073D-01 -0.195641D-03  0.700472D-02
      3  -0.804398D-01 -0.220617D-01  0.292428D-01  0.797691D-02  0.190984D-01
      4   0.954805D-01  0.464979D-01 -0.538449D-01 -0.579135D-02 -0.265713D-01
      5   0.152709D+00 -0.357686D-02 -0.817158D-01 -0.733674D-02 -0.555643D-01
      6   0.300608D+00  0.121353D+00 -0.106035D+00 -0.303953D-01 -0.527235D-01
      7  -0.378777D+00 -0.174398D+00  0.217169D+00  0.248732D-01  0.105042D+00
      8   0.253454D+00  0.117119D+00 -0.120472D+00 -0.544247D-02 -0.476683D-01
      9   0.863500D+00  0.416384D+00 -0.477661D+00 -0.472189D-01 -0.217450D+00
     10   0.764763D+00  0.318990D+00 -0.291400D+00 -0.460443D-01 -0.133977D+00
     11   0.579778D+00 -0.406079D-01 -0.562462D+00 -0.277415D+00 -0.132948D+00
     12  -0.298751D+00 -0.163913D+00  0.282615D-01 -0.768819D-01  0.186691D-01
     13   0.293833D+00  0.477127D-01 -0.159704D+00  0.180569D-01 -0.933676D-01
     14   0.763383D+00  0.192963D+00 -0.761118D-01  0.732806D-01 -0.825746D-01
     15  -0.101206D+01 -0.496597D+00  0.584891D+00  0.799136D-01  0.261406D+00
     16  -0.368336D-01 -0.110972D+00 -0.500963D-01 -0.559682D-01  0.153723D+00
 Unable to Open any file for archive entry.
 1\1\GINC-HEL24\SP\RPBE1PBE TD-FC\Gen\C2H6O1\SABYASACHI\21-Mar-2022\0\\
 #P TD(Nstates=10000) pbe1pbe/Gen SCF(maxcycles=100) Int(Grid=ultrafine
 )\\xGDB7_00001_tier4.com\\0,1\C,0,-1.208422,-0.239069,-0.021917\C,0,0.
 083893,0.553452,0.046734\O,0,1.233467,-0.256002,-0.105864\H,0,-2.07199
 9,0.425136,0.0517\H,0,-1.27067,-0.957756,0.799731\H,0,-1.270625,-0.788
 28,-0.962327\H,0,0.13003,1.119197,0.986112\H,0,0.125952,1.277026,-0.76
 8547\H,0,1.236751,-0.913605,0.591341\\Version=EM64L-G16RevC.01\State=1
 -A\HF=-154.7578721\RMSD=7.997e-09\PG=C01 [X(C2H6O1)]\\@
 The archive entry for this job was punched.


 SIC AS THE CAWSE OF EWERY THING IS, SIC WILBE THE EFFECT.
 -- PROVERBS AND REASONS OF THE YEAR 1585
           AS REPRINTED IN PAISLEY MAGAZINE 1828.
 Job cpu time:       0 days  0 hours 24 minutes 22.6 seconds.
 Elapsed time:       0 days  0 hours  3 minutes  3.3 seconds.
 File lengths (MBytes):  RWF=   1237 Int=      0 D2E=      0 Chk=    291 Scr=      1
 Normal termination of Gaussian 16 at Mon Mar 21 20:24:07 2022.
