 Entering Gaussian System, Link 0=g16
 Input=000030.com
 Output=000030.log
 Initial command:
 /home/sabyasachi/g16/l1.exe "/scratch/sabyasachi/PBS_7976494.helios/Gau-31183.inp" -scrdir="/scratch/sabyasachi/PBS_7976494.helios/"
 Entering Link 1 = /home/sabyasachi/g16/l1.exe PID=     31184.
  
 Copyright (c) 1988-2019, Gaussian, Inc.  All Rights Reserved.
  
 This is part of the Gaussian(R) 16 program.  It is based on
 the Gaussian(R) 09 system (copyright 2009, Gaussian, Inc.),
 the Gaussian(R) 03 system (copyright 2003, Gaussian, Inc.),
 the Gaussian(R) 98 system (copyright 1998, Gaussian, Inc.),
 the Gaussian(R) 94 system (copyright 1995, Gaussian, Inc.),
 the Gaussian 92(TM) system (copyright 1992, Gaussian, Inc.),
 the Gaussian 90(TM) system (copyright 1990, Gaussian, Inc.),
 the Gaussian 88(TM) system (copyright 1988, Gaussian, Inc.),
 the Gaussian 86(TM) system (copyright 1986, Carnegie Mellon
 University), and the Gaussian 82(TM) system (copyright 1983,
 Carnegie Mellon University). Gaussian is a federally registered
 trademark of Gaussian, Inc.
  
 This software contains proprietary and confidential information,
 including trade secrets, belonging to Gaussian, Inc.
  
 This software is provided under written license and may be
 used, copied, transmitted, or stored only in accord with that
 written license.
  
 The following legend is applicable only to US Government
 contracts under FAR:
  
                    RESTRICTED RIGHTS LEGEND
  
 Use, reproduction and disclosure by the US Government is
 subject to restrictions as set forth in subparagraphs (a)
 and (c) of the Commercial Computer Software - Restricted
 Rights clause in FAR 52.227-19.
  
 Gaussian, Inc.
 340 Quinnipiac St., Bldg. 40, Wallingford CT 06492
  
  
 ---------------------------------------------------------------
 Warning -- This program may not be used in any manner that
 competes with the business of Gaussian, Inc. or will provide
 assistance to any competitor of Gaussian, Inc.  The licensee
 of this program is prohibited from giving any competitor of
 Gaussian, Inc. access to this program.  By using this program,
 the user acknowledges that Gaussian, Inc. is engaged in the
 business of creating and licensing software in the field of
 computational chemistry and represents and warrants to the
 licensee that it is not a competitor of Gaussian, Inc. and that
 it will not use this program in any manner prohibited above.
 ---------------------------------------------------------------
  

 Cite this work as:
 Gaussian 16, Revision C.01,
 M. J. Frisch, G. W. Trucks, H. B. Schlegel, G. E. Scuseria, 
 M. A. Robb, J. R. Cheeseman, G. Scalmani, V. Barone, 
 G. A. Petersson, H. Nakatsuji, X. Li, M. Caricato, A. V. Marenich, 
 J. Bloino, B. G. Janesko, R. Gomperts, B. Mennucci, H. P. Hratchian, 
 J. V. Ortiz, A. F. Izmaylov, J. L. Sonnenberg, D. Williams-Young, 
 F. Ding, F. Lipparini, F. Egidi, J. Goings, B. Peng, A. Petrone, 
 T. Henderson, D. Ranasinghe, V. G. Zakrzewski, J. Gao, N. Rega, 
 G. Zheng, W. Liang, M. Hada, M. Ehara, K. Toyota, R. Fukuda, 
 J. Hasegawa, M. Ishida, T. Nakajima, Y. Honda, O. Kitao, H. Nakai, 
 T. Vreven, K. Throssell, J. A. Montgomery, Jr., J. E. Peralta, 
 F. Ogliaro, M. J. Bearpark, J. J. Heyd, E. N. Brothers, K. N. Kudin, 
 V. N. Staroverov, T. A. Keith, R. Kobayashi, J. Normand, 
 K. Raghavachari, A. P. Rendell, J. C. Burant, S. S. Iyengar, 
 J. Tomasi, M. Cossi, J. M. Millam, M. Klene, C. Adamo, R. Cammi, 
 J. W. Ochterski, R. L. Martin, K. Morokuma, O. Farkas, 
 J. B. Foresman, and D. J. Fox, Gaussian, Inc., Wallingford CT, 2019.
 
 ******************************************
 Gaussian 16:  EM64L-G16RevC.01  3-Jul-2019
                21-Mar-2022 
 ******************************************
 %mem=64gb
 %nproc=8
 Will use up to    8 processors via shared memory.
 ----------------------------------------------------------------------
 #P TD(Nstates=10000) pbe1pbe/Gen SCF(maxcycles=100) Int(Grid=ultrafine
 )
 ----------------------------------------------------------------------
 1/38=1,172=1/1;
 2/12=2,17=6,18=5,40=1/2;
 3/5=7,11=9,25=1,30=1,74=-13,75=-5/1,2,3,8;
 4//1;
 5/5=2,7=100,38=5/2;
 8/6=1,10=1,108=10000/1;
 9/41=10000,42=1,70=2/14;
 6/7=2,8=2,9=2,10=2/1;
 99/5=1,9=1/99;
 Leave Link    1 at Mon Mar 21 20:18:11 2022, MaxMem=  8589934592 cpu:               0.4 elap:               0.1
 (Enter /home/sabyasachi/g16/l101.exe)
 ---------------------
 xGDB7_00001_tier4.com
 ---------------------
 Symbolic Z-matrix:
 Charge =  0 Multiplicity = 1
 6                     1.23667   0.        0. 
 6                    -0.21874  -0.00001  -0.00001 
 6                    -1.41578   0.       0. 
 1                     1.62205   0.97904   0.28809 
 1                     1.62207  -0.24002  -0.9919 
 1                     1.62204  -0.73902   0.70382 
 1                    -2.47906  -0.00001   0.00001 
 
 ITRead=  0  0  0  0  0  0  0
 MicOpt= -1 -1 -1 -1 -1 -1 -1
 NAtoms=      7 NQM=        7 NQMF=       0 NMMI=      0 NMMIF=      0
                NMic=       0 NMicF=      0.
                    Isotopes and Nuclear Properties:
 (Nuclear quadrupole moments (NQMom) in fm**2, nuclear magnetic moments (NMagM)
  in nuclear magnetons)

  Atom         1           2           3           4           5           6           7
 IAtWgt=          12          12          12           1           1           1           1
 AtmWgt=  12.0000000  12.0000000  12.0000000   1.0078250   1.0078250   1.0078250   1.0078250
 NucSpn=           0           0           0           1           1           1           1
 AtZEff=  -0.0000000  -0.0000000  -0.0000000  -0.0000000  -0.0000000  -0.0000000  -0.0000000
 NQMom=    0.0000000   0.0000000   0.0000000   0.0000000   0.0000000   0.0000000   0.0000000
 NMagM=    0.0000000   0.0000000   0.0000000   2.7928460   2.7928460   2.7928460   2.7928460
 AtZNuc=   6.0000000   6.0000000   6.0000000   1.0000000   1.0000000   1.0000000   1.0000000
 Leave Link  101 at Mon Mar 21 20:18:11 2022, MaxMem=  8589934592 cpu:               0.6 elap:               0.1
 (Enter /home/sabyasachi/g16/l202.exe)
                          Input orientation:                          
 ---------------------------------------------------------------------
 Center     Atomic      Atomic             Coordinates (Angstroms)
 Number     Number       Type             X           Y           Z
 ---------------------------------------------------------------------
      1          6           0        1.236673    0.000003    0.000003
      2          6           0       -0.218742   -0.000006   -0.000005
      3          6           0       -1.415780    0.000004   -0.000001
      4          1           0        1.622045    0.979039    0.288094
      5          1           0        1.622070   -0.240023   -0.991898
      6          1           0        1.622037   -0.739019    0.703815
      7          1           0       -2.479058   -0.000005    0.000008
 ---------------------------------------------------------------------
                    Distance matrix (angstroms):
                    1          2          3          4          5
     1  C    0.000000
     2  C    1.455415   0.000000
     3  C    2.652453   1.197038   0.000000
     4  H    1.090880   2.104763   3.204667   0.000000
     5  H    1.090876   2.104768   3.204685   1.767623   0.000000
     6  H    1.090876   2.104749   3.204660   1.767639   1.767608
     7  H    3.715731   2.260316   1.063278   4.226176   4.226197
                    6          7
     6  H    0.000000
     7  H    4.226164   0.000000
 This structure is nearly, but not quite of a higher symmetry.
 Consider Symm=Loose if the higher symmetry is desired.
 Stoichiometry    C3H4
 Framework group  C1[X(C3H4)]
 Deg. of freedom    15
 Full point group                 C1      NOp   1
 Largest Abelian subgroup         C1      NOp   1
 Largest concise Abelian subgroup C1      NOp   1
                         Standard orientation:                         
 ---------------------------------------------------------------------
 Center     Atomic      Atomic             Coordinates (Angstroms)
 Number     Number       Type             X           Y           Z
 ---------------------------------------------------------------------
      1          6           0        0.000284   -0.018657   -1.236532
      2          6           0       -0.000055    0.003295    0.218717
      3          6           0       -0.000323    0.021367    1.415619
      4          1           0        0.273656    0.958689   -1.636635
      5          1           0       -0.987794   -0.279414   -1.618263
      6          1           0        0.715256   -0.752703   -1.610700
      7          1           0       -0.000556    0.037402    2.478776
 ---------------------------------------------------------------------
 Rotational constants (GHZ):         160.4916800           8.6297027           8.6296934
 Leave Link  202 at Mon Mar 21 20:18:11 2022, MaxMem=  8589934592 cpu:               0.1 elap:               0.0
 (Enter /home/sabyasachi/g16/l301.exe)
 General basis read from cards:  (5D, 7F)
 Centers:       4      5      6      7
 S 3 1.00
     Exponent=  1.3010701000D+01 Coefficients=  1.9682158000D-02
     Exponent=  1.9622572000D+00 Coefficients=  1.3796524000D-01
     Exponent=  4.4453796000D-01 Coefficients=  4.7831935000D-01
 S 1 1.00
     Exponent=  1.2194962000D-01 Coefficients=  1.0000000000D+00
 P 1 1.00
     Exponent=  8.0000000000D-01 Coefficients=  1.0000000000D+00
 P 1 1.00
     Exponent=  1.1704099050D-01 Coefficients=  1.0000000000D+00
 ****
 Centers:       1      2      3
 S 5 1.00
     Exponent=  1.2384016938D+03 Coefficients=  5.4568832082D-03
     Exponent=  1.8629004992D+02 Coefficients=  4.0638409211D-02
     Exponent=  4.2251176346D+01 Coefficients=  1.8025593888D-01
     Exponent=  1.1676557932D+01 Coefficients=  4.6315121755D-01
     Exponent=  3.5930506482D+00 Coefficients=  4.4087173314D-01
 S 1 1.00
     Exponent=  4.0245147363D-01 Coefficients=  1.0000000000D+00
 S 1 1.00
     Exponent=  1.3090182668D-01 Coefficients=  1.0000000000D+00
 S 1 1.00
     Exponent=  6.7053540256D-02 Coefficients=  1.0000000000D+00
 P 3 1.00
     Exponent=  9.4680970621D+00 Coefficients=  3.8387871728D-02
     Exponent=  2.0103545142D+00 Coefficients=  2.1117025112D-01
     Exponent=  5.4771004707D-01 Coefficients=  5.1328172114D-01
 P 1 1.00
     Exponent=  1.5268613795D-01 Coefficients=  1.0000000000D+00
 D 1 1.00
     Exponent=  8.0000000000D-01 Coefficients=  1.0000000000D+00
 D 1 1.00
     Exponent=  1.1713185140D-01 Coefficients=  1.0000000000D+00
 ****
 Ernie: Thresh=  0.10000D-02 Tol=  0.10000D-05 Strict=F.
 There are    98 symmetry adapted cartesian basis functions of A   symmetry.
 There are    92 symmetry adapted basis functions of A   symmetry.
    92 basis functions,   136 primitive gaussians,    98 cartesian basis functions
    11 alpha electrons       11 beta electrons
       nuclear repulsion energy        58.9346497608 Hartrees.
 IExCor= 1009 DFT=T Ex+Corr=PBE1PBE ExCW=0 ScaHFX=  0.250000
 ScaDFX=  0.750000  0.750000  1.000000  1.000000 ScalE2=  1.000000  1.000000
 IRadAn=      5 IRanWt=     -1 IRanGd=            0 ICorTp=0 IEmpDi=  4
 NAtoms=    7 NActive=    7 NUniq=    7 SFac= 1.00D+00 NAtFMM=   60 NAOKFM=F Big=F
 Integral buffers will be    131072 words long.
 Regular integral format.
 Two-electron integral symmetry is turned on.
 Leave Link  301 at Mon Mar 21 20:18:11 2022, MaxMem=  8589934592 cpu:               0.5 elap:               0.1
 (Enter /home/sabyasachi/g16/l302.exe)
 NPDir=0 NMtPBC=     1 NCelOv=     1 NCel=       1 NClECP=     1 NCelD=      1
         NCelK=      1 NCelE2=     1 NClLst=     1 CellRange=     0.0.
 One-electron integrals computed using PRISM.
 One-electron integral symmetry used in STVInt
 NBasis=    92 RedAO= T EigKep=  3.60D-05  NBF=    92
 NBsUse=    92 1.00D-06 EigRej= -1.00D+00 NBFU=    92
 Precomputing XC quadrature grid using
 IXCGrd= 4 IRadAn=           5 IRanWt=          -1 IRanGd=           0 AccXCQ= 0.00D+00.
 Generated NRdTot=       0 NPtTot=           0 NUsed=           0 NTot=          32
 NSgBfM=    98    98    98    98    98 MxSgAt=     7 MxSgA2=     7.
 Leave Link  302 at Mon Mar 21 20:18:12 2022, MaxMem=  8589934592 cpu:               1.0 elap:               0.1
 (Enter /home/sabyasachi/g16/l303.exe)
 DipDrv:  MaxL=1.
 Leave Link  303 at Mon Mar 21 20:18:12 2022, MaxMem=  8589934592 cpu:               0.2 elap:               0.0
 (Enter /home/sabyasachi/g16/l308.exe)
 Leave Link  308 at Mon Mar 21 20:18:12 2022, MaxMem=  8589934592 cpu:               0.2 elap:               0.0
 (Enter /home/sabyasachi/g16/l401.exe)
 ExpMin= 6.71D-02 ExpMax= 1.24D+03 ExpMxC= 1.86D+02 IAcc=3 IRadAn=         5 AccDes= 0.00D+00
 Harris functional with IExCor= 1009 and IRadAn=       5 diagonalized for initial guess.
 HarFok:  IExCor= 1009 AccDes= 0.00D+00 IRadAn=         5 IDoV= 1 UseB2=F ITyADJ=14
 ICtDFT=  3500011 ScaDFX=  1.000000  1.000000  1.000000  1.000000
 FoFCou: FMM=F IPFlag=           0 FMFlag=      100000 FMFlg1=           0
         NFxFlg=           0 DoJE=T BraDBF=F KetDBF=T FulRan=T
         wScrn=  0.000000 ICntrl=       500 IOpCl=  0 I1Cent=   200000004 NGrid=           0
         NMat0=    1 NMatS0=      1 NMatT0=    0 NMatD0=    1 NMtDS0=    0 NMtDT0=    0
 Petite list used in FoFCou.
 Harris En= -116.508106745166    
 JPrj=0 DoOrth=F DoCkMO=F.
 Leave Link  401 at Mon Mar 21 20:18:12 2022, MaxMem=  8589934592 cpu:               2.4 elap:               0.3
 (Enter /home/sabyasachi/g16/l502.exe)
 Keep R1 ints in memory in canonical form, NReq=16534077.
 FoFCou: FMM=F IPFlag=           0 FMFlag=           0 FMFlg1=           0
         NFxFlg=           0 DoJE=F BraDBF=F KetDBF=F FulRan=T
         wScrn=  0.000000 ICntrl=       600 IOpCl=  0 I1Cent=           0 NGrid=           0
         NMat0=    1 NMatS0=   4278 NMatT0=    0 NMatD0=    1 NMtDS0=    0 NMtDT0=    0
 Symmetry not used in FoFCou.
 Two-electron integral symmetry not used.
 Closed shell SCF:
 Using DIIS extrapolation, IDIIS=  1040.
 NGot=  8589934592 LenX=  8580760555 LenY=  8580750510
 Requested convergence on RMS density matrix=1.00D-08 within 100 cycles.
 Requested convergence on MAX density matrix=1.00D-06.
 Requested convergence on             energy=1.00D-06.
 No special actions if energy rises.
 Integral accuracy reduced to 1.0D-05 until final iterations.

 Cycle   1  Pass 0  IDiag  1:
 E= -116.320152585129    
 DIIS: error= 3.27D-02 at cycle   1 NSaved=   1.
 NSaved= 1 IEnMin= 1 EnMin= -116.320152585129     IErMin= 1 ErrMin= 3.27D-02
 ErrMax= 3.27D-02  0.00D+00 EMaxC= 1.00D-01 BMatC= 8.93D-02 BMatP= 8.93D-02
 IDIUse=3 WtCom= 6.73D-01 WtEn= 3.27D-01
 Coeff-Com:  0.100D+01
 Coeff-En:   0.100D+01
 Coeff:      0.100D+01
 Gap=     0.323 Goal=   None    Shift=    0.000
 GapD=    0.323 DampG=1.000 DampE=0.500 DampFc=0.5000 IDamp=-1.
 Damping current iteration by 5.00D-01
 RMSDP=2.24D-02 MaxDP=6.42D-01              OVMax= 1.63D-01

 Cycle   2  Pass 0  IDiag  1:
 E= -116.372589843429     Delta-E=       -0.052437258299 Rises=F Damp=T
 DIIS: error= 5.12D-03 at cycle   2 NSaved=   2.
 NSaved= 2 IEnMin= 2 EnMin= -116.372589843429     IErMin= 2 ErrMin= 5.12D-03
 ErrMax= 5.12D-03  0.00D+00 EMaxC= 1.00D-01 BMatC= 2.48D-03 BMatP= 8.93D-02
 IDIUse=3 WtCom= 9.49D-01 WtEn= 5.12D-02
 Coeff-Com: -0.696D-01 0.107D+01
 Coeff-En:   0.000D+00 0.100D+01
 Coeff:     -0.661D-01 0.107D+01
 Gap=     0.317 Goal=   None    Shift=    0.000
 RMSDP=8.93D-03 MaxDP=3.44D-01 DE=-5.24D-02 OVMax= 7.90D-02

 Cycle   3  Pass 0  IDiag  1:
 E= -116.422359949189     Delta-E=       -0.049770105760 Rises=F Damp=F
 DIIS: error= 1.54D-03 at cycle   3 NSaved=   3.
 NSaved= 3 IEnMin= 3 EnMin= -116.422359949189     IErMin= 3 ErrMin= 1.54D-03
 ErrMax= 1.54D-03  0.00D+00 EMaxC= 1.00D-01 BMatC= 2.76D-04 BMatP= 2.48D-03
 IDIUse=3 WtCom= 9.85D-01 WtEn= 1.54D-02
 Coeff-Com: -0.330D-01 0.209D+00 0.824D+00
 Coeff-En:   0.000D+00 0.000D+00 0.100D+01
 Coeff:     -0.325D-01 0.205D+00 0.827D+00
 Gap=     0.316 Goal=   None    Shift=    0.000
 RMSDP=6.59D-04 MaxDP=1.58D-02 DE=-4.98D-02 OVMax= 1.09D-02

 Cycle   4  Pass 0  IDiag  1:
 E= -116.422281475267     Delta-E=        0.000078473922 Rises=F Damp=F
 DIIS: error= 2.56D-03 at cycle   4 NSaved=   4.
 NSaved= 4 IEnMin= 3 EnMin= -116.422359949189     IErMin= 3 ErrMin= 1.54D-03
 ErrMax= 2.56D-03  0.00D+00 EMaxC= 1.00D-01 BMatC= 3.75D-04 BMatP= 2.76D-04
 IDIUse=3 WtCom= 1.65D-01 WtEn= 8.35D-01
 Coeff-Com: -0.188D-01 0.809D-01 0.555D+00 0.383D+00
 Coeff-En:   0.000D+00 0.000D+00 0.553D+00 0.447D+00
 Coeff:     -0.310D-02 0.134D-01 0.553D+00 0.437D+00
 Gap=     0.314 Goal=   None    Shift=    0.000
 RMSDP=2.81D-04 MaxDP=5.96D-03 DE= 7.85D-05 OVMax= 9.43D-03

 Cycle   5  Pass 0  IDiag  1:
 E= -116.422622204077     Delta-E=       -0.000340728810 Rises=F Damp=F
 DIIS: error= 6.41D-04 at cycle   5 NSaved=   5.
 NSaved= 5 IEnMin= 5 EnMin= -116.422622204077     IErMin= 5 ErrMin= 6.41D-04
 ErrMax= 6.41D-04  0.00D+00 EMaxC= 1.00D-01 BMatC= 3.39D-05 BMatP= 2.76D-04
 IDIUse=3 WtCom= 9.94D-01 WtEn= 6.41D-03
 Coeff-Com:  0.363D-02-0.879D-02 0.163D+00 0.232D+00 0.610D+00
 Coeff-En:   0.000D+00 0.000D+00 0.000D+00 0.628D-01 0.937D+00
 Coeff:      0.360D-02-0.873D-02 0.162D+00 0.231D+00 0.612D+00
 Gap=     0.316 Goal=   None    Shift=    0.000
 RMSDP=1.14D-04 MaxDP=4.42D-03 DE=-3.41D-04 OVMax= 2.36D-03

 Cycle   6  Pass 0  IDiag  1:
 E= -116.422659082219     Delta-E=       -0.000036878142 Rises=F Damp=F
 DIIS: error= 2.84D-05 at cycle   6 NSaved=   6.
 NSaved= 6 IEnMin= 6 EnMin= -116.422659082219     IErMin= 6 ErrMin= 2.84D-05
 ErrMax= 2.84D-05  0.00D+00 EMaxC= 1.00D-01 BMatC= 6.33D-08 BMatP= 3.39D-05
 IDIUse=1 WtCom= 1.00D+00 WtEn= 0.00D+00
 Coeff-Com:  0.132D-02-0.370D-02 0.344D-01 0.488D-01 0.157D+00 0.763D+00
 Coeff:      0.132D-02-0.370D-02 0.344D-01 0.488D-01 0.157D+00 0.763D+00
 Gap=     0.316 Goal=   None    Shift=    0.000
 RMSDP=6.37D-06 MaxDP=1.77D-04 DE=-3.69D-05 OVMax= 9.82D-05

 Initial convergence to 1.0D-05 achieved.  Increase integral accuracy.
 Cycle   7  Pass 1  IDiag  1:
 E= -116.422657005782     Delta-E=        0.000002076437 Rises=F Damp=F
 DIIS: error= 1.12D-05 at cycle   1 NSaved=   1.
 NSaved= 1 IEnMin= 1 EnMin= -116.422657005782     IErMin= 1 ErrMin= 1.12D-05
 ErrMax= 1.12D-05  0.00D+00 EMaxC= 1.00D-01 BMatC= 8.82D-09 BMatP= 8.82D-09
 IDIUse=1 WtCom= 1.00D+00 WtEn= 0.00D+00
 Coeff-Com:  0.100D+01
 Coeff:      0.100D+01
 Gap=     0.316 Goal=   None    Shift=    0.000
 RMSDP=6.37D-06 MaxDP=1.77D-04 DE= 2.08D-06 OVMax= 5.55D-05

 Cycle   8  Pass 1  IDiag  1:
 E= -116.422657005755     Delta-E=        0.000000000027 Rises=F Damp=F
 DIIS: error= 1.13D-05 at cycle   2 NSaved=   2.
 NSaved= 2 IEnMin= 1 EnMin= -116.422657005782     IErMin= 1 ErrMin= 1.12D-05
 ErrMax= 1.13D-05  0.00D+00 EMaxC= 1.00D-01 BMatC= 9.49D-09 BMatP= 8.82D-09
 IDIUse=1 WtCom= 1.00D+00 WtEn= 0.00D+00
 Coeff-Com:  0.509D+00 0.491D+00
 Coeff:      0.509D+00 0.491D+00
 Gap=     0.316 Goal=   None    Shift=    0.000
 RMSDP=1.66D-06 MaxDP=3.09D-05 DE= 2.66D-11 OVMax= 2.80D-05

 Cycle   9  Pass 1  IDiag  1:
 E= -116.422657015551     Delta-E=       -0.000000009796 Rises=F Damp=F
 DIIS: error= 6.63D-07 at cycle   3 NSaved=   3.
 NSaved= 3 IEnMin= 3 EnMin= -116.422657015551     IErMin= 3 ErrMin= 6.63D-07
 ErrMax= 6.63D-07  0.00D+00 EMaxC= 1.00D-01 BMatC= 2.92D-11 BMatP= 8.82D-09
 IDIUse=1 WtCom= 1.00D+00 WtEn= 0.00D+00
 Coeff-Com:  0.120D+00 0.123D+00 0.757D+00
 Coeff:      0.120D+00 0.123D+00 0.757D+00
 Gap=     0.316 Goal=   None    Shift=    0.000
 RMSDP=2.72D-07 MaxDP=3.35D-06 DE=-9.80D-09 OVMax= 4.49D-06

 Cycle  10  Pass 1  IDiag  1:
 E= -116.422657015539     Delta-E=        0.000000000012 Rises=F Damp=F
 DIIS: error= 8.61D-07 at cycle   4 NSaved=   4.
 NSaved= 4 IEnMin= 3 EnMin= -116.422657015551     IErMin= 3 ErrMin= 6.63D-07
 ErrMax= 8.61D-07  0.00D+00 EMaxC= 1.00D-01 BMatC= 4.23D-11 BMatP= 2.92D-11
 IDIUse=1 WtCom= 1.00D+00 WtEn= 0.00D+00
 Coeff-Com: -0.532D-02-0.699D-03 0.553D+00 0.453D+00
 Coeff:     -0.532D-02-0.699D-03 0.553D+00 0.453D+00
 Gap=     0.316 Goal=   None    Shift=    0.000
 RMSDP=1.37D-07 MaxDP=4.42D-06 DE= 1.21D-11 OVMax= 2.89D-06

 Cycle  11  Pass 1  IDiag  1:
 E= -116.422657015578     Delta-E=       -0.000000000040 Rises=F Damp=F
 DIIS: error= 1.16D-07 at cycle   5 NSaved=   5.
 NSaved= 5 IEnMin= 5 EnMin= -116.422657015578     IErMin= 5 ErrMin= 1.16D-07
 ErrMax= 1.16D-07  0.00D+00 EMaxC= 1.00D-01 BMatC= 1.28D-12 BMatP= 2.92D-11
 IDIUse=1 WtCom= 1.00D+00 WtEn= 0.00D+00
 Coeff-Com: -0.113D-01-0.932D-02 0.223D+00 0.239D+00 0.559D+00
 Coeff:     -0.113D-01-0.932D-02 0.223D+00 0.239D+00 0.559D+00
 Gap=     0.316 Goal=   None    Shift=    0.000
 RMSDP=1.79D-08 MaxDP=2.93D-07 DE=-3.98D-11 OVMax= 3.83D-07

 Cycle  12  Pass 1  IDiag  1:
 E= -116.422657015580     Delta-E=       -0.000000000001 Rises=F Damp=F
 DIIS: error= 1.16D-08 at cycle   6 NSaved=   6.
 NSaved= 6 IEnMin= 6 EnMin= -116.422657015580     IErMin= 6 ErrMin= 1.16D-08
 ErrMax= 1.16D-08  0.00D+00 EMaxC= 1.00D-01 BMatC= 1.26D-14 BMatP= 1.28D-12
 IDIUse=1 WtCom= 1.00D+00 WtEn= 0.00D+00
 Coeff-Com: -0.303D-02-0.272D-02 0.386D-01 0.496D-01 0.149D+00 0.769D+00
 Coeff:     -0.303D-02-0.272D-02 0.386D-01 0.496D-01 0.149D+00 0.769D+00
 Gap=     0.316 Goal=   None    Shift=    0.000
 RMSDP=3.10D-09 MaxDP=3.65D-08 DE=-1.39D-12 OVMax= 4.56D-08

 SCF Done:  E(RPBE1PBE) =  -116.422657016     A.U. after   12 cycles
            NFock= 12  Conv=0.31D-08     -V/T= 2.0113
 KE= 1.151209351008D+02 PE=-3.868960101738D+02 EE= 9.641776829659D+01
 Leave Link  502 at Mon Mar 21 20:18:14 2022, MaxMem=  8589934592 cpu:              15.1 elap:               2.0
 (Enter /home/sabyasachi/g16/l801.exe)
 DoSCS=F DFT=T ScalE2(SS,OS)=  1.000000  1.000000
 ExpMin= 6.71D-02 ExpMax= 1.24D+03 ExpMxC= 1.86D+02 IAcc=3 IRadAn=         5 AccDes= 0.00D+00
 HarFok:  IExCor=  205 AccDes= 0.00D+00 IRadAn=         5 IDoV=-2 UseB2=F ITyADJ=14
 ICtDFT= 12500011 ScaDFX=  1.000000  1.000000  1.000000  1.000000
 Largest valence mixing into a core orbital is  7.18D-05
 Largest core mixing into a valence orbital is  1.72D-05
 Range of M.O.s used for correlation:     4    92
 NBasis=    92 NAE=    11 NBE=    11 NFC=     3 NFV=     0
 NROrb=     89 NOA=     8 NOB=     8 NVA=    81 NVB=    81

 **** Warning!!: The largest alpha MO coefficient is  0.82325813D+02

 Leave Link  801 at Mon Mar 21 20:18:14 2022, MaxMem=  8589934592 cpu:               0.5 elap:               0.1
 (Enter /home/sabyasachi/g16/l914.exe)
 RHF ground state
 Keep R1, R2, and R3 ints in memory in canonical form, NReq=544746275.
 FoFCou: FMM=F IPFlag=           0 FMFlag=           0 FMFlg1=           0
         NFxFlg=           0 DoJE=F BraDBF=F KetDBF=F FulRan=T
         wScrn=  0.000000 ICntrl=       600 IOpCl=  0 I1Cent=           0 NGrid=           0
         NMat0=    1 NMatS0=   4278 NMatT0=    0 NMatD0=    1 NMtDS0=    0 NMtDT0=    0
 Symmetry not used in FoFCou.
 Two-electron integral symmetry not used.
 MDV=  8589934592 DFT=T DoStab=F Mixed=T DoRPA=T DoScal=F NonHer=T
 Making orbital integer symmetry assigments:
 Orbital symmetries:
       Occupied  (A) (A) (A) (A) (A) (A) (A) (A) (A) (A) (A)
       Virtual   (A) (A) (A) (A) (A) (A) (A) (A) (A) (A) (A) (A)
                 (A) (A) (A) (A) (A) (A) (A) (A) (A) (A) (A) (A)
                 (A) (A) (A) (A) (A) (A) (A) (A) (A) (A) (A) (A)
                 (A) (A) (A) (A) (A) (A) (A) (A) (A) (A) (A) (A)
                 (A) (A) (A) (A) (A) (A) (A) (A) (A) (A) (A) (A)
                 (A) (A) (A) (A) (A) (A) (A) (A) (A) (A) (A) (A)
                 (A) (A) (A) (A) (A) (A) (A) (A) (A)
   648 initial guesses have been made.
 Convergence on wavefunction:    0.001000000000000
 Davidson Disk Diagonalization:  ConvIn= 1.00D-03 SkipCon=T Conv= 1.00D-03.
 Max sub-space:  3888 roots to seek:  1296 dimension of matrix:         1296
 *** WARNING: Number of orthogonal guesses is          648
 Iteration     1 Dimension   648 NMult     0 NNew    648
 CISAX will form   648 AO SS matrices at one time.
 NMat=   648 NSing=   648 JSym2X= 0.
 New state      1 was old state      3
 New state      2 was old state      6
 New state      3 was old state      5
 New state      4 was old state      1
 New state      5 was old state      2
 New state      6 was old state      7
 New state      7 was old state      8
 New state      8 was old state      9
 New state      9 was old state     10
 New state     10 was old state     13
 New state     12 was old state     14
 New state     13 was old state     12
 New state     14 was old state     16
 New state     15 was old state      4
 New state     16 was old state     18
 New state     18 was old state     15
 New state     23 was old state     25
 New state     24 was old state     23
 New state     25 was old state     26
 New state     26 was old state     28
 New state     28 was old state     29
 New state     29 was old state     33
 New state     30 was old state     32
 New state     32 was old state     37
 New state     33 was old state     36
 New state     34 was old state     30
 New state     35 was old state     24
 New state     36 was old state     34
 New state     37 was old state     35
 New state     38 was old state     41
 New state     41 was old state     42
 New state     42 was old state     38
 New state     45 was old state     47
 New state     46 was old state     45
 New state     47 was old state     50
 New state     48 was old state     49
 New state     49 was old state     53
 New state     50 was old state     51
 New state     51 was old state     52
 New state     52 was old state     55
 New state     53 was old state     56
 New state     54 was old state     46
 New state     55 was old state     61
 New state     56 was old state     60
 New state     57 was old state     59
 New state     58 was old state     48
 New state     59 was old state     57
 New state     60 was old state     58
 New state     61 was old state     54
 New state     62 was old state     66
 New state     63 was old state     67
 New state     64 was old state     63
 New state     66 was old state     69
 New state     67 was old state     68
 New state     68 was old state     71
 New state     69 was old state     70
 New state     70 was old state     73
 New state     71 was old state     72
 New state     72 was old state     74
 New state     73 was old state     75
 New state     74 was old state     64
 New state     75 was old state     77
 New state     77 was old state     78
 New state     78 was old state     79
 New state     79 was old state     83
 New state     80 was old state     86
 New state     81 was old state     87
 New state     82 was old state     84
 New state     83 was old state     82
 New state     84 was old state     85
 New state     85 was old state     88
 New state     86 was old state     89
 New state     87 was old state     80
 New state     88 was old state     81
 No map to state     89
 New state     90 was old state     92
 New state     91 was old state     93
 New state     92 was old state     94
 New state     93 was old state     95
 New state     94 was old state     90
 New state     95 was old state     91
 New state     97 was old state     99
 New state     98 was old state     97
 New state     99 was old state     98
 New state    100 was old state    102
 New state    102 was old state    100
 New state    105 was old state    107
 New state    106 was old state    105
 New state    107 was old state    109
 New state    109 was old state    106
 New state    111 was old state    112
 New state    112 was old state    121
 New state    113 was old state    120
 New state    114 was old state    111
 New state    115 was old state    113
 New state    116 was old state    118
 New state    117 was old state    119
 New state    118 was old state    122
 New state    119 was old state    123
 New state    120 was old state    114
 New state    121 was old state    117
 New state    122 was old state    116
 New state    123 was old state    115
 New state    124 was old state    129
 New state    125 was old state    130
 New state    126 was old state    124
 New state    127 was old state    128
 New state    128 was old state    126
 New state    129 was old state    127
 New state    130 was old state    125
 New state    131 was old state    136
 New state    132 was old state    137
 New state    134 was old state    139
 New state    135 was old state    132
 New state    136 was old state    134
 New state    137 was old state    135
 New state    138 was old state    131
 New state    139 was old state    144
 New state    140 was old state    142
 New state    141 was old state    145
 New state    142 was old state    148
 New state    143 was old state    149
 New state    144 was old state    138
 New state    145 was old state    146
 New state    146 was old state    147
 New state    147 was old state    141
 New state    148 was old state    140
 New state    149 was old state    143
 New state    150 was old state    157
 New state    151 was old state    156
 New state    152 was old state    154
 New state    153 was old state    155
 New state    154 was old state    153
 New state    155 was old state    152
 New state    156 was old state    151
 New state    157 was old state    150
 New state    158 was old state    160
 New state    159 was old state    162
 New state    160 was old state    163
 New state    162 was old state    165
 New state    163 was old state    166
 New state    164 was old state    158
 New state    165 was old state    159
 New state    166 was old state    174
 New state    167 was old state    173
 New state    168 was old state    167
 New state    169 was old state    176
 New state    170 was old state    164
 New state    171 was old state    169
 New state    172 was old state    170
 New state    173 was old state    168
 New state    174 was old state    179
 New state    175 was old state    172
 New state    176 was old state    171
 New state    177 was old state    181
 New state    178 was old state    177
 New state    179 was old state    178
 New state    181 was old state    183
 New state    182 was old state    184
 New state    183 was old state    182
 New state    184 was old state    186
 New state    186 was old state    188
 New state    187 was old state    191
 New state    188 was old state    192
 New state    189 was old state    187
 New state    190 was old state    194
 New state    191 was old state    189
 New state    192 was old state    190
 New state    193 was old state    197
 New state    194 was old state    196
 New state    195 was old state    193
 New state    196 was old state    200
 New state    197 was old state    198
 New state    198 was old state    199
 New state    199 was old state    202
 New state    200 was old state    203
 New state    202 was old state    234
 New state    203 was old state    204
 New state    204 was old state    205
 New state    205 was old state    209
 New state    209 was old state    215
 New state    210 was old state    214
 New state    211 was old state    210
 New state    212 was old state    211
 New state    213 was old state    212
 New state    214 was old state    213
 New state    215 was old state    218
 New state    216 was old state    219
 New state    218 was old state    225
 New state    219 was old state    226
 New state    221 was old state    222
 New state    222 was old state    223
 New state    223 was old state    224
 New state    224 was old state    228
 New state    225 was old state    227
 New state    226 was old state    221
 New state    227 was old state    230
 New state    228 was old state    216
 New state    229 was old state    233
 New state    230 was old state    231
 New state    231 was old state    232
 New state    232 was old state    236
 New state    233 was old state    229
 New state    234 was old state    235
 No map to state    235
 New state    236 was old state    245
 New state    239 was old state    241
 New state    240 was old state    239
 New state    241 was old state    242
 New state    242 was old state    243
 New state    243 was old state    244
 New state    244 was old state    246
 New state    245 was old state    240
 New state    246 was old state    247
 New state    247 was old state    248
 New state    248 was old state    264
 New state    253 was old state    254
 New state    254 was old state    255
 New state    255 was old state    256
 New state    256 was old state    257
 New state    257 was old state    258
 New state    258 was old state    253
 New state    261 was old state    262
 New state    262 was old state    263
 New state    263 was old state    261
 New state    264 was old state    267
 New state    267 was old state    272
 New state    272 was old state    278
 New state    273 was old state    279
 New state    274 was old state    280
 New state    275 was old state    273
 New state    276 was old state    274
 New state    277 was old state    275
 New state    278 was old state    276
 New state    279 was old state    277
 New state    280 was old state    281
 New state    281 was old state    282
 New state    282 was old state    283
 New state    283 was old state    284
 New state    284 was old state    285
 New state    285 was old state    286
 New state    286 was old state    287
 New state    287 was old state    288
 New state    288 was old state    291
 New state    291 was old state    298
 New state    296 was old state    297
 New state    297 was old state    299
 New state    298 was old state    300
 New state    299 was old state    296
 New state    300 was old state    301
 New state    301 was old state    302
 New state    302 was old state    303
 New state    303 was old state    304
 New state    304 was old state    305
 New state    305 was old state    325
 New state    308 was old state    313
 New state    309 was old state    312
 New state    310 was old state    314
 New state    311 was old state    308
 New state    312 was old state    309
 New state    313 was old state    323
 New state    314 was old state    324
 New state    315 was old state    319
 New state    316 was old state    310
 New state    317 was old state    311
 New state    318 was old state    326
 New state    319 was old state    327
 New state    320 was old state    321
 New state    321 was old state    316
 New state    322 was old state    317
 New state    323 was old state    322
 New state    324 was old state    328
 New state    325 was old state    329
 New state    326 was old state    315
 New state    327 was old state    320
 New state    328 was old state    318
 New state    329 was old state    335
 New state    332 was old state    334
 New state    334 was old state    337
 New state    335 was old state    336
 New state    336 was old state    339
 New state    337 was old state    340
 New state    338 was old state    341
 New state    339 was old state    332
 New state    340 was old state    342
 New state    341 was old state    343
 New state    342 was old state    346
 New state    343 was old state    344
 New state    344 was old state    345
 No map to state    345
 New state    346 was old state    347
 New state    347 was old state    350
 New state    348 was old state    356
 New state    349 was old state    357
 New state    350 was old state    353
 New state    351 was old state    352
 New state    352 was old state    360
 New state    353 was old state    361
 New state    354 was old state    355
 New state    355 was old state    351
 New state    356 was old state    349
 New state    357 was old state    354
 New state    358 was old state    348
 New state    359 was old state    358
 New state    360 was old state    359
 New state    361 was old state    362
 New state    362 was old state    363
 New state    363 was old state    364
 New state    364 was old state    366
 New state    365 was old state    367
 New state    366 was old state    365
 New state    367 was old state    368
 New state    368 was old state    373
 New state    373 was old state    376
 New state    374 was old state    377
 New state    375 was old state    374
 New state    376 was old state    375
 New state    377 was old state    380
 New state    379 was old state    381
 New state    380 was old state    383
 New state    381 was old state    382
 New state    382 was old state    390
 New state    383 was old state    379
 New state    384 was old state    387
 New state    385 was old state    388
 New state    386 was old state    389
 New state    387 was old state    391
 New state    388 was old state    385
 New state    389 was old state    386
 New state    390 was old state    384
 New state    391 was old state    403
 New state    393 was old state    395
 New state    394 was old state    396
 New state    395 was old state    393
 New state    396 was old state    394
 New state    397 was old state    399
 New state    398 was old state    400
 New state    399 was old state    401
 New state    400 was old state    397
 New state    401 was old state    398
 New state    402 was old state    405
 No map to state    403
 New state    405 was old state    402
 New state    406 was old state    408
 New state    408 was old state    410
 New state    409 was old state    406
 New state    410 was old state    411
 New state    411 was old state    412
 New state    412 was old state    413
 New state    413 was old state    414
 New state    414 was old state    409
 New state    415 was old state    419
 New state    416 was old state    420
 New state    418 was old state    415
 New state    419 was old state    416
 New state    420 was old state    421
 New state    421 was old state    422
 New state    422 was old state    418
 New state    423 was old state    426
 New state    424 was old state    427
 New state    425 was old state    423
 New state    426 was old state    424
 New state    427 was old state    425
 New state    429 was old state    441
 New state    430 was old state    440
 New state    431 was old state    429
 New state    432 was old state    430
 New state    433 was old state    431
 New state    434 was old state    432
 New state    435 was old state    436
 New state    436 was old state    437
 New state    437 was old state    435
 New state    438 was old state    434
 New state    439 was old state    438
 New state    440 was old state    439
 New state    441 was old state    433
 New state    442 was old state    447
 New state    443 was old state    446
 New state    444 was old state    445
 New state    445 was old state    444
 New state    446 was old state    448
 New state    447 was old state    449
 New state    448 was old state    450
 New state    449 was old state    451
 New state    450 was old state    452
 New state    451 was old state    455
 New state    452 was old state    456
 New state    453 was old state    458
 New state    454 was old state    453
 New state    455 was old state    454
 New state    456 was old state    443
 New state    457 was old state    442
 New state    458 was old state    457
 New state    459 was old state    462
 New state    460 was old state    463
 New state    462 was old state    459
 New state    463 was old state    460
 New state    464 was old state    465
 New state    465 was old state    464
 New state    466 was old state    471
 New state    467 was old state    472
 New state    468 was old state    466
 New state    469 was old state    467
 New state    471 was old state    469
 New state    472 was old state    468
 New state    473 was old state    474
 New state    474 was old state    473
 New state    475 was old state    485
 New state    476 was old state    486
 New state    477 was old state    475
 New state    478 was old state    476
 New state    479 was old state    477
 New state    480 was old state    478
 New state    481 was old state    479
 New state    482 was old state    480
 New state    483 was old state    482
 New state    484 was old state    483
 New state    485 was old state    484
 New state    486 was old state    481
 New state    491 was old state    494
 New state    492 was old state    493
 New state    493 was old state    491
 New state    494 was old state    492
 New state    495 was old state    497
 New state    496 was old state    498
 New state    497 was old state    499
 New state    498 was old state    500
 New state    499 was old state    501
 New state    500 was old state    496
 New state    501 was old state    495
 New state    504 was old state    505
 New state    505 was old state    506
 New state    506 was old state    504
 New state    514 was old state    515
 New state    515 was old state    514
 New state    519 was old state    530
 New state    520 was old state    529
 New state    521 was old state    522
 New state    522 was old state    521
 New state    523 was old state    526
 New state    524 was old state    525
 New state    525 was old state    524
 New state    526 was old state    523
 New state    527 was old state    531
 New state    528 was old state    532
 New state    529 was old state    519
 New state    530 was old state    520
 New state    531 was old state    533
 New state    532 was old state    534
 New state    533 was old state    527
 New state    534 was old state    528
 New state    538 was old state    542
 New state    539 was old state    543
 New state    540 was old state    541
 New state    541 was old state    538
 New state    542 was old state    539
 New state    543 was old state    540
 New state    558 was old state    559
 New state    559 was old state    558
 New state    561 was old state    562
 New state    562 was old state    561
 New state    568 was old state    569
 New state    569 was old state    570
 New state    570 was old state    568
 New state    574 was old state    576
 New state    575 was old state    574
 New state    576 was old state    577
 New state    577 was old state    575
 New state    579 was old state    582
 New state    580 was old state    583
 New state    581 was old state    579
 New state    582 was old state    580
 New state    583 was old state    581
 New state    584 was old state    586
 New state    585 was old state    584
 New state    586 was old state    585
 New state    595 was old state    596
 New state    596 was old state    597
 New state    597 was old state    595
 New state    598 was old state    599
 New state    599 was old state    598
 New state    603 was old state    607
 New state    604 was old state    608
 New state    605 was old state    610
 New state    606 was old state    609
 New state    607 was old state    604
 New state    608 was old state    603
 New state    609 was old state    606
 New state    610 was old state    605
 New state    620 was old state    621
 New state    621 was old state    620
 New state    622 was old state    623
 New state    623 was old state    624
 New state    624 was old state    622
 New state    628 was old state    630
 New state    629 was old state    631
 New state    630 was old state    628
 New state    631 was old state    629
 Excitation Energies [eV] at current iteration:
 Root      1 :     6.797109989502317
 Root      2 :     7.070391903553635
 Root      3 :     7.070394445623985
 Root      4 :     7.361411565402330
 Root      5 :     7.361422879297426
 Root      6 :     8.362090966209221
 Root      7 :     8.362101112073260
 Root      8 :     9.010078340563668
 Root      9 :     9.010089717883055
 Root     10 :     9.465143815884392
 Root     11 :    10.007985743441450
 Root     12 :    10.019940839288890
 Root     13 :    10.019943221575100
 Root     14 :    10.641758396796830
 Root     15 :    10.663372121913130
 Root     16 :    10.728979401154070
 Root     17 :    10.729013282598150
 Root     18 :    10.748361905239370
 Root     19 :    10.853028907396300
 Root     20 :    10.853078016374790
 Root     21 :    11.653742024309170
 Root     22 :    11.653849522000610
 Root     23 :    11.813055086852630
 Root     24 :    11.813056728371030
 Root     25 :    11.834874781167330
 Root     26 :    11.870197730885390
 Root     27 :    12.010763088511440
 Root     28 :    12.010817652992850
 Root     29 :    12.111869409870540
 Root     30 :    12.111891798320670
 Root     31 :    12.295168968646450
 Root     32 :    12.519152212368680
 Root     33 :    12.519157386433530
 Root     34 :    12.612353719604290
 Root     35 :    12.842991957197360
 Root     36 :    13.037137565478360
 Root     37 :    13.037243188222590
 Root     38 :    13.496062538799730
 Root     39 :    13.542828661923090
 Root     40 :    13.542936744616070
 Root     41 :    13.549622607979920
 Root     42 :    13.635357161795590
 Root     43 :    13.840526428991870
 Root     44 :    13.840528939411590
 Root     45 :    14.083161482177190
 Root     46 :    14.109411344420020
 Root     47 :    14.111345657285250
 Root     48 :    14.111353677093020
 Root     49 :    14.209618514723300
 Root     50 :    14.209619748139320
 Root     51 :    14.232752031713240
 Root     52 :    14.395331304838930
 Root     53 :    14.395333878959420
 Root     54 :    14.455805251242460
 Root     55 :    14.665160892525040
 Root     56 :    14.696325512836230
 Root     57 :    14.696329734927370
 Root     58 :    14.711127669118200
 Root     59 :    14.862995347359210
 Root     60 :    14.863012473035900
 Root     61 :    14.908960094675340
 Root     62 :    15.187489171885440
 Root     63 :    15.187596057759990
 Root     64 :    15.204209171898660
 Root     65 :    15.438654729491620
 Root     66 :    15.473476851562730
 Root     67 :    15.473516269488270
 Root     68 :    15.527840212979700
 Root     69 :    15.527868887846940
 Root     70 :    15.747568063681610
 Root     71 :    15.747597601733450
 Root     72 :    15.758803169622650
 Root     73 :    15.835919375892780
 Root     74 :    15.835948456329450
 Root     75 :    16.145989988790030
 Root     76 :    16.216151362326110
 Root     77 :    16.349524009673850
 Root     78 :    16.349535891903080
 Root     79 :    16.410841030272350
 Root     80 :    16.421632087847560
 Root     81 :    16.421650953851630
 Root     82 :    16.527783150554810
 Root     83 :    16.527810876161330
 Root     84 :    16.596805526410550
 Root     85 :    16.604289900878040
 Root     86 :    16.604308767399440
 Root     87 :    16.629049637770160
 Root     88 :    16.629112700751780
 Root     89 :    16.665418407822030
 Root     90 :    16.909142441300560
 Root     91 :    16.909155405050730
 Root     92 :    17.003867671087700
 Root     93 :    17.003871860684730
 Root     94 :    17.186132408961190
 Root     95 :    17.186142562391520
 Root     96 :    17.308897016300020
 Root     97 :    17.386247432915210
 Root     98 :    17.386252678731430
 Root     99 :    17.462125997134070
 Root    100 :    17.803272320208630
 Root    101 :    17.803276732058950
 Root    102 :    17.879692398671530
 Root    103 :    18.030557187823080
 Root    104 :    18.364976831328230
 Root    105 :    18.424898082945490
 Root    106 :    18.427611421681990
 Root    107 :    18.434054727028510
 Root    108 :    18.434126344661530
 Root    109 :    18.444015388935210
 Root    110 :    18.444063167325010
 Root    111 :    18.453219213767750
 Root    112 :    18.512586207252180
 Root    113 :    18.512610835738600
 Root    114 :    18.579050810410540
 Root    115 :    18.579065767947490
 Root    116 :    18.781599628446630
 Root    117 :    18.781697869586790
 Root    118 :    18.838711149833860
 Root    119 :    18.838712391376840
 Root    120 :    18.898266819104080
 Root    121 :    18.912713056376480
 Root    122 :    18.912734313076360
 Root    123 :    18.962741189219560
 Root    124 :    19.185314079332420
 Root    125 :    19.185327760442960
 Root    126 :    19.258967162371160
 Root    127 :    19.437822420424560
 Root    128 :    19.470886667387270
 Root    129 :    19.470892390105010
 Root    130 :    19.570133303297930
 Root    131 :    19.985219047741770
 Root    132 :    19.985268749483590
 Root    133 :    20.016429815867820
 Root    134 :    20.056730053241890
 Root    135 :    20.083696412497340
 Root    136 :    20.083760344771270
 Root    137 :    20.103204048960750
 Root    138 :    20.193682355879200
 Root    139 :    20.260203104423770
 Root    140 :    20.260215404073960
 Root    141 :    20.320825774497260
 Root    142 :    20.330017765473450
 Root    143 :    20.330081309311810
 Root    144 :    20.398912992414430
 Root    145 :    20.405283300927780
 Root    146 :    20.405295054815030
 Root    147 :    20.444317615917030
 Root    148 :    20.444338921369590
 Root    149 :    20.575399383775580
 Root    150 :    20.615576055904780
 Root    151 :    20.615598749536510
 Root    152 :    20.649013033446280
 Root    153 :    20.649083002363500
 Root    154 :    20.776444166985000
 Root    155 :    20.776455945321620
 Root    156 :    20.815110838611670
 Root    157 :    21.031352202274370
 Root    158 :    21.111790531347290
 Root    159 :    21.227032695314570
 Root    160 :    21.227037383615940
 Root    161 :    21.289811407995050
 Root    162 :    21.335199320590420
 Root    163 :    21.335305036387130
 Root    164 :    21.449688226806490
 Root    165 :    21.449777098622590
 Root    166 :    21.471731210559420
 Root    167 :    21.471757320435470
 Root    168 :    21.477268242596410
 Root    169 :    21.506238104000230
 Root    170 :    21.551884566980540
 Root    171 :    21.622194808287080
 Root    172 :    21.622197894101790
 Root    173 :    21.695857216957500
 Root    174 :    21.697961012227260
 Root    175 :    21.780676617913210
 Root    176 :    21.780678594092190
 Root    177 :    21.904973646274910
 Root    178 :    21.936990704588150
 Root    179 :    21.939922840533790
 Root    180 :    21.939932074406020
 Root    181 :    22.241486524271070
 Root    182 :    22.241517532237880
 Root    183 :    22.436835354236780
 Root    184 :    22.459597740241310
 Root    185 :    22.459600630698740
 Root    186 :    22.606899414835170
 Root    187 :    22.744752116170240
 Root    188 :    22.744871879645250
 Root    189 :    22.756040070490420
 Root    190 :    22.857445829913710
 Root    191 :    22.894937558752040
 Root    192 :    22.894979777140830
 Root    193 :    22.972786573252470
 Root    194 :    22.972806879179750
 Root    195 :    23.080572248983490
 Root    196 :    23.117708949985630
 Root    197 :    23.460910561118780
 Root    198 :    23.481409662553420
 Root    199 :    23.505233913851510
 Root    200 :    23.505303927990330
 Root    201 :    23.588130119235040
 Root    202 :    23.758104885343790
 Root    203 :    23.830678232857190
 Root    204 :    23.830689691028080
 Root    205 :    23.908382471067830
 Root    206 :    23.916982322751460
 Root    207 :    23.916991389203690
 Root    208 :    24.161430520368310
 Root    209 :    24.253893403254700
 Root    210 :    24.357155568937560
 Root    211 :    24.379561847372810
 Root    212 :    24.379588169373250
 Root    213 :    24.410938864657290
 Root    214 :    24.410946333405110
 Root    215 :    24.556820093166150
 Root    216 :    24.556823042504480
 Root    217 :    24.630468276203210
 Root    218 :    24.647009618695270
 Root    219 :    24.647111910663520
 Root    220 :    24.762662650927740
 Root    221 :    24.762674508109790
 Root    222 :    24.834275174130130
 Root    223 :    24.849348833463670
 Root    224 :    24.919326447782050
 Root    225 :    24.919378660857110
 Root    226 :    25.069945564372430
 Root    227 :    25.118596732443220
 Root    228 :    25.118669341274480
 Root    229 :    25.272989756067990
 Root    230 :    25.273007378741640
 Root    231 :    25.490751170769320
 Root    232 :    25.490798796370220
 Root    233 :    25.613524071410260
 Root    234 :    25.629851406166240
 Root    235 :    25.629881289473010
 Root    236 :    25.906678000138560
 Root    237 :    25.917571708791980
 Root    238 :    25.917578332458110
 Root    239 :    26.014909642367920
 Root    240 :    26.014910966875050
 Root    241 :    26.029562153637400
 Root    242 :    26.221430373190020
 Root    243 :    26.221438133198480
 Root    244 :    26.431833344780630
 Root    245 :    26.590269557164350
 Root    246 :    26.776689132369730
 Root    247 :    26.776726912829770
 Root    248 :    26.897597678141230
 Root    249 :    27.150137051252680
 Root    250 :    27.150204779418630
 Root    251 :    27.425324429632700
 Root    252 :    27.425368902179330
 Root    253 :    27.567572992399950
 Root    254 :    27.599100894549650
 Root    255 :    27.599149524642610
 Root    256 :    27.825548601799310
 Root    257 :    27.825572461436700
 Root    258 :    27.838519670178860
 Root    259 :    28.010805781904470
 Root    260 :    28.362721540847970
 Root    261 :    28.385675119864370
 Root    262 :    28.385685272463400
 Root    263 :    28.467955921037880
 Root    264 :    28.593555787145320
 Root    265 :    28.705444360375330
 Root    266 :    28.705496526526090
 Root    267 :    28.843562457518420
 Root    268 :    29.027970534802180
 Root    269 :    29.028054859580100
 Root    270 :    29.141733418036680
 Root    271 :    29.141761806563000
 Root    272 :    29.186512977016050
 Root    273 :    29.186544934859410
 Root    274 :    29.263136546313220
 Root    275 :    29.476629230757910
 Root    276 :    29.476647794078860
 Root    277 :    29.620270843466040
 Root    278 :    29.765908788221860
 Root    279 :    29.765955946852940
 Root    280 :    29.802318819011590
 Root    281 :    30.129289940037110
 Root    282 :    30.148964827865030
 Root    283 :    30.304256619547750
 Root    284 :    30.304329858929150
 Root    285 :    30.422674296170720
 Root    286 :    30.774735616245190
 Root    287 :    30.957220690164590
 Root    288 :    31.148194136541240
 Root    289 :    31.301484935569890
 Root    290 :    31.301517291391790
 Root    291 :    31.627062413915550
 Root    292 :    31.879358893298530
 Root    293 :    31.879419418319740
 Root    294 :    32.083367626993830
 Root    295 :    32.083403322300040
 Root    296 :    32.123854261381640
 Root    297 :    32.126605434665420
 Root    298 :    32.126659149039060
 Root    299 :    32.207959522377120
 Root    300 :    32.222827125746240
 Root    301 :    32.222882548816680
 Root    302 :    32.453397850671910
 Root    303 :    32.493281923050300
 Root    304 :    32.493351179900670
 Root    305 :    32.846301850416980
 Root    306 :    33.412645662316570
 Root    307 :    33.412703910013900
 Root    308 :    33.439485100839730
 Root    309 :    33.439490856603460
 Root    310 :    33.542096857951530
 Root    311 :    33.835767276156740
 Root    312 :    33.835880278359440
 Root    313 :    33.870367107168790
 Root    314 :    33.870386978735950
 Root    315 :    33.988410495535360
 Root    316 :    34.045799425399160
 Root    317 :    34.045843601390470
 Root    318 :    34.207951623851440
 Root    319 :    34.208005775608280
 Root    320 :    34.290088852313370
 Root    321 :    34.306486300967540
 Root    322 :    34.306543230158870
 Root    323 :    34.396452912651460
 Root    324 :    34.502088281265340
 Root    325 :    34.502130259923170
 Root    326 :    34.558138169489400
 Root    327 :    34.658746170078150
 Root    328 :    34.658785145399090
 Root    329 :    34.984240494568610
 Root    330 :    35.525272736742910
 Root    331 :    35.525309357585220
 Root    332 :    35.623283319178500
 Root    333 :    35.623314125962070
 Root    334 :    36.032841964139240
 Root    335 :    36.032883213950970
 Root    336 :    36.060720557648440
 Root    337 :    36.212459080725400
 Root    338 :    36.212576324488870
 Root    339 :    36.358607652545290
 Root    340 :    36.374623228036780
 Root    341 :    36.374719197138040
 Root    342 :    36.506070704176880
 Root    343 :    36.767912841217240
 Root    344 :    36.767980637404240
 Root    345 :    36.821529873617180
 Root    346 :    38.021493121816220
 Root    347 :    38.120460835285690
 Root    348 :    38.152657276598740
 Root    349 :    38.152717542427060
 Root    350 :    38.182268346581960
 Root    351 :    38.182316572406770
 Root    352 :    38.354968048165600
 Root    353 :    38.354987120663630
 Root    354 :    38.401101261812250
 Root    355 :    38.404157283636710
 Root    356 :    38.404199677462980
 Root    357 :    38.463112524159610
 Root    358 :    38.565571342928270
 Root    359 :    38.638567215679630
 Root    360 :    38.638624970110900
 Root    361 :    39.351618879227890
 Root    362 :    39.351728497385420
 Root    363 :    39.386050760856700
 Root    364 :    39.617308122603000
 Root    365 :    39.617412482802580
 Root    366 :    39.758411891855500
 Root    367 :    40.084916793194450
 Root    368 :    40.134208473249860
 Root    369 :    40.466997074791200
 Root    370 :    40.467105063592490
 Root    371 :    40.651100267596640
 Root    372 :    40.651175036341120
 Root    373 :    41.234624829643600
 Root    374 :    41.234734785250280
 Root    375 :    41.266320301855520
 Root    376 :    41.316007179422800
 Root    377 :    41.822989284534070
 Root    378 :    42.197990802941850
 Root    379 :    42.911686982167640
 Root    380 :    43.049577109534290
 Root    381 :    43.061455733172180
 Root    382 :    43.061489995325410
 Root    383 :    43.226135741729590
 Root    384 :    43.267323559750860
 Root    385 :    43.267431097130030
 Root    386 :    43.382670965265850
 Root    387 :    43.382770048724000
 Root    388 :    43.579712111147720
 Root    389 :    43.579813707727510
 Root    390 :    43.777710406045750
 Root    391 :    43.902223615743640
 Root    392 :    43.902276053720680
 Root    393 :    44.088020686923380
 Root    394 :    44.088031414736660
 Root    395 :    44.098353786380540
 Root    396 :    44.496892972685150
 Root    397 :    45.293667450393760
 Root    398 :    45.293749296807920
 Root    399 :    45.379365101457310
 Root    400 :    45.623318994852820
 Root    401 :    45.623486237447310
 Root    402 :    45.785858079669910
 Root    403 :    45.971417275230660
 Root    404 :    45.971504302219290
 Root    405 :    46.143714406496970
 Root    406 :    46.890111468721490
 Root    407 :    46.890115010270900
 Root    408 :    46.934667927772470
 Root    409 :    47.037193836563650
 Root    410 :    47.603377608442090
 Root    411 :    47.603469674715550
 Root    412 :    47.859840743398030
 Root    413 :    48.164480749103290
 Root    414 :    48.185901872207280
 Root    415 :    48.430643659750470
 Root    416 :    48.430715466440940
 Root    417 :    48.437714089794730
 Root    418 :    48.514609222184380
 Root    419 :    48.514652449610120
 Root    420 :    48.936644272316210
 Root    421 :    49.146581036809890
 Root    422 :    49.469713505442990
 Root    423 :    50.020221857163940
 Root    424 :    50.020278442814760
 Root    425 :    50.115548941189710
 Root    426 :    50.233286747831330
 Root    427 :    50.233411643235540
 Root    428 :    50.988407111726080
 Root    429 :    51.261428166548660
 Root    430 :    51.271311032857600
 Root    431 :    51.626703897574440
 Root    432 :    51.626715182557530
 Root    433 :    51.759113286741170
 Root    434 :    51.887257958363140
 Root    435 :    52.034557665204810
 Root    436 :    52.034583717178890
 Root    437 :    52.068205857751090
 Root    438 :    52.068233607011590
 Root    439 :    52.249273354174680
 Root    440 :    52.249431572018100
 Root    441 :    52.308746248575590
 Root    442 :    52.363117327155700
 Root    443 :    52.480591165920440
 Root    444 :    52.480614190751890
 Root    445 :    52.905738532222210
 Root    446 :    53.234550739670130
 Root    447 :    53.241419424367030
 Root    448 :    53.241542875975670
 Root    449 :    54.158621446258420
 Root    450 :    54.158669244153390
 Root    451 :    54.747088875609100
 Root    452 :    54.747092645788920
 Root    453 :    54.814830961637370
 Root    454 :    55.026250115801680
 Root    455 :    55.026336529868690
 Root    456 :    55.120399822922730
 Root    457 :    55.120425648522370
 Root    458 :    55.188976929725690
 Root    459 :    55.397249440769710
 Root    460 :    55.397345320763100
 Root    461 :    55.604196284787290
 Root    462 :    55.834958309745560
 Root    463 :    55.835107504374020
 Root    464 :    55.887719301968310
 Root    465 :    56.233930612105560
 Root    466 :    56.895607968099150
 Root    467 :    56.895632289669720
 Root    468 :    57.034570734099020
 Root    469 :    57.037562553825520
 Root    470 :    57.147135765369730
 Root    471 :    57.369042403106570
 Root    472 :    57.369054867475250
 Root    473 :    58.279870589533140
 Root    474 :    58.771267695810330
 Root    475 :    58.832855136036220
 Root    476 :    58.832883932165020
 Root    477 :    59.013619142187340
 Root    478 :    59.077822021345310
 Root    479 :    59.156593446103270
 Root    480 :    59.156597930495360
 Root    481 :    59.318668937773520
 Root    482 :    59.318700571953420
 Root    483 :    59.411955595841650
 Root    484 :    59.442419342304180
 Root    485 :    59.442431719341800
 Root    486 :    59.471584203789850
 Root    487 :    59.984855004053490
 Root    488 :    59.984897532356290
 Root    489 :    60.368775508763140
 Root    490 :    60.368896196608860
 Root    491 :    60.594711464819920
 Root    492 :    60.618764932505080
 Root    493 :    61.416756408020220
 Root    494 :    61.416800525996490
 Root    495 :    61.692644928559590
 Root    496 :    61.692704946118380
 Root    497 :    62.093605383414380
 Root    498 :    62.165628712496720
 Root    499 :    62.165715758843140
 Root    500 :    62.356288102964830
 Root    501 :    62.356350332188110
 Root    502 :    62.788109800038390
 Root    503 :    62.788119151482900
 Root    504 :    62.898053463136650
 Root    505 :    62.911512979559670
 Root    506 :    62.972218814757840
 Root    507 :    63.027792564017670
 Root    508 :    63.027846709313370
 Root    509 :    63.724751631133660
 Root    510 :    63.724939445689440
 Root    511 :    63.781014443582490
 Root    512 :    63.781016270939580
 Root    513 :    64.402106435026140
 Root    514 :    64.451800097430510
 Root    515 :    64.451800916324960
 Root    516 :    64.458343290434580
 Root    517 :    65.060493371723540
 Root    518 :    65.157746501552200
 Root    519 :    65.901623101566600
 Root    520 :    65.901672151316320
 Root    521 :    66.176060874400180
 Root    522 :    66.183004836410400
 Root    523 :    66.213247420902760
 Root    524 :    66.213267422703370
 Root    525 :    66.323268809174170
 Root    526 :    66.323288212568640
 Root    527 :    66.452245731514310
 Root    528 :    66.452278991415270
 Root    529 :    66.484993196388100
 Root    530 :    66.485129758814580
 Root    531 :    66.700364115822300
 Root    532 :    66.700420676584060
 Root    533 :    66.832385150556690
 Root    534 :    66.832422193266250
 Root    535 :    67.704285537882580
 Root    536 :    68.245007328765740
 Root    537 :    68.245032370030540
 Root    538 :    68.669805213961920
 Root    539 :    68.807333640684230
 Root    540 :    68.807359821361590
 Root    541 :    68.837773818246700
 Root    542 :    68.837816148747420
 Root    543 :    69.081893711779830
 Root    544 :    69.549411804668070
 Root    545 :    69.549517484171700
 Root    546 :    70.104832128673680
 Root    547 :    70.316543999984960
 Root    548 :    70.316576557330750
 Root    549 :    70.626023844413780
 Root    550 :    70.626266954696870
 Root    551 :    71.244285135233720
 Root    552 :    71.244384203980560
 Root    553 :    71.550918126809460
 Root    554 :    71.551008982190810
 Root    555 :    71.969399924232550
 Root    556 :    72.466023556908680
 Root    557 :    72.466144500934580
 Root    558 :    73.052876401661190
 Root    559 :    73.053024791929080
 Root    560 :    73.353592887418690
 Root    561 :    73.731550580953050
 Root    562 :    73.775866068522600
 Root    563 :    73.775869216743360
 Root    564 :    74.171779822276700
 Root    565 :    74.437913892796700
 Root    566 :    74.795255375560490
 Root    567 :    74.795367170512710
 Root    568 :    75.264458858702060
 Root    569 :    75.264477552641440
 Root    570 :    75.644572939121910
 Root    571 :    76.349189917571040
 Root    572 :    76.349287775476210
 Root    573 :    76.459179774499650
 Root    574 :    77.299309478271650
 Root    575 :    77.488366770716440
 Root    576 :    77.731366798017990
 Root    577 :    77.731394822537350
 Root    578 :    77.792569156992310
 Root    579 :    78.336945655330580
 Root    580 :    78.337204321541190
 Root    581 :    78.508470759938790
 Root    582 :    78.508734677427850
 Root    583 :    78.621422657594820
 Root    584 :    80.574792303885000
 Root    585 :    80.943350055758560
 Root    586 :    80.943818353081710
 Root    587 :    81.194531652783170
 Root    588 :    81.194553220244880
 Root    589 :    82.339134454500400
 Root    590 :    84.367820071245020
 Root    591 :    84.766595336841500
 Root    592 :    84.766711343057930
 Root    593 :    85.313199723245690
 Root    594 :    85.313666517441770
 Root    595 :    85.567997259177080
 Root    596 :    85.567999910483340
 Root    597 :    85.670862088490150
 Root    598 :    85.718155552488280
 Root    599 :    86.299115424998820
 Root    600 :    87.448686104999470
 Root    601 :    87.449152764184320
 Root    602 :    88.484681014976620
 Root    603 :    90.087161524696070
 Root    604 :    90.095603184442910
 Root    605 :    90.095622799223210
 Root    606 :    90.171105874241490
 Root    607 :    90.634852487291570
 Root    608 :    90.634885117480880
 Root    609 :    90.642901857274910
 Root    610 :    90.690601507953790
 Root    611 :    90.773876492743260
 Root    612 :    90.774178198613820
 Root    613 :    91.580283241122900
 Root    614 :    91.580290503519070
 Root    615 :    92.776523648606400
 Root    616 :    92.892046594757890
 Root    617 :    92.892338310289080
 Root    618 :    94.064774144192850
 Root    619 :    94.064775543090020
 Root    620 :    94.105763052764980
 Root    621 :    94.357473226877420
 Root    622 :    94.788466459792050
 Root    623 :    94.788651354768760
 Root    624 :    94.847442072601740
 Root    625 :    96.536581236913250
 Root    626 :    96.536691720227760
 Root    627 :    97.309264689633380
 Root    628 :    97.455644566159710
 Root    629 :    97.455905767509630
 Root    630 :    97.781683127604270
 Root    631 :    97.781890402731050
 Root    632 :    98.885186973854690
 Root    633 :    99.525708588174990
 Root    634 :    99.526019643395980
 Root    635 :   101.889040949468600
 Root    636 :   101.889242623770200
 Root    637 :   103.778499226804800
 Root    638 :   103.957430673220600
 Root    639 :   103.957665727334800
 Root    640 :   105.783201138614500
 Root    641 :   112.100232471137400
 Root    642 :   112.100239160926300
 Root    643 :   117.882661873233800
 Root    644 :   117.882772984384300
 Root    645 :   118.007929579225300
 Root    646 :   119.435959465863900
 Root    647 :   124.466148192598300
 Root    648 :   126.946995916651200
 Convergence achieved for final wavefunctions.
 ***********************************************************************
 Excited states from <AA,BB:AA,BB> singles matrix:
 ***********************************************************************
 
 1PDM for each excited state written to RWF  633
 Ground to excited state transition densities written to RWF  633
 Ground to excited state transition electric dipole moments (Au):
       state          X           Y           Z        Dip. S.      Osc.
         1         0.0000     -0.0000      0.0000      0.0000      0.0000
         2        -0.0713      0.0149     -0.0003      0.0053      0.0009
         3        -0.0149     -0.0712      0.0011      0.0053      0.0009
         4        -0.2510      0.0427     -0.0007      0.0648      0.0117
         5        -0.0427     -0.2510      0.0038      0.0648      0.0117
         6        -0.3805      0.0776     -0.0013      0.1508      0.0309
         7        -0.0776     -0.3804      0.0057      0.1508      0.0309
         8        -0.4813      0.0757     -0.0013      0.2374      0.0524
         9        -0.0757     -0.4812      0.0072      0.2374      0.0524
        10         0.0004     -0.0260     -1.7213      2.9637      0.6873
        11         0.0001     -0.0001      0.0000      0.0000      0.0000
        12        -0.0247      0.1338     -0.0020      0.0185      0.0045
        13        -0.1338     -0.0247      0.0003      0.0185      0.0045
        14        -0.0000      0.0000     -0.0000      0.0000      0.0000
        15         0.0003     -0.0223     -1.4735      2.1717      0.5674
        16        -0.0002     -0.0032     -0.0002      0.0000      0.0000
        17         0.0031     -0.0002      0.0002      0.0000      0.0000
        18         0.0000     -0.0044     -0.2885      0.0832      0.0219
        19        -0.3123      0.0234     -0.0004      0.0980      0.0261
        20        -0.0234     -0.3122      0.0048      0.0980      0.0261
        21        -0.6339     -0.0689      0.0009      0.4065      0.1161
        22         0.0689     -0.6338      0.0096      0.4065      0.1161
        23        -0.0540     -0.1923      0.0029      0.0399      0.0115
        24         0.1923     -0.0540      0.0009      0.0399      0.0115
        25        -0.0000      0.0000     -0.0000      0.0000      0.0000
        26        -0.0001      0.0001     -0.0000      0.0000      0.0000
        27        -0.2375     -0.0968      0.0014      0.0658      0.0194
        28        -0.0969      0.2375     -0.0036      0.0658      0.0194
        29        -0.0215      0.0407     -0.0006      0.0021      0.0006
        30         0.0407      0.0214     -0.0003      0.0021      0.0006
        31         0.0000     -0.0034     -0.2291      0.0525      0.0158
        32         0.0900     -0.1753      0.0026      0.0388      0.0119
        33        -0.1753     -0.0900      0.0013      0.0389      0.0119
        34        -0.0001      0.0069      0.4571      0.2089      0.0646
        35        -0.0002      0.0114      0.7539      0.5685      0.1789
        36         0.0437      0.0050     -0.0001      0.0019      0.0006
        37        -0.0050      0.0437     -0.0007      0.0019      0.0006
        38        -0.0000      0.0000     -0.0000      0.0000      0.0000
        39        -0.0521     -0.0062     -0.0001      0.0028      0.0009
        40         0.0062     -0.0521      0.0007      0.0027      0.0009
        41        -0.0001      0.0030      0.2004      0.0402      0.0133
        42        -0.0000      0.0017      0.1162      0.0135      0.0045
        43         0.5052      0.1684     -0.0024      0.2836      0.0962
        44         0.1684     -0.5052      0.0076      0.2836      0.0962
        45        -0.0004      0.0008     -0.0000      0.0000      0.0000
        46        -0.0002      0.0129      0.8783      0.7716      0.2667
        47         0.1123     -0.3820      0.0051      0.1585      0.0548
        48         0.3820      0.1123     -0.0013      0.1585      0.0548
        49        -0.1183      0.0459     -0.0007      0.0161      0.0056
        50        -0.0459     -0.1183      0.0018      0.0161      0.0056
        51        -0.0000      0.0000     -0.0000      0.0000      0.0000
        52        -0.2212      0.0391     -0.0006      0.0504      0.0178
        53        -0.0391     -0.2211      0.0033      0.0504      0.0178
        54         0.0000      0.0005      0.0336      0.0011      0.0004
        55         0.0000      0.0000     -0.0000      0.0000      0.0000
        56         0.4876     -0.1862      0.0027      0.2724      0.0981
        57        -0.1862     -0.4875      0.0074      0.2724      0.0981
        58        -0.0007     -0.0029     -0.1861      0.0346      0.0125
        59        -0.2086     -0.0273      0.0002      0.0443      0.0161
        60         0.0274     -0.2087      0.0031      0.0443      0.0161
        61         0.0002     -0.0078     -0.5221      0.2727      0.0996
        62        -0.4866     -0.0422      0.0007      0.2386      0.0888
        63         0.0422     -0.4866      0.0075      0.2386      0.0888
        64         0.0001      0.0040      0.2490      0.0620      0.0231
        65         0.0001      0.0038      0.2502      0.0626      0.0237
        66         0.7901      0.3122     -0.0045      0.7218      0.2736
        67         0.3122     -0.7900      0.0120      0.7216      0.2736
        68        -0.1218      0.4244     -0.0064      0.1950      0.0742
        69        -0.4243     -0.1217      0.0018      0.1949      0.0741
        70        -0.0692      0.2300     -0.0035      0.0577      0.0223
        71        -0.2299     -0.0691      0.0010      0.0576      0.0222
        72         0.0002      0.0005     -0.0000      0.0000      0.0000
        73         0.9533      0.1092     -0.0014      0.9207      0.3572
        74        -0.1092      0.9531     -0.0144      0.9206      0.3572
        75         0.0000     -0.0023     -0.1513      0.0229      0.0091
        76         0.0000     -0.0028     -0.1846      0.0341      0.0135
        77        -0.0088     -0.0729      0.0011      0.0054      0.0022
        78         0.0729     -0.0088      0.0001      0.0054      0.0022
        79         0.0000     -0.0016     -0.1105      0.0122      0.0049
        80         0.1089     -0.0121      0.0003      0.0120      0.0048
        81         0.0122      0.1089     -0.0016      0.0120      0.0048
        82         0.0598     -0.0081      0.0003      0.0036      0.0015
        83         0.0081      0.0597     -0.0008      0.0036      0.0015
        84         0.0002     -0.0016      0.0000      0.0000      0.0000
        85         0.5066      0.2031     -0.0030      0.2979      0.1212
        86        -0.2032      0.5070     -0.0077      0.2984      0.1214
        87        -0.3484     -0.0427      0.0006      0.1232      0.0502
        88         0.0424     -0.3477      0.0055      0.1227      0.0500
        89         0.0001     -0.0068     -0.4388      0.1926      0.0786
        90        -0.0886      0.0138     -0.0002      0.0080      0.0033
        91        -0.0138     -0.0886      0.0013      0.0080      0.0033
        92        -0.0811     -0.5370      0.0081      0.2950      0.1229
        93         0.5371     -0.0811      0.0014      0.2950      0.1229
        94        -0.2709      0.2739     -0.0042      0.1484      0.0625
        95        -0.2739     -0.2709      0.0040      0.1484      0.0625
        96         0.0001      0.0000     -0.0000      0.0000      0.0000
        97        -0.2641     -0.4196      0.0063      0.2458      0.1047
        98         0.4197     -0.2640      0.0041      0.2458      0.1047
        99         0.0000      0.0015      0.1020      0.0104      0.0045
       100        -0.0006      0.0968     -0.0016      0.0094      0.0041
       101         0.0967      0.0006     -0.0001      0.0094      0.0041
       102         0.0003     -0.0196     -1.2955      1.6787      0.7353
       103         0.0001     -0.0067     -0.4429      0.1962      0.0867
       104        -0.0000     -0.0000      0.0000      0.0000      0.0000
       105         0.0001      0.0001     -0.0000      0.0000      0.0000
       106        -0.0003      0.0000     -0.0003      0.0000      0.0000
       107        -0.0048      0.0548     -0.0008      0.0030      0.0014
       108         0.0548      0.0048     -0.0005      0.0030      0.0014
       109        -0.0344     -0.0001     -0.0004      0.0012      0.0005
       110         0.0000     -0.0345     -0.0001      0.0012      0.0005
       111        -0.0000      0.0029      0.2002      0.0401      0.0181
       112        -0.1321     -0.0217      0.0003      0.0179      0.0081
       113        -0.0216      0.1322     -0.0020      0.0179      0.0081
       114        -0.2063      0.0670     -0.0011      0.0471      0.0214
       115         0.0670      0.2063     -0.0031      0.0470      0.0214
       116         0.5502      0.0164     -0.0001      0.3030      0.1394
       117        -0.0164      0.5501     -0.0083      0.3030      0.1394
       118        -0.0235     -0.0821      0.0013      0.0073      0.0034
       119         0.0822     -0.0234      0.0003      0.0073      0.0034
       120        -0.0002      0.0004     -0.0000      0.0000      0.0000
       121        -0.0334      0.1510     -0.0024      0.0239      0.0111
       122        -0.1509     -0.0333      0.0006      0.0239      0.0111
       123         0.0000      0.0039      0.2611      0.0682      0.0317
       124         0.1526      0.1178     -0.0018      0.0372      0.0175
       125        -0.1178      0.1526     -0.0024      0.0372      0.0175
       126        -0.0000      0.0044      0.2908      0.0846      0.0399
       127        -0.0001      0.0070      0.4650      0.2162      0.1030
       128         0.0441     -0.0566      0.0008      0.0052      0.0025
       129         0.0566      0.0441     -0.0004      0.0052      0.0025
       130        -0.0000      0.0010      0.0657      0.0043      0.0021
       131         0.0883      0.0089     -0.0001      0.0079      0.0039
       132        -0.0089      0.0882     -0.0013      0.0079      0.0038
       133         0.0000      0.0001     -0.0000      0.0000      0.0000
       134         0.0000      0.0001     -0.0000      0.0000      0.0000
       135         0.2119      0.0378     -0.0009      0.0463      0.0228
       136        -0.0378      0.2119     -0.0032      0.0464      0.0228
       137        -0.0003     -0.0028     -0.1765      0.0312      0.0153
       138        -0.0001     -0.0007     -0.0409      0.0017      0.0008
       139         0.0784     -0.0952      0.0015      0.0152      0.0076
       140        -0.0953     -0.0784      0.0011      0.0152      0.0076
       141        -0.0001      0.0000     -0.0000      0.0000      0.0000
       142         0.0089     -0.0926      0.0014      0.0087      0.0043
       143         0.0928      0.0089     -0.0000      0.0087      0.0043
       144         0.0004      0.0036      0.2214      0.0490      0.0245
       145        -0.1399      0.0653     -0.0009      0.0238      0.0119
       146        -0.0653     -0.1398      0.0024      0.0238      0.0119
       147         0.3290      0.2859     -0.0044      0.1900      0.0952
       148        -0.2859      0.3291     -0.0050      0.1901      0.0952
       149         0.0001      0.0005      0.0332      0.0011      0.0006
       150        -0.1039     -0.0006     -0.0000      0.0108      0.0055
       151        -0.0006      0.1040     -0.0016      0.0108      0.0055
       152         0.0975      0.0097     -0.0001      0.0096      0.0049
       153        -0.0096      0.0973     -0.0015      0.0096      0.0048
       154         0.4123     -0.3065      0.0048      0.2640      0.1344
       155        -0.3066     -0.4123      0.0060      0.2640      0.1344
       156         0.0003     -0.0052     -0.3471      0.1205      0.0615
       157        -0.0001      0.0055      0.3627      0.1316      0.0678
       158         0.0000     -0.0000     -0.0000      0.0000      0.0000
       159        -0.0208      0.0218     -0.0003      0.0009      0.0005
       160        -0.0218     -0.0208      0.0003      0.0009      0.0005
       161         0.0000      0.0004      0.0275      0.0008      0.0004
       162        -0.0164     -0.0019      0.0000      0.0003      0.0001
[...]
      7  -0.925475D-01  0.130426D+00  0.445410D-03 -0.196238D+00  0.243334D-01
      8  -0.120983D-03  0.359262D-04  0.000000D+00 -0.270282D-05 -0.698774D-05
      9  -0.599575D-02  0.841495D-02  0.130239D-03  0.151934D-01 -0.195753D-02
     10  -0.841188D-02 -0.594510D-02 -0.903346D-04  0.170719D-02  0.143597D-01
     11   0.283639D-03  0.183065D-02 -0.442082D+00  0.276339D-04  0.604680D-05
     12   0.647425D-02  0.668192D-01 -0.340759D+00 -0.167465D+00  0.185042D+00
     13  -0.605606D-02 -0.641030D-01 -0.341237D+00  0.167495D+00 -0.185045D+00
     14   0.666468D-01  0.473089D-01  0.159755D-03 -0.140542D-02 -0.108291D-01
     15  -0.472799D-01  0.666452D-01  0.153370D-03  0.100804D-01 -0.118706D-02
     16   0.654399D-01 -0.621803D-02  0.289595D-04  0.185136D+00  0.167277D+00
               581           582           583           584           585 
      1  -0.113538D+03 -0.113538D+03 -0.113533D+03 -0.113462D+03 -0.113448D+03
      2  -0.918480D-05  0.567608D-05 -0.639758D-02 -0.874484D-01  0.000000D+00
      3  -0.408880D-04 -0.390921D-03 -0.472087D-05 -0.125173D-05 -0.513573D-02
      4   0.311034D-03 -0.157495D-04  0.618648D-05  0.000000D+00  0.687203D-01
      5   0.276902D-04 -0.171030D-04  0.308206D-01  0.223353D+00  0.270436D-05
      6   0.114946D-02  0.139398D-01  0.142408D-04  0.283292D-05  0.135596D-01
      7  -0.137313D-01  0.108246D-02 -0.115591D-04 -0.156599D-05 -0.181440D+00
      8  -0.108304D-04 -0.138646D-04  0.000000D+00  0.000000D+00 -0.146769D-05
      9   0.709715D+00 -0.572392D-01 -0.921480D-04 -0.253204D-04 -0.227812D+00
     10   0.572479D-01  0.709713D+00  0.348503D-04  0.000000D+00 -0.170251D-01
     11   0.209418D-04 -0.613630D-04 -0.574797D+00  0.588757D+00  0.196911D-04
     12  -0.125906D+00  0.127979D+00 -0.595502D-01 -0.730515D-01 -0.349083D-01
     13   0.125965D+00 -0.128032D+00 -0.596252D-01 -0.730300D-01  0.349102D-01
     14   0.503534D-01  0.624220D+00  0.329700D-04 -0.277120D-05 -0.219202D-01
     15  -0.624268D+00  0.503462D-01  0.834194D-04  0.204599D-04  0.293309D+00
     16   0.127865D+00  0.126214D+00 -0.259674D-05  0.201486D-05  0.350031D-01
               586           587           588           589           590 
      1  -0.113448D+03 -0.113439D+03 -0.113439D+03 -0.113397D+03 -0.113322D+03
      2   0.108469D-05 -0.495483D-05 -0.185829D-05 -0.579338D-01 -0.494403D-01
      3  -0.687153D-01  0.154571D-02 -0.233765D-01 -0.550415D-05 -0.142013D-05
      4  -0.513267D-02 -0.233658D-01 -0.154518D-02  0.000000D+00  0.000000D+00
      5  -0.336205D-05  0.147710D-04  0.626433D-05  0.158294D+00  0.135333D+00
      6   0.181429D+00 -0.408174D-02  0.617315D-01  0.134073D-04  0.420121D-05
      7   0.135519D-01  0.617048D-01  0.408063D-02  0.183642D-05  0.108278D-05
      8   0.000000D+00  0.124312D-05 -0.131947D-05  0.000000D+00  0.000000D+00
      9   0.170143D-01  0.241487D+00  0.159718D-01  0.390847D-05  0.590295D-05
     10  -0.227782D+00  0.159678D-01 -0.241523D+00 -0.111304D-04 -0.176222D-04
     11  -0.807318D-05 -0.258367D-04 -0.148477D-04 -0.537056D+00 -0.620622D+00
     12   0.350262D-01 -0.683240D-01 -0.673506D-01 -0.196357D-01 -0.493458D-02
     13  -0.350193D-01  0.683190D-01  0.673530D-01 -0.196282D-01 -0.494966D-02
     14  -0.293285D+00  0.167843D-01 -0.253895D+00 -0.141904D-04 -0.198298D-04
     15  -0.219068D-01 -0.253861D+00 -0.167917D-01 -0.125304D-04 -0.127743D-04
     16   0.349185D-01  0.673570D-01 -0.683218D-01 -0.153812D-05  0.176050D-05
               591           592           593           594           595 
      1  -0.113308D+03 -0.113308D+03 -0.113287D+03 -0.113287D+03 -0.113278D+03
      2   0.339068D-05 -0.196411D-05  0.000000D+00  0.000000D+00 -0.720510D-04
      3  -0.518759D-02 -0.654407D-01  0.808578D-03  0.160403D-01 -0.212084D-01
      4  -0.654372D-01  0.518601D-02 -0.160417D-01  0.809162D-03  0.242710D-01
      5  -0.882726D-05  0.648231D-05 -0.168434D-05  0.000000D+00  0.238742D-03
      6   0.106698D-01  0.134594D+00 -0.203261D-02 -0.403212D-01  0.557128D-01
      7   0.134583D+00 -0.106655D-01  0.403242D-01 -0.203396D-02 -0.637564D-01
      8  -0.252153D-05  0.392257D-05  0.000000D+00  0.000000D+00 -0.421590D-05
      9  -0.155396D+00  0.123130D-01 -0.237259D+00  0.119606D-01  0.877732D-01
     10   0.123233D-01  0.155425D+00 -0.119666D-01 -0.237243D+00  0.767011D-01
     11  -0.746259D-04 -0.136330D-04  0.173527D-04 -0.154855D-04 -0.187575D-03
     12   0.684623D-02  0.502425D-02 -0.798293D-01  0.762752D-01 -0.576147D-02
     13  -0.684825D-02 -0.503048D-02  0.798200D-01 -0.762664D-01  0.570562D-02
     14   0.223081D-01  0.281373D+00 -0.236111D-01 -0.468062D+00  0.107306D+00
     15   0.281353D+00 -0.222946D-01  0.468073D+00 -0.235943D-01 -0.122792D+00
     16  -0.502688D-02  0.685173D-02  0.762665D-01  0.798242D-01  0.405625D-01
               596           597           598           599           600 
      1  -0.113278D+03 -0.113274D+03 -0.113273D+03 -0.113251D+03 -0.113209D+03
      2  -0.310620D-04 -0.100346D+00  0.000000D+00 -0.962446D-01  0.148253D-05
      3  -0.242756D-01  0.149682D-04  0.153625D-04  0.261401D-05 -0.353884D-02
      4  -0.212137D-01 -0.133908D-04  0.311118D-04  0.179154D-05  0.676245D-01
      5   0.101825D-03  0.334250D+00  0.000000D+00  0.317271D+00 -0.401698D-05
      6   0.637696D-01 -0.390821D-04 -0.401690D-04 -0.601132D-05  0.893277D-02
      7   0.557250D-01  0.339045D-04 -0.809347D-04 -0.405569D-05 -0.170699D+00
      8   0.766723D-05  0.000000D+00  0.957932D-02  0.000000D+00  0.000000D+00
      9  -0.766865D-01 -0.599405D-04  0.828133D-04 -0.991158D-05  0.962719D-02
     10   0.877589D-01 -0.673615D-04 -0.406571D-04 -0.195685D-04  0.502081D-03
     11  -0.680976D-04  0.572141D-01  0.000000D+00 -0.145358D+01  0.112702D-04
     12   0.405464D-01 -0.577267D-01 -0.389507D-04  0.345572D-01  0.704327D-01
     13  -0.405644D-01 -0.577309D-01  0.389527D-04  0.345572D-01 -0.704277D-01
     14   0.122787D+00 -0.910348D-04 -0.580600D-04 -0.316849D-04 -0.278319D-03
     15   0.107292D+00  0.843493D-04 -0.125251D-03 -0.192751D-05  0.532998D-02
     16   0.572933D-02 -0.219666D-04  0.149895D-04 -0.877075D-05 -0.675478D-01
               601           602           603           604           605 
      1  -0.113209D+03 -0.113171D+03 -0.113112D+03 -0.113112D+03 -0.113112D+03
      2  -0.177557D-05 -0.109670D-01  0.000000D+00 -0.226737D-04  0.000000D+00
      3  -0.676220D-01  0.000000D+00  0.642872D-03  0.956578D-01 -0.395844D-02
      4  -0.353681D-02 -0.334490D-05 -0.179740D-02 -0.394837D-02 -0.956439D-01
      5   0.430111D-05  0.386708D-01  0.145044D-05  0.185740D-03  0.111748D-04
      6   0.170693D+00  0.191910D-05 -0.187471D-02 -0.278995D+00  0.115455D-01
      7   0.892767D-02  0.955088D-05  0.524048D-02  0.115155D-01  0.278956D+00
      8   0.000000D+00  0.000000D+00  0.110852D-01 -0.836775D-04 -0.202046D-03
      9  -0.505290D-03  0.183102D-04 -0.103079D-01 -0.226706D-01 -0.549477D+00
     10   0.962826D-02 -0.708732D-05 -0.368155D-02 -0.549579D+00  0.227550D-01
     11   0.556901D-05  0.494678D+00 -0.125941D-04 -0.172063D-02 -0.590865D-04
     12  -0.675490D-01 -0.282615D-01  0.876940D-03 -0.551565D-01  0.694026D-01
     13   0.675464D-01 -0.282645D-01 -0.877959D-03  0.550364D-01 -0.694127D-01
     14  -0.532677D-02 -0.810021D-05 -0.382203D-02 -0.571118D+00  0.236471D-01
     15  -0.279221D-03 -0.208645D-04  0.107200D-01  0.235576D-01  0.570985D+00
     16  -0.704308D-01  0.000000D+00 -0.153460D-02 -0.694004D-01 -0.550855D-01
               606           607           608           609           610 
      1  -0.113109D+03 -0.113092D+03 -0.113092D+03 -0.113092D+03 -0.113090D+03
      2  -0.150915D-01 -0.334441D-04 -0.118307D-04  0.000000D+00 -0.204769D-01
      3  -0.142632D-03 -0.282716D-01  0.654558D-02 -0.272544D-03  0.325260D-04
      4   0.229920D-04 -0.655604D-02 -0.282525D-01  0.356153D-03  0.816251D-05
      5   0.122130D+00  0.121603D-03  0.291091D-04  0.000000D+00  0.706847D-01
      6   0.417239D-03  0.750992D-01 -0.173899D-01  0.721095D-03 -0.840167D-04
      7  -0.656462D-04  0.174143D-01  0.750556D-01 -0.946389D-03 -0.182980D-04
      8   0.000000D+00 -0.161234D-03  0.321087D-03  0.235965D-01  0.000000D+00
      9   0.114975D-03 -0.352691D-01 -0.152143D+00  0.185633D-02  0.683278D-04
     10   0.794404D-03  0.152088D+00 -0.352480D-01  0.143828D-02 -0.182683D-03
     11  -0.111673D+01 -0.135728D-02 -0.422665D-03 -0.312581D-05 -0.936459D+00
     12  -0.362102D-01  0.906617D-02  0.666265D-02 -0.203039D-04  0.330366D-02
     13  -0.363574D-01 -0.905888D-02 -0.664600D-02  0.201282D-04  0.327710D-02
     14   0.813208D-03  0.352853D+00 -0.817256D-01  0.343079D-02 -0.468932D-03
     15  -0.111447D-03  0.818340D-01  0.352796D+00 -0.433517D-02 -0.259514D-03
     16   0.103130D-03  0.663723D-02 -0.913676D-02  0.143630D-03  0.109732D-04
               611           612           613           614           615 
      1  -0.113087D+03 -0.113087D+03 -0.113057D+03 -0.113057D+03 -0.113013D+03
      2  -0.222907D-05  0.152083D-05  0.000000D+00 -0.601515D-05 -0.132860D-01
      3  -0.128623D-01  0.846479D-02 -0.129801D-01  0.110928D+00  0.817777D-05
      4  -0.846721D-02 -0.128834D-01  0.110927D+00  0.129780D-01  0.612245D-05
      5   0.100078D-04  0.305639D-05 -0.243609D-05  0.239742D-04  0.367809D-01
      6   0.245995D-01 -0.161929D-01  0.361275D-01 -0.308748D+00 -0.239962D-04
      7   0.162005D-01  0.246560D-01 -0.308744D+00 -0.361221D-01 -0.176973D-04
      8   0.406621D-05  0.348236D-05  0.000000D+00  0.000000D+00  0.000000D+00
      9   0.189756D-01  0.287858D-01 -0.286115D+00 -0.334762D-01 -0.180991D-04
     10  -0.289069D-01  0.189668D-01 -0.334768D-01  0.286109D+00  0.328152D-04
     11  -0.327372D-03  0.472574D-04 -0.465373D-05 -0.127449D-03  0.773962D+00
     12  -0.102623D+00 -0.291355D-01  0.138681D-01  0.151265D-01 -0.105889D+00
     13   0.102614D+00  0.291327D-01 -0.138649D-01 -0.151231D-01 -0.105889D+00
     14   0.104058D+00 -0.685396D-01 -0.217705D-01  0.186091D+00  0.283909D-04
     15   0.684961D-01  0.104310D+00  0.186078D+00  0.217752D-01  0.162645D-04
     16  -0.291682D-01  0.102593D+00 -0.151247D-01  0.138696D-01  0.000000D+00
               616           617           618           619           620 
      1  -0.113009D+03 -0.113009D+03 -0.112966D+03 -0.112966D+03 -0.112964D+03
      2   0.000000D+00  0.000000D+00  0.000000D+00  0.171987D-04  0.000000D+00
      3  -0.431830D-01  0.308194D-01  0.789197D-01 -0.143500D-01 -0.281614D-03
      4  -0.308220D-01 -0.431858D-01  0.143496D-01  0.789207D-01  0.968142D-04
      5   0.152859D-05  0.268759D-05 -0.273194D-05 -0.582873D-04  0.000000D+00
      6   0.129970D+00 -0.927593D-01 -0.227153D+00  0.413036D-01  0.811224D-03
      7   0.927659D-01  0.129978D+00 -0.413016D-01 -0.227155D+00 -0.279591D-03
      8   0.162678D-05  0.000000D+00 -0.943551D-04  0.508956D-04 -0.292977D-01
      9   0.241578D+00  0.338474D+00  0.107871D+00  0.593371D+00  0.715884D-03
     10  -0.338470D+00  0.241558D+00 -0.593370D+00  0.107910D+00  0.209573D-02
     11   0.827748D-04 -0.265601D-04  0.863220D-05 -0.191418D-03  0.000000D+00
     12  -0.226010D-02 -0.558251D-03 -0.234361D-01 -0.189051D-01  0.439401D-04
     13   0.224718D-02  0.551139D-03  0.234302D-01  0.188972D-01 -0.439485D-04
     14  -0.344309D+00  0.245727D+00 -0.405558D+00  0.737639D-01  0.142616D-02
     15  -0.245744D+00 -0.344315D+00 -0.737177D-01 -0.405551D+00 -0.492264D-03
     16  -0.546306D-03  0.227110D-02 -0.188900D-01  0.234247D-01  0.106405D-03
               621           622           623           624           625 
      1  -0.112955D+03 -0.112939D+03 -0.112939D+03 -0.112937D+03 -0.112875D+03
      2  -0.108591D+00 -0.235605D-05 -0.754644D-05  0.526413D-01  0.416148D-05
      3   0.000000D+00 -0.115947D-01  0.281324D-02 -0.101787D-05 -0.793049D-03
      4   0.128898D-04  0.281166D-02  0.116029D-01 -0.263528D-05 -0.882881D-02
      5   0.363207D+00  0.874891D-05  0.246622D-04 -0.153739D+00 -0.139552D-04
      6  -0.206189D-05  0.419367D-01 -0.101742D-01  0.279348D-05  0.267312D-02
      7  -0.367423D-04 -0.101688D-01 -0.419592D-01  0.707696D-05  0.297615D-01
      8   0.000000D+00 -0.514225D-05 -0.163231D-05  0.000000D+00  0.000000D+00
      9   0.713709D-04  0.927856D-01  0.382696D+00  0.000000D+00 -0.300897D+00
     10  -0.675020D-05  0.382666D+00 -0.927991D-01  0.138714D-05  0.270271D-01
     11   0.119334D+01  0.696670D-04  0.645960D-04  0.381945D+00 -0.825739D-04
     12   0.178269D-01 -0.291550D-01  0.568177D-01  0.789694D-01 -0.809077D-01
     13   0.178389D-01  0.291661D-01 -0.568248D-01  0.789665D-01  0.809205D-01
     14  -0.151764D-04  0.445802D+00 -0.108101D+00 -0.510108D-05  0.389798D-01
     15  -0.361544D-04 -0.108101D+00 -0.445830D+00 -0.978879D-05  0.434020D+00
     16   0.888903D-05 -0.568116D-01 -0.291844D-01  0.000000D+00  0.580897D-01
               626           627           628           629           630 
      1  -0.112875D+03 -0.112847D+03 -0.112841D+03 -0.112841D+03 -0.112829D+03
      2  -0.205583D-05 -0.702211D-01 -0.810524D-05  0.000000D+00 -0.129924D-05
      3  -0.883179D-02 -0.101164D-04  0.786301D-01 -0.415899D-01 -0.821894D-02
      4   0.793231D-03 -0.351026D-05  0.415929D-01  0.786248D-01 -0.134288D-03
      5   0.985702D-05  0.241033D+00  0.280344D-04 -0.396408D-05  0.380818D-05
      6   0.297709D-01  0.276495D-04 -0.219759D+00  0.116236D+00  0.256180D-01
      7  -0.267410D-02  0.102693D-04 -0.116246D+00 -0.219743D+00  0.424305D-03
      8   0.000000D+00  0.000000D+00  0.000000D+00  0.000000D+00  0.000000D+00
      9   0.270277D-01 -0.144391D-04  0.771469D-01  0.145725D+00 -0.442113D-02
     10   0.300915D+00  0.245643D-04 -0.145757D+00  0.770377D-01  0.238924D+00
     11   0.141494D-04  0.152072D+01  0.160741D-03 -0.502284D-04 -0.263847D-04
     12  -0.580829D-01 -0.296517D-01  0.567700D-01  0.221455D-01  0.462577D-02
     13   0.580845D-01 -0.296390D-01 -0.567695D-01 -0.221440D-01 -0.463874D-02
     14   0.434026D+00  0.371335D-04 -0.193729D+00  0.102389D+00  0.355835D+00
     15  -0.389882D-01  0.190739D-04 -0.102553D+00 -0.193709D+00  0.658692D-02
     16  -0.809029D-01  0.000000D+00  0.221546D-01 -0.567684D-01  0.515637D-02
               631           632           633           634           635 
      1  -0.112829D+03 -0.112789D+03 -0.112765D+03 -0.112765D+03 -0.112678D+03
      2   0.194930D-05 -0.345370D-01  0.000000D+00  0.114218D-05 -0.154392D-05
      3  -0.171246D-03 -0.511351D-05 -0.601593D-01  0.366344D-01  0.323931D-01
      4   0.820262D-02 -0.103780D-05 -0.366347D-01 -0.601572D-01 -0.644313D-02
      5  -0.712416D-05  0.126443D+00  0.000000D+00 -0.256106D-05  0.350162D-05
      6   0.528136D-03  0.154930D-04  0.171639D+00 -0.104521D+00 -0.984849D-01
      7  -0.255724D-01  0.280929D-05  0.104521D+00  0.171633D+00  0.195888D-01
      8   0.000000D+00  0.000000D+00  0.000000D+00  0.000000D+00  0.177227D-05
      9   0.238860D+00 -0.409092D-05 -0.193994D+00 -0.318555D+00 -0.865447D-01
     10   0.446906D-02 -0.282742D-04  0.318585D+00 -0.194005D+00 -0.435223D+00
     11  -0.424308D-04  0.101005D+00  0.231687D-04 -0.395316D-04  0.000000D+00
     12  -0.517763D-02 -0.677383D-01 -0.498057D-01 -0.160414D-01  0.648219D-01
     13   0.518509D-02 -0.677337D-01  0.498080D-01  0.160342D-01 -0.648348D-01
     14   0.665397D-02 -0.353440D-04  0.156254D+00 -0.951491D-01 -0.340084D+00
     15  -0.355767D+00  0.411370D-05  0.951435D-01  0.156228D+00  0.676309D-01
     16   0.463491D-02  0.000000D+00 -0.160429D-01  0.498049D-01  0.114303D+00
               636           637           638           639           640 
      1  -0.112678D+03 -0.112609D+03 -0.112602D+03 -0.112602D+03 -0.112535D+03
      2   0.284523D-05 -0.572741D-01  0.112193D-05 -0.602104D-05  0.174831D-01
      3  -0.643980D-02  0.000000D+00 -0.468072D-01  0.680872D-02  0.000000D+00
      4  -0.323990D-01 -0.554742D-05  0.680877D-02  0.468082D-01  0.270227D-05
      5  -0.861726D-05  0.158303D+00 -0.279477D-05  0.162753D-04 -0.206043D-01
      6   0.195791D-01  0.000000D+00  0.140069D+00 -0.203748D-01  0.110486D-05
      7   0.985021D-01  0.163194D-04 -0.203750D-01 -0.140072D+00 -0.782174D-05
      8   0.000000D+00  0.000000D+00 -0.107022D-05  0.000000D+00  0.000000D+00
      9  -0.435248D+00 -0.510611D-04  0.518427D-01  0.356394D+00  0.981934D-05
     10   0.865352D-01  0.107043D-04  0.356393D+00 -0.518406D-01 -0.952732D-05
     11  -0.126310D-05 -0.419093D+00 -0.398868D-04  0.154375D-04 -0.128188D+01
     12  -0.114302D+00 -0.132523D+00 -0.433397D-01  0.679330D-01 -0.519272D-01
     13   0.114311D+00 -0.132501D+00  0.433388D-01 -0.679565D-01 -0.519339D-01
     14   0.676138D-01  0.879754D-05  0.393175D+00 -0.571922D-01 -0.144804D-04
     15   0.340102D+00  0.572301D-04 -0.571906D-01 -0.393166D+00 -0.111288D-04
     16   0.648424D-01  0.331085D-05 -0.679455D-01 -0.433391D-01  0.000000D+00
               641           642           643           644           645 
      1  -0.112303D+03 -0.112303D+03 -0.112091D+03 -0.112091D+03 -0.112086D+03
      2   0.000000D+00  0.000000D+00  0.189319D-04 -0.226451D-05 -0.621175D-01
      3   0.631810D-02 -0.208809D-01 -0.676688D-03 -0.833419D-02  0.000000D+00
      4  -0.208810D-01 -0.631811D-02 -0.833410D-02  0.676744D-03 -0.244542D-05
      5   0.357277D-05 -0.192777D-05 -0.732849D-04  0.843778D-05  0.240138D+00
      6  -0.210731D-01  0.696452D-01  0.226311D-02  0.278740D-01  0.000000D+00
      7   0.696454D-01  0.210730D-01  0.278735D-01 -0.226347D-02  0.810005D-05
      8   0.218409D-05  0.000000D+00  0.000000D+00  0.000000D+00  0.000000D+00
      9   0.461115D+00  0.139522D+00 -0.849669D-01  0.690018D-02 -0.302335D-04
     10   0.139523D+00 -0.461114D+00  0.689822D-02  0.849683D-01  0.000000D+00
     11  -0.570247D-05 -0.239763D-05  0.102270D-03 -0.449739D-04 -0.443031D+00
     12   0.592719D-02  0.937186D-02 -0.314035D-01 -0.229619D-01 -0.390367D-01
     13  -0.593057D-02 -0.935689D-02  0.314367D-01  0.229651D-01 -0.390218D-01
     14   0.168396D+00 -0.556540D+00  0.101127D-01  0.124525D+00 -0.162454D-05
     15  -0.556539D+00 -0.168396D+00  0.124521D+00 -0.101094D-01  0.427158D-04
     16  -0.935641D-02  0.593202D-02  0.229693D-01 -0.314170D-01  0.858364D-05
               646           647           648 
      1  -0.112033D+03 -0.111849D+03 -0.111757D+03
      2  -0.122328D-01 -0.616536D-01 -0.116550D-01
      3   0.000000D+00  0.177268D-05  0.182883D-05
      4   0.000000D+00  0.000000D+00  0.000000D+00
      5   0.467055D-01  0.221510D+00  0.882541D-01
      6   0.000000D+00 -0.614662D-05 -0.601612D-05
      7   0.196362D-05  0.000000D+00 -0.172103D-05
      8   0.000000D+00  0.000000D+00  0.000000D+00
      9  -0.187195D-05 -0.197889D-05  0.205290D-05
     10   0.249198D-05  0.150157D-04  0.794920D-05
     11   0.105798D+01 -0.191306D-01 -0.652241D+00
     12  -0.157561D+00  0.553077D-01 -0.597525D-02
     13  -0.157560D+00  0.553075D-01 -0.597420D-02
     14  -0.236428D-05  0.166461D-04  0.303283D-05
     15   0.000000D+00  0.000000D+00 -0.711031D-05
     16   0.000000D+00  0.000000D+00  0.000000D+00
 Unable to Open any file for archive entry.
 1\1\GINC-HEL11\SP\RPBE1PBE TD-FC\Gen\C3H4\SABYASACHI\21-Mar-2022\0\\#P
  TD(Nstates=10000) pbe1pbe/Gen SCF(maxcycles=100) Int(Grid=ultrafine)\
 \xGDB7_00001_tier4.com\\0,1\C,0,1.236673,0.000003,0.000003\C,0,-0.2187
 42,-0.000006,-0.000005\C,0,-1.41578,0.000004,-0.000001\H,0,1.622045,0.
 979039,0.288094\H,0,1.62207,-0.240023,-0.991898\H,0,1.622037,-0.739019
 ,0.703815\H,0,-2.479058,-0.000005,0.000008\\Version=EM64L-G16RevC.01\S
 tate=1-A\HF=-116.422657\RMSD=3.096e-09\PG=C01 [X(C3H4)]\\@
 The archive entry for this job was punched.


 In the beginning there was nothing, which exploded.
 Job cpu time:       0 days  0 hours  9 minutes 15.7 seconds.
 Elapsed time:       0 days  0 hours  1 minutes  9.8 seconds.
 File lengths (MBytes):  RWF=    545 Int=      0 D2E=      0 Chk=    132 Scr=      1
 Normal termination of Gaussian 16 at Mon Mar 21 20:19:21 2022.
