 Entering Gaussian System, Link 0=g16
 Input=000018.com
 Output=000018.log
 Initial command:
 /home/sabyasachi/g16/l1.exe "/scratch/sabyasachi/PBS_7976482.helios/Gau-110622.inp" -scrdir="/scratch/sabyasachi/PBS_7976482.helios/"
 Entering Link 1 = /home/sabyasachi/g16/l1.exe PID=    110623.
  
 Copyright (c) 1988-2019, Gaussian, Inc.  All Rights Reserved.
  
 This is part of the Gaussian(R) 16 program.  It is based on
 the Gaussian(R) 09 system (copyright 2009, Gaussian, Inc.),
 the Gaussian(R) 03 system (copyright 2003, Gaussian, Inc.),
 the Gaussian(R) 98 system (copyright 1998, Gaussian, Inc.),
 the Gaussian(R) 94 system (copyright 1995, Gaussian, Inc.),
 the Gaussian 92(TM) system (copyright 1992, Gaussian, Inc.),
 the Gaussian 90(TM) system (copyright 1990, Gaussian, Inc.),
 the Gaussian 88(TM) system (copyright 1988, Gaussian, Inc.),
 the Gaussian 86(TM) system (copyright 1986, Carnegie Mellon
 University), and the Gaussian 82(TM) system (copyright 1983,
 Carnegie Mellon University). Gaussian is a federally registered
 trademark of Gaussian, Inc.
  
 This software contains proprietary and confidential information,
 including trade secrets, belonging to Gaussian, Inc.
  
 This software is provided under written license and may be
 used, copied, transmitted, or stored only in accord with that
 written license.
  
 The following legend is applicable only to US Government
 contracts under FAR:
  
                    RESTRICTED RIGHTS LEGEND
  
 Use, reproduction and disclosure by the US Government is
 subject to restrictions as set forth in subparagraphs (a)
 and (c) of the Commercial Computer Software - Restricted
 Rights clause in FAR 52.227-19.
  
 Gaussian, Inc.
 340 Quinnipiac St., Bldg. 40, Wallingford CT 06492
  
  
 ---------------------------------------------------------------
 Warning -- This program may not be used in any manner that
 competes with the business of Gaussian, Inc. or will provide
 assistance to any competitor of Gaussian, Inc.  The licensee
 of this program is prohibited from giving any competitor of
 Gaussian, Inc. access to this program.  By using this program,
 the user acknowledges that Gaussian, Inc. is engaged in the
 business of creating and licensing software in the field of
 computational chemistry and represents and warrants to the
 licensee that it is not a competitor of Gaussian, Inc. and that
 it will not use this program in any manner prohibited above.
 ---------------------------------------------------------------
  

 Cite this work as:
 Gaussian 16, Revision C.01,
 M. J. Frisch, G. W. Trucks, H. B. Schlegel, G. E. Scuseria, 
 M. A. Robb, J. R. Cheeseman, G. Scalmani, V. Barone, 
 G. A. Petersson, H. Nakatsuji, X. Li, M. Caricato, A. V. Marenich, 
 J. Bloino, B. G. Janesko, R. Gomperts, B. Mennucci, H. P. Hratchian, 
 J. V. Ortiz, A. F. Izmaylov, J. L. Sonnenberg, D. Williams-Young, 
 F. Ding, F. Lipparini, F. Egidi, J. Goings, B. Peng, A. Petrone, 
 T. Henderson, D. Ranasinghe, V. G. Zakrzewski, J. Gao, N. Rega, 
 G. Zheng, W. Liang, M. Hada, M. Ehara, K. Toyota, R. Fukuda, 
 J. Hasegawa, M. Ishida, T. Nakajima, Y. Honda, O. Kitao, H. Nakai, 
 T. Vreven, K. Throssell, J. A. Montgomery, Jr., J. E. Peralta, 
 F. Ogliaro, M. J. Bearpark, J. J. Heyd, E. N. Brothers, K. N. Kudin, 
 V. N. Staroverov, T. A. Keith, R. Kobayashi, J. Normand, 
 K. Raghavachari, A. P. Rendell, J. C. Burant, S. S. Iyengar, 
 J. Tomasi, M. Cossi, J. M. Millam, M. Klene, C. Adamo, R. Cammi, 
 J. W. Ochterski, R. L. Martin, K. Morokuma, O. Farkas, 
 J. B. Foresman, and D. J. Fox, Gaussian, Inc., Wallingford CT, 2019.
 
 ******************************************
 Gaussian 16:  EM64L-G16RevC.01  3-Jul-2019
                21-Mar-2022 
 ******************************************
 %mem=64gb
 %nproc=8
 Will use up to    8 processors via shared memory.
 ----------------------------------------------------------------------
 #P TD(Nstates=10000) pbe1pbe/Gen SCF(maxcycles=100) Int(Grid=ultrafine
 )
 ----------------------------------------------------------------------
 1/38=1,172=1/1;
 2/12=2,17=6,18=5,40=1/2;
 3/5=7,11=9,25=1,30=1,74=-13,75=-5/1,2,3,8;
 4//1;
 5/5=2,7=100,38=5/2;
 8/6=1,10=1,108=10000/1;
 9/41=10000,42=1,70=2/14;
 6/7=2,8=2,9=2,10=2/1;
 99/5=1,9=1/99;
 Leave Link    1 at Mon Mar 21 04:15:12 2022, MaxMem=  8589934592 cpu:               0.3 elap:               0.0
 (Enter /home/sabyasachi/g16/l101.exe)
 ---------------------
 xGDB7_00001_tier4.com
 ---------------------
 Symbolic Z-matrix:
 Charge =  0 Multiplicity = 1
 9                     0.        1.09881  -0.28912 
 6                     0.        0.        0.49994 
 9                     0.       -1.09881  -0.28912 
 1                    -0.91135   0.        1.10225 
 1                     0.91135   0.        1.10225 
 
 ITRead=  0  0  0  0  0
 MicOpt= -1 -1 -1 -1 -1
 NAtoms=      5 NQM=        5 NQMF=       0 NMMI=      0 NMMIF=      0
                NMic=       0 NMicF=      0.
                    Isotopes and Nuclear Properties:
 (Nuclear quadrupole moments (NQMom) in fm**2, nuclear magnetic moments (NMagM)
  in nuclear magnetons)

  Atom         1           2           3           4           5
 IAtWgt=          19          12          19           1           1
 AtmWgt=  18.9984033  12.0000000  18.9984033   1.0078250   1.0078250
 NucSpn=           1           0           1           1           1
 AtZEff=  -0.0000000  -0.0000000  -0.0000000  -0.0000000  -0.0000000
 NQMom=    0.0000000   0.0000000   0.0000000   0.0000000   0.0000000
 NMagM=    2.6288670   0.0000000   2.6288670   2.7928460   2.7928460
 AtZNuc=   9.0000000   6.0000000   9.0000000   1.0000000   1.0000000
 Leave Link  101 at Mon Mar 21 04:15:12 2022, MaxMem=  8589934592 cpu:               0.7 elap:               0.1
 (Enter /home/sabyasachi/g16/l202.exe)
                          Input orientation:                          
 ---------------------------------------------------------------------
 Center     Atomic      Atomic             Coordinates (Angstroms)
 Number     Number       Type             X           Y           Z
 ---------------------------------------------------------------------
      1          9           0        0.000000    1.098813   -0.289120
      2          6           0        0.000000    0.000000    0.499944
      3          9           0        0.000000   -1.098813   -0.289120
      4          1           0       -0.911346    0.000000    1.102246
      5          1           0        0.911346    0.000000    1.102246
 ---------------------------------------------------------------------
                    Distance matrix (angstroms):
                    1          2          3          4          5
     1  F    0.000000
     2  C    1.352779   0.000000
     3  F    2.197626   1.352779   0.000000
     4  H    1.993449   1.092392   1.993449   0.000000
     5  H    1.993449   1.092392   1.993449   1.822692   0.000000
 Stoichiometry    CH2F2
 Framework group  C2V[C2(C),SGV(F2),SGV'(H2)]
 Deg. of freedom     4
 Full point group                 C2V     NOp   4
 Largest Abelian subgroup         C2V     NOp   4
 Largest concise Abelian subgroup C2V     NOp   4
                         Standard orientation:                         
 ---------------------------------------------------------------------
 Center     Atomic      Atomic             Coordinates (Angstroms)
 Number     Number       Type             X           Y           Z
 ---------------------------------------------------------------------
      1          9           0        0.000000    1.098813   -0.289120
      2          6           0       -0.000000   -0.000000    0.499944
      3          9           0       -0.000000   -1.098813   -0.289120
      4          1           0       -0.911346    0.000000    1.102246
      5          1           0        0.911346   -0.000000    1.102246
 ---------------------------------------------------------------------
 Rotational constants (GHZ):          49.7833800          10.6281321           9.2978450
 Leave Link  202 at Mon Mar 21 04:15:12 2022, MaxMem=  8589934592 cpu:               0.1 elap:               0.0
 (Enter /home/sabyasachi/g16/l301.exe)
 General basis read from cards:  (5D, 7F)
 Centers:       4      5
 S 3 1.00
     Exponent=  1.3010701000D+01 Coefficients=  1.9682158000D-02
     Exponent=  1.9622572000D+00 Coefficients=  1.3796524000D-01
     Exponent=  4.4453796000D-01 Coefficients=  4.7831935000D-01
 S 1 1.00
     Exponent=  1.2194962000D-01 Coefficients=  1.0000000000D+00
 P 1 1.00
     Exponent=  8.0000000000D-01 Coefficients=  1.0000000000D+00
 P 1 1.00
     Exponent=  1.1704099050D-01 Coefficients=  1.0000000000D+00
 ****
 Centers:       2
 S 5 1.00
     Exponent=  1.2384016938D+03 Coefficients=  5.4568832082D-03
     Exponent=  1.8629004992D+02 Coefficients=  4.0638409211D-02
     Exponent=  4.2251176346D+01 Coefficients=  1.8025593888D-01
     Exponent=  1.1676557932D+01 Coefficients=  4.6315121755D-01
     Exponent=  3.5930506482D+00 Coefficients=  4.4087173314D-01
 S 1 1.00
     Exponent=  4.0245147363D-01 Coefficients=  1.0000000000D+00
 S 1 1.00
     Exponent=  1.3090182668D-01 Coefficients=  1.0000000000D+00
 S 1 1.00
     Exponent=  6.7053540256D-02 Coefficients=  1.0000000000D+00
 P 3 1.00
     Exponent=  9.4680970621D+00 Coefficients=  3.8387871728D-02
     Exponent=  2.0103545142D+00 Coefficients=  2.1117025112D-01
     Exponent=  5.4771004707D-01 Coefficients=  5.1328172114D-01
 P 1 1.00
     Exponent=  1.5268613795D-01 Coefficients=  1.0000000000D+00
 D 1 1.00
     Exponent=  8.0000000000D-01 Coefficients=  1.0000000000D+00
 D 1 1.00
     Exponent=  1.1713185140D-01 Coefficients=  1.0000000000D+00
 ****
 Centers:       1      3
 S 5 1.00
     Exponent=  2.8948325990D+03 Coefficients= -5.3408255515D-03
     Exponent=  4.3541939120D+02 Coefficients= -3.9904258866D-02
     Exponent=  9.8843328866D+01 Coefficients= -1.7912768038D-01
     Exponent=  2.7485198001D+01 Coefficients= -4.6758090825D-01
     Exponent=  8.5405498171D+00 Coefficients= -4.4653131020D-01
 S 1 1.00
     Exponent=  1.0654578038D+00 Coefficients=  1.0000000000D+00
 S 1 1.00
     Exponent=  3.3247346748D-01 Coefficients=  1.0000000000D+00
 S 1 1.00
     Exponent=  9.8097752264D-02 Coefficients=  1.0000000000D+00
 P 3 1.00
     Exponent=  2.2696633924D+01 Coefficients= -4.5212874436D-02
     Exponent=  4.9872339257D+00 Coefficients= -2.3754317067D-01
     Exponent=  1.3491613954D+00 Coefficients= -5.1287353587D-01
 P 1 1.00
     Exponent=  3.4829881977D-01 Coefficients=  1.0000000000D+00
 P 1 1.00
     Exponent=  8.3372148304D-02 Coefficients=  1.0000000000D+00
 D 1 1.00
     Exponent=  1.4000000000D+00 Coefficients=  1.0000000000D+00
 D 1 1.00
     Exponent=  2.2301361948D-01 Coefficients=  1.0000000000D+00
 ****
 Ernie: Thresh=  0.10000D-02 Tol=  0.10000D-05 Strict=F.
 There are    36 symmetry adapted cartesian basis functions of A1  symmetry.
 There are    11 symmetry adapted cartesian basis functions of A2  symmetry.
 There are    17 symmetry adapted cartesian basis functions of B1  symmetry.
 There are    24 symmetry adapted cartesian basis functions of B2  symmetry.
 There are    32 symmetry adapted basis functions of A1  symmetry.
 There are    11 symmetry adapted basis functions of A2  symmetry.
 There are    17 symmetry adapted basis functions of B1  symmetry.
 There are    22 symmetry adapted basis functions of B2  symmetry.
    82 basis functions,   122 primitive gaussians,    88 cartesian basis functions
    13 alpha electrons       13 beta electrons
       nuclear repulsion energy        77.4114556534 Hartrees.
 IExCor= 1009 DFT=T Ex+Corr=PBE1PBE ExCW=0 ScaHFX=  0.250000
 ScaDFX=  0.750000  0.750000  1.000000  1.000000 ScalE2=  1.000000  1.000000
 IRadAn=      5 IRanWt=     -1 IRanGd=            0 ICorTp=0 IEmpDi=  4
 NAtoms=    5 NActive=    5 NUniq=    3 SFac= 2.78D+00 NAtFMM=   60 NAOKFM=F Big=F
 Integral buffers will be    131072 words long.
 Regular integral format.
 Two-electron integral symmetry is turned on.
 Leave Link  301 at Mon Mar 21 04:15:12 2022, MaxMem=  8589934592 cpu:               0.6 elap:               0.1
 (Enter /home/sabyasachi/g16/l302.exe)
 NPDir=0 NMtPBC=     1 NCelOv=     1 NCel=       1 NClECP=     1 NCelD=      1
         NCelK=      1 NCelE2=     1 NClLst=     1 CellRange=     0.0.
 One-electron integrals computed using PRISM.
 One-electron integral symmetry used in STVInt
 NBasis=    82 RedAO= T EigKep=  6.29D-04  NBF=    32    11    17    22
 NBsUse=    82 1.00D-06 EigRej= -1.00D+00 NBFU=    32    11    17    22
 Precomputing XC quadrature grid using
 IXCGrd= 4 IRadAn=           5 IRanWt=          -1 IRanGd=           0 AccXCQ= 0.00D+00.
 Generated NRdTot=       0 NPtTot=           0 NUsed=           0 NTot=          32
 NSgBfM=    88    88    88    88    88 MxSgAt=     5 MxSgA2=     5.
 Leave Link  302 at Mon Mar 21 04:15:12 2022, MaxMem=  8589934592 cpu:               0.9 elap:               0.1
 (Enter /home/sabyasachi/g16/l303.exe)
 DipDrv:  MaxL=1.
 Leave Link  303 at Mon Mar 21 04:15:12 2022, MaxMem=  8589934592 cpu:               0.2 elap:               0.0
 (Enter /home/sabyasachi/g16/l308.exe)
 Leave Link  308 at Mon Mar 21 04:15:12 2022, MaxMem=  8589934592 cpu:               0.2 elap:               0.0
 (Enter /home/sabyasachi/g16/l401.exe)
 ExpMin= 6.71D-02 ExpMax= 2.89D+03 ExpMxC= 4.35D+02 IAcc=3 IRadAn=         5 AccDes= 0.00D+00
 Harris functional with IExCor= 1009 and IRadAn=       5 diagonalized for initial guess.
 HarFok:  IExCor= 1009 AccDes= 0.00D+00 IRadAn=         5 IDoV= 1 UseB2=F ITyADJ=14
 ICtDFT=  3500011 ScaDFX=  1.000000  1.000000  1.000000  1.000000
 FoFCou: FMM=F IPFlag=           0 FMFlag=      100000 FMFlg1=           0
         NFxFlg=           0 DoJE=T BraDBF=F KetDBF=T FulRan=T
         wScrn=  0.000000 ICntrl=       500 IOpCl=  0 I1Cent=   200000004 NGrid=           0
         NMat0=    1 NMatS0=      1 NMatT0=    0 NMatD0=    1 NMtDS0=    0 NMtDT0=    0
 Petite list used in FoFCou.
 Harris En= -238.583811424752    
 JPrj=0 DoOrth=F DoCkMO=F.
 Initial guess orbital symmetries:
       Occupied  (A1) (B2) (A1) (A1) (B2) (A1) (B2) (B1) (A1) (A2)
                 (A1) (B2) (B1)
       Virtual   (A1) (B2) (A1) (B1) (A1) (B2) (B1) (A1) (A2) (B2)
                 (A1) (A1) (A2) (B1) (A1) (B2) (B1) (B1) (A1) (B2)
                 (A1) (B2) (A2) (A1) (B1) (A1) (B2) (A1) (B1) (A1)
                 (A2) (B2) (A2) (B2) (A1) (B1) (B2) (A1) (B1) (A1)
                 (A2) (A1) (B1) (B2) (A2) (B2) (A1) (B1) (A1) (B1)
                 (B2) (A1) (B2) (B2) (A1) (A2) (A1) (A1) (B1) (B2)
                 (A2) (B2) (B1) (A1) (B1) (A2) (A1) (A1) (B2)
 The electronic state of the initial guess is 1-A1.
 Leave Link  401 at Mon Mar 21 04:15:12 2022, MaxMem=  8589934592 cpu:               1.4 elap:               0.2
 (Enter /home/sabyasachi/g16/l502.exe)
 Keep R1 ints in memory in symmetry-blocked form, NReq=13114582.
 FoFCou: FMM=F IPFlag=           0 FMFlag=           0 FMFlg1=           0
         NFxFlg=           0 DoJE=F BraDBF=F KetDBF=F FulRan=T
         wScrn=  0.000000 ICntrl=       600 IOpCl=  0 I1Cent=           0 NGrid=           0
         NMat0=    1 NMatS0=   3403 NMatT0=    0 NMatD0=    1 NMtDS0=    0 NMtDT0=    0
 Petite list used in FoFCou.
 Closed shell SCF:
 Using DIIS extrapolation, IDIIS=  1040.
 NGot=  8589934592 LenX=  8588436934 LenY=  8588428749
 Requested convergence on RMS density matrix=1.00D-08 within 100 cycles.
 Requested convergence on MAX density matrix=1.00D-06.
 Requested convergence on             energy=1.00D-06.
 No special actions if energy rises.
 Integral accuracy reduced to 1.0D-05 until final iterations.

 Cycle   1  Pass 0  IDiag  1:
 E= -238.572204648630    
 DIIS: error= 1.57D-02 at cycle   1 NSaved=   1.
 NSaved= 1 IEnMin= 1 EnMin= -238.572204648630     IErMin= 1 ErrMin= 1.57D-02
 ErrMax= 1.57D-02  0.00D+00 EMaxC= 1.00D-01 BMatC= 2.01D-02 BMatP= 2.01D-02
 IDIUse=3 WtCom= 8.43D-01 WtEn= 1.57D-01
 Coeff-Com:  0.100D+01
 Coeff-En:   0.100D+01
 Coeff:      0.100D+01
 Gap=     0.384 Goal=   None    Shift=    0.000
 GapD=    0.384 DampG=1.000 DampE=0.500 DampFc=0.5000 IDamp=-1.
 Damping current iteration by 5.00D-01
 RMSDP=2.60D-03 MaxDP=4.21D-02              OVMax= 3.55D-02

 Cycle   2  Pass 0  IDiag  1:
 E= -238.577457204984     Delta-E=       -0.005252556354 Rises=F Damp=T
 DIIS: error= 4.47D-03 at cycle   2 NSaved=   2.
 NSaved= 2 IEnMin= 2 EnMin= -238.577457204984     IErMin= 2 ErrMin= 4.47D-03
 ErrMax= 4.47D-03  0.00D+00 EMaxC= 1.00D-01 BMatC= 1.98D-03 BMatP= 2.01D-02
 IDIUse=3 WtCom= 9.55D-01 WtEn= 4.47D-02
 Coeff-Com: -0.448D-01 0.104D+01
 Coeff-En:   0.000D+00 0.100D+01
 Coeff:     -0.428D-01 0.104D+01
 Gap=     0.403 Goal=   None    Shift=    0.000
 RMSDP=1.30D-03 MaxDP=2.15D-02 DE=-5.25D-03 OVMax= 2.58D-02

 Cycle   3  Pass 0  IDiag  1:
 E= -238.582987386324     Delta-E=       -0.005530181340 Rises=F Damp=F
 DIIS: error= 3.34D-03 at cycle   3 NSaved=   3.
 NSaved= 3 IEnMin= 3 EnMin= -238.582987386324     IErMin= 3 ErrMin= 3.34D-03
 ErrMax= 3.34D-03  0.00D+00 EMaxC= 1.00D-01 BMatC= 1.14D-03 BMatP= 1.98D-03
 IDIUse=3 WtCom= 9.67D-01 WtEn= 3.34D-02
 Coeff-Com: -0.151D+00 0.466D+00 0.684D+00
 Coeff-En:   0.000D+00 0.000D+00 0.100D+01
 Coeff:     -0.146D+00 0.451D+00 0.695D+00
 Gap=     0.400 Goal=   None    Shift=    0.000
 RMSDP=3.08D-04 MaxDP=6.81D-03 DE=-5.53D-03 OVMax= 7.42D-03

 Cycle   4  Pass 0  IDiag  1:
 E= -238.583725892342     Delta-E=       -0.000738506018 Rises=F Damp=F
 DIIS: error= 4.41D-04 at cycle   4 NSaved=   4.
 NSaved= 4 IEnMin= 4 EnMin= -238.583725892342     IErMin= 4 ErrMin= 4.41D-04
 ErrMax= 4.41D-04  0.00D+00 EMaxC= 1.00D-01 BMatC= 1.80D-05 BMatP= 1.14D-03
 IDIUse=3 WtCom= 9.96D-01 WtEn= 4.41D-03
 Coeff-Com: -0.319D-01 0.820D-01 0.194D+00 0.756D+00
 Coeff-En:   0.000D+00 0.000D+00 0.000D+00 0.100D+01
 Coeff:     -0.318D-01 0.817D-01 0.193D+00 0.757D+00
 Gap=     0.399 Goal=   None    Shift=    0.000
 RMSDP=5.82D-05 MaxDP=1.96D-03 DE=-7.39D-04 OVMax= 1.23D-03

 Cycle   5  Pass 0  IDiag  1:
 E= -238.583740423133     Delta-E=       -0.000014530791 Rises=F Damp=F
 DIIS: error= 1.57D-04 at cycle   5 NSaved=   5.
 NSaved= 5 IEnMin= 5 EnMin= -238.583740423133     IErMin= 5 ErrMin= 1.57D-04
 ErrMax= 1.57D-04  0.00D+00 EMaxC= 1.00D-01 BMatC= 1.77D-06 BMatP= 1.80D-05
 IDIUse=3 WtCom= 9.98D-01 WtEn= 1.57D-03
 Coeff-Com: -0.802D-02 0.140D-01 0.529D-01 0.331D+00 0.610D+00
 Coeff-En:   0.000D+00 0.000D+00 0.000D+00 0.000D+00 0.100D+01
 Coeff:     -0.800D-02 0.140D-01 0.528D-01 0.330D+00 0.611D+00
 Gap=     0.400 Goal=   None    Shift=    0.000
 RMSDP=1.62D-05 MaxDP=4.85D-04 DE=-1.45D-05 OVMax= 3.03D-04

 Cycle   6  Pass 0  IDiag  1:
 E= -238.583741917632     Delta-E=       -0.000001494499 Rises=F Damp=F
 DIIS: error= 7.35D-06 at cycle   6 NSaved=   6.
 NSaved= 6 IEnMin= 6 EnMin= -238.583741917632     IErMin= 6 ErrMin= 7.35D-06
 ErrMax= 7.35D-06  0.00D+00 EMaxC= 1.00D-01 BMatC= 5.49D-09 BMatP= 1.77D-06
 IDIUse=1 WtCom= 1.00D+00 WtEn= 0.00D+00
 Coeff-Com: -0.638D-03 0.748D-03 0.354D-02 0.326D-01 0.807D-01 0.883D+00
 Coeff:     -0.638D-03 0.748D-03 0.354D-02 0.326D-01 0.807D-01 0.883D+00
 Gap=     0.400 Goal=   None    Shift=    0.000
 RMSDP=8.40D-07 MaxDP=1.13D-05 DE=-1.49D-06 OVMax= 2.22D-05

 Initial convergence to 1.0D-05 achieved.  Increase integral accuracy.
 Cycle   7  Pass 1  IDiag  1:
 E= -238.583759380692     Delta-E=       -0.000017463060 Rises=F Damp=F
 DIIS: error= 2.91D-06 at cycle   1 NSaved=   1.
 NSaved= 1 IEnMin= 1 EnMin= -238.583759380692     IErMin= 1 ErrMin= 2.91D-06
 ErrMax= 2.91D-06  0.00D+00 EMaxC= 1.00D-01 BMatC= 1.45D-09 BMatP= 1.45D-09
 IDIUse=1 WtCom= 1.00D+00 WtEn= 0.00D+00
 Coeff-Com:  0.100D+01
 Coeff:      0.100D+01
 Gap=     0.400 Goal=   None    Shift=    0.000
 RMSDP=8.40D-07 MaxDP=1.13D-05 DE=-1.75D-05 OVMax= 1.44D-05

 Cycle   8  Pass 1  IDiag  1:
 E= -238.583759381895     Delta-E=       -0.000000001204 Rises=F Damp=F
 DIIS: error= 2.04D-06 at cycle   2 NSaved=   2.
 NSaved= 2 IEnMin= 2 EnMin= -238.583759381895     IErMin= 2 ErrMin= 2.04D-06
 ErrMax= 2.04D-06  0.00D+00 EMaxC= 1.00D-01 BMatC= 4.28D-10 BMatP= 1.45D-09
 IDIUse=1 WtCom= 1.00D+00 WtEn= 0.00D+00
 Coeff-Com:  0.307D+00 0.693D+00
 Coeff:      0.307D+00 0.693D+00
 Gap=     0.400 Goal=   None    Shift=    0.000
 RMSDP=2.78D-07 MaxDP=5.14D-06 DE=-1.20D-09 OVMax= 5.27D-06

 Cycle   9  Pass 1  IDiag  1:
 E= -238.583759382067     Delta-E=       -0.000000000172 Rises=F Damp=F
 DIIS: error= 1.35D-06 at cycle   3 NSaved=   3.
 NSaved= 3 IEnMin= 3 EnMin= -238.583759382067     IErMin= 3 ErrMin= 1.35D-06
 ErrMax= 1.35D-06  0.00D+00 EMaxC= 1.00D-01 BMatC= 1.64D-10 BMatP= 4.28D-10
 IDIUse=1 WtCom= 1.00D+00 WtEn= 0.00D+00
 Coeff-Com:  0.329D-01 0.382D+00 0.585D+00
 Coeff:      0.329D-01 0.382D+00 0.585D+00
 Gap=     0.400 Goal=   None    Shift=    0.000
 RMSDP=1.02D-07 MaxDP=1.91D-06 DE=-1.72D-10 OVMax= 2.71D-06

 Cycle  10  Pass 1  IDiag  1:
 E= -238.583759382170     Delta-E=       -0.000000000103 Rises=F Damp=F
 DIIS: error= 1.57D-07 at cycle   4 NSaved=   4.
 NSaved= 4 IEnMin= 4 EnMin= -238.583759382170     IErMin= 4 ErrMin= 1.57D-07
 ErrMax= 1.57D-07  0.00D+00 EMaxC= 1.00D-01 BMatC= 2.47D-12 BMatP= 1.64D-10
 IDIUse=1 WtCom= 1.00D+00 WtEn= 0.00D+00
 Coeff-Com: -0.872D-02 0.707D-01 0.177D+00 0.761D+00
 Coeff:     -0.872D-02 0.707D-01 0.177D+00 0.761D+00
 Gap=     0.400 Goal=   None    Shift=    0.000
 RMSDP=1.89D-08 MaxDP=2.03D-07 DE=-1.03D-10 OVMax= 3.04D-07

 Cycle  11  Pass 1  IDiag  1:
 E= -238.583759382169     Delta-E=        0.000000000000 Rises=F Damp=F
 DIIS: error= 2.78D-08 at cycle   5 NSaved=   5.
 NSaved= 5 IEnMin= 4 EnMin= -238.583759382170     IErMin= 5 ErrMin= 2.78D-08
 ErrMax= 2.78D-08  0.00D+00 EMaxC= 1.00D-01 BMatC= 6.72D-14 BMatP= 2.47D-12
 IDIUse=1 WtCom= 1.00D+00 WtEn= 0.00D+00
 Coeff-Com: -0.371D-02 0.244D-01 0.630D-01 0.295D+00 0.621D+00
 Coeff:     -0.371D-02 0.244D-01 0.630D-01 0.295D+00 0.621D+00
 Gap=     0.400 Goal=   None    Shift=    0.000
 RMSDP=3.40D-09 MaxDP=9.53D-08 DE= 4.55D-13 OVMax= 7.52D-08

 SCF Done:  E(RPBE1PBE) =  -238.583759382     A.U. after   11 cycles
            NFock= 11  Conv=0.34D-08     -V/T= 2.0065
 KE= 2.370374607762D+02 PE=-7.211947981268D+02 EE= 1.681621223150D+02
 Leave Link  502 at Mon Mar 21 04:15:13 2022, MaxMem=  8589934592 cpu:               4.3 elap:               0.6
 (Enter /home/sabyasachi/g16/l801.exe)
 DoSCS=F DFT=T ScalE2(SS,OS)=  1.000000  1.000000
 ExpMin= 6.71D-02 ExpMax= 2.89D+03 ExpMxC= 4.35D+02 IAcc=3 IRadAn=         5 AccDes= 0.00D+00
 HarFok:  IExCor=  205 AccDes= 0.00D+00 IRadAn=         5 IDoV=-2 UseB2=F ITyADJ=14
 ICtDFT= 12500011 ScaDFX=  1.000000  1.000000  1.000000  1.000000
 Largest valence mixing into a core orbital is  7.80D-05
 Largest core mixing into a valence orbital is  2.63D-05
 Range of M.O.s used for correlation:     4    82
 NBasis=    82 NAE=    13 NBE=    13 NFC=     3 NFV=     0
 NROrb=     79 NOA=    10 NOB=    10 NVA=    69 NVB=    69

 **** Warning!!: The largest alpha MO coefficient is  0.16769871D+02

 Leave Link  801 at Mon Mar 21 04:15:13 2022, MaxMem=  8589934592 cpu:               0.5 elap:               0.1
 (Enter /home/sabyasachi/g16/l914.exe)
 RHF ground state
 Keep R1, R2, and R3 ints in memory in symmetry-blocked form, NReq=462838434.
 FoFCou: FMM=F IPFlag=           0 FMFlag=           0 FMFlg1=           0
         NFxFlg=           0 DoJE=F BraDBF=F KetDBF=F FulRan=T
         wScrn=  0.000000 ICntrl=       600 IOpCl=  0 I1Cent=           0 NGrid=           0
         NMat0=    1 NMatS0=   3403 NMatT0=    0 NMatD0=    1 NMtDS0=    0 NMtDT0=    0
 Petite list used in FoFCou.
 MDV=  8589934592 DFT=T DoStab=F Mixed=T DoRPA=T DoScal=F NonHer=T
 Making orbital integer symmetry assigments:
 Orbital symmetries:
       Occupied  (A1) (B2) (A1) (A1) (B2) (A1) (B1) (A1) (B2) (A2)
                 (A1) (B2) (B1)
       Virtual   (A1) (B2) (A1) (B1) (A1) (B2) (A2) (A1) (B1) (B2)
                 (A1) (A1) (A2) (B1) (A1) (B2) (B1) (B1) (A1) (B2)
                 (A1) (B2) (A2) (A1) (B1) (A1) (B2) (A1) (B1) (A2)
                 (A1) (B2) (A2) (B2) (A1) (B1) (B2) (A1) (B1) (A1)
                 (A2) (A1) (B1) (B2) (A2) (B2) (A1) (B1) (A1) (B1)
                 (B2) (A1) (B2) (B2) (A1) (A2) (A1) (A1) (B1) (B2)
                 (A2) (B2) (B1) (A1) (B1) (A2) (A1) (A1) (B2)
   690 initial guesses have been made.
 Convergence on wavefunction:    0.001000000000000
 Davidson Disk Diagonalization:  ConvIn= 1.00D-03 SkipCon=T Conv= 1.00D-03.
 Max sub-space:  4140 roots to seek:  1380 dimension of matrix:         1380
 *** WARNING: Number of orthogonal guesses is          690
 Iteration     1 Dimension   690 NMult     0 NNew    690
 CISAX will form   690 AO SS matrices at one time.
 NMat=   690 NSing=   690 JSym2X=-1.
 New state     11 was old state     13
 New state     12 was old state     14
 New state     13 was old state     12
 New state     14 was old state     11
 New state     17 was old state     18
 New state     18 was old state     21
 New state     20 was old state     17
 New state     21 was old state     20
 New state     27 was old state     38
 New state     28 was old state     30
 New state     30 was old state     28
 New state     31 was old state     27
 New state     32 was old state     34
 New state     33 was old state     31
 New state     34 was old state     36
 New state     35 was old state     32
 New state     36 was old state     37
 New state     37 was old state     33
 New state     38 was old state     35
 New state     39 was old state     40
 New state     40 was old state     43
 New state     42 was old state     39
 New state     43 was old state     42
 New state     44 was old state     46
 New state     45 was old state     47
 New state     46 was old state     45
 New state     47 was old state     44
 New state     48 was old state     50
 New state     49 was old state     48
 New state     50 was old state     49
 New state     51 was old state     53
 New state     52 was old state     51
 New state     53 was old state     55
 New state     54 was old state     52
 New state     55 was old state     60
 New state     56 was old state     54
 New state     58 was old state     59
 New state     59 was old state     56
 New state     60 was old state     58
 New state     61 was old state     62
 New state     62 was old state     61
 New state     64 was old state     65
 New state     65 was old state     66
 New state     66 was old state     67
 New state     67 was old state     64
 New state     70 was old state     71
 New state     71 was old state     73
 New state     73 was old state     80
 New state     74 was old state     87
 New state     75 was old state     74
 New state     76 was old state     75
 New state     77 was old state     70
 New state     78 was old state     81
 New state     79 was old state     77
 New state     80 was old state     82
 New state     81 was old state     76
 New state     82 was old state     84
 New state     83 was old state     85
 New state     84 was old state     78
 New state     85 was old state     79
 New state     87 was old state     83
 New state     89 was old state     91
 New state     90 was old state     92
 New state     91 was old state     89
 New state     92 was old state     95
 New state     93 was old state     90
 New state     94 was old state     93
 New state     95 was old state     94
 New state     96 was old state     98
 New state     98 was old state    100
 New state    100 was old state     96
 New state    105 was old state    110
 New state    106 was old state    105
 New state    107 was old state    106
 New state    108 was old state    107
 New state    109 was old state    108
 New state    110 was old state    111
 New state    111 was old state    109
 New state    112 was old state    113
 New state    113 was old state    115
 New state    114 was old state    112
 New state    115 was old state    114
 New state    118 was old state    119
 New state    119 was old state    118
 New state    120 was old state    121
 New state    121 was old state    120
 New state    122 was old state    123
 New state    123 was old state    125
 New state    124 was old state    122
 New state    125 was old state    124
 New state    127 was old state    128
 New state    128 was old state    129
 New state    129 was old state    127
 New state    131 was old state    140
 New state    133 was old state    131
 New state    134 was old state    143
 New state    136 was old state    133
 New state    137 was old state    145
 New state    138 was old state    142
 New state    139 was old state    137
 New state    140 was old state    136
 New state    141 was old state    138
 New state    142 was old state    139
 New state    143 was old state    147
 New state    145 was old state    146
 New state    146 was old state    154
 New state    147 was old state    141
 New state    150 was old state    151
 New state    151 was old state    150
 New state    154 was old state    155
 New state    155 was old state    157
 New state    156 was old state    158
 New state    157 was old state    161
 New state    158 was old state    159
 New state    159 was old state    162
 New state    161 was old state    164
 New state    162 was old state    171
 New state    164 was old state    156
 New state    165 was old state    168
 New state    166 was old state    170
 New state    167 was old state    165
 New state    168 was old state    169
 New state    169 was old state    167
 New state    170 was old state    166
 New state    171 was old state    173
 New state    172 was old state    178
 New state    173 was old state    172
 New state    174 was old state    175
 New state    175 was old state    176
 New state    176 was old state    184
 New state    178 was old state    174
 New state    180 was old state    182
 New state    181 was old state    183
 New state    182 was old state    181
 New state    183 was old state    194
 New state    184 was old state    185
 New state    185 was old state    186
 New state    186 was old state    190
 New state    187 was old state    189
 New state    189 was old state    187
 New state    190 was old state    192
 New state    191 was old state    197
 New state    192 was old state    196
 New state    193 was old state    191
 New state    194 was old state    193
 New state    195 was old state    198
 New state    196 was old state    195
 New state    197 was old state    200
 New state    198 was old state    199
 New state    199 was old state    180
 New state    200 was old state    213
 New state    202 was old state    207
 New state    203 was old state    202
 New state    204 was old state    203
 New state    207 was old state    204
 New state    209 was old state    210
 New state    210 was old state    212
 New state    211 was old state    215
 New state    212 was old state    209
 New state    213 was old state    214
 New state    214 was old state    216
 New state    215 was old state    211
 New state    216 was old state    226
 New state    217 was old state    218
 New state    218 was old state    217
 New state    219 was old state    232
 New state    220 was old state    227
 New state    221 was old state    219
 New state    222 was old state    223
 New state    223 was old state    224
 New state    224 was old state    225
 New state    225 was old state    220
 New state    226 was old state    222
 New state    227 was old state    228
 New state    228 was old state    229
 New state    229 was old state    230
 New state    230 was old state    231
 New state    231 was old state    234
 New state    232 was old state    233
 New state    233 was old state    243
 New state    234 was old state    236
 New state    235 was old state    241
 New state    236 was old state    235
 New state    237 was old state    238
 New state    238 was old state    237
 New state    239 was old state    242
 New state    241 was old state    244
 New state    242 was old state    239
 No map to state    243
 New state    244 was old state    245
 New state    245 was old state    246
 New state    246 was old state    267
 New state    248 was old state    249
 New state    249 was old state    251
 New state    250 was old state    248
 New state    251 was old state    250
 New state    254 was old state    255
 New state    255 was old state    254
 New state    256 was old state    258
 New state    257 was old state    256
 New state    258 was old state    261
 New state    259 was old state    257
 New state    260 was old state    259
 New state    261 was old state    260
 New state    265 was old state    269
 New state    266 was old state    274
 New state    267 was old state    266
 New state    268 was old state    270
 New state    269 was old state    272
 New state    270 was old state    268
 New state    271 was old state    275
 New state    272 was old state    271
 New state    273 was old state    265
 New state    274 was old state    276
 New state    275 was old state    277
 New state    276 was old state    278
 New state    277 was old state    273
 New state    278 was old state    279
 New state    279 was old state    280
 New state    280 was old state    281
 New state    281 was old state    282
 New state    282 was old state    292
 New state    283 was old state    285
 New state    285 was old state    283
 New state    286 was old state    288
 New state    287 was old state    289
 New state    288 was old state    291
 New state    289 was old state    287
 New state    290 was old state    293
 New state    291 was old state    286
 New state    292 was old state    294
 New state    293 was old state    299
 New state    294 was old state    290
 New state    295 was old state    297
 New state    297 was old state    303
 New state    299 was old state    295
 New state    300 was old state    301
 New state    301 was old state    302
 New state    302 was old state    300
 New state    303 was old state    304
 New state    304 was old state    307
 New state    307 was old state    308
 New state    308 was old state    309
 New state    309 was old state    313
 New state    310 was old state    312
 New state    312 was old state    314
 New state    313 was old state    319
 New state    314 was old state    315
 New state    315 was old state    316
 New state    316 was old state    317
 New state    317 was old state    331
 New state    318 was old state    322
 New state    319 was old state    324
 New state    320 was old state    318
 New state    321 was old state    320
 New state    322 was old state    323
 New state    323 was old state    321
 New state    324 was old state    335
 New state    325 was old state    329
 New state    327 was old state    325
 New state    328 was old state    330
 New state    329 was old state    328
 New state    330 was old state    327
 New state    331 was old state    332
 New state    332 was old state    333
 New state    333 was old state    336
 New state    334 was old state    337
 New state    335 was old state    310
 New state    336 was old state    334
 New state    337 was old state    338
 New state    338 was old state    339
 New state    339 was old state    340
 New state    340 was old state    341
 New state    341 was old state    347
 New state    343 was old state    345
 New state    344 was old state    343
 New state    345 was old state    346
 New state    346 was old state    344
 New state    347 was old state    348
 New state    348 was old state    353
 New state    349 was old state    351
 New state    350 was old state    352
 New state    351 was old state    349
 New state    352 was old state    350
 New state    353 was old state    356
 New state    356 was old state    368
 New state    357 was old state    359
 New state    358 was old state    357
 New state    359 was old state    361
 New state    360 was old state    358
 New state    361 was old state    362
 New state    362 was old state    360
 New state    368 was old state    372
 New state    372 was old state    373
 No map to state    373
 New state    381 was old state    387
 New state    382 was old state    381
 New state    383 was old state    382
 New state    384 was old state    383
 New state    385 was old state    384
 New state    386 was old state    385
 New state    387 was old state    386
 New state    390 was old state    391
 New state    391 was old state    390
 New state    392 was old state    395
 New state    394 was old state    392
 New state    395 was old state    397
 New state    396 was old state    394
 New state    397 was old state    407
 New state    398 was old state    396
 New state    399 was old state    398
 New state    400 was old state    411
 New state    401 was old state    402
 New state    402 was old state    400
 New state    403 was old state    401
 New state    405 was old state    403
 New state    406 was old state    408
 New state    407 was old state    405
 New state    408 was old state    406
 New state    409 was old state    412
 New state    410 was old state    414
 New state    411 was old state    410
 New state    412 was old state    409
 New state    413 was old state    416
 New state    414 was old state    413
 New state    415 was old state    422
 New state    416 was old state    415
 New state    417 was old state    418
 New state    418 was old state    419
 New state    419 was old state    431
 New state    422 was old state    423
 New state    423 was old state    424
 New state    424 was old state    426
 New state    425 was old state    428
 New state    426 was old state    425
 New state    427 was old state    432
 New state    428 was old state    427
 New state    429 was old state    434
 New state    430 was old state    438
 New state    431 was old state    429
 New state    432 was old state    430
 New state    434 was old state    417
 New state    435 was old state    436
 New state    436 was old state    437
 New state    437 was old state    435
 New state    438 was old state    439
 New state    439 was old state    440
 New state    440 was old state    448
 New state    443 was old state    444
 New state    444 was old state    443
 New state    445 was old state    447
 New state    447 was old state    445
 New state    448 was old state    452
 New state    449 was old state    451
 New state    451 was old state    457
 New state    452 was old state    449
 New state    456 was old state    458
 New state    457 was old state    456
 New state    458 was old state    461
 New state    461 was old state    473
 New state    462 was old state    463
 New state    463 was old state    462
 New state    464 was old state    465
 New state    465 was old state    464
 New state    467 was old state    468
 New state    468 was old state    472
 New state    469 was old state    467
 New state    470 was old state    474
 New state    471 was old state    469
 New state    472 was old state    470
 New state    473 was old state    475
 New state    474 was old state    479
 New state    475 was old state    478
 New state    478 was old state    480
 New state    479 was old state    481
 New state    480 was old state    482
 New state    481 was old state    483
 New state    482 was old state    488
 New state    483 was old state    489
 New state    487 was old state    490
 New state    488 was old state    493
 New state    489 was old state    487
 New state    490 was old state    491
 New state    491 was old state    492
 New state    492 was old state    497
 New state    493 was old state    495
 New state    494 was old state    496
 New state    495 was old state    494
 New state    496 was old state    501
 New state    497 was old state    498
 New state    498 was old state    502
 New state    499 was old state    500
 New state    500 was old state    499
 New state    501 was old state    507
 New state    502 was old state    503
 New state    503 was old state    504
 New state    504 was old state    506
 New state    505 was old state    519
 New state    506 was old state    505
 New state    507 was old state    508
 New state    508 was old state    514
 New state    509 was old state    513
 New state    510 was old state    512
 New state    511 was old state    509
 New state    512 was old state    511
 New state    513 was old state    510
 New state    514 was old state    515
 New state    515 was old state    516
 New state    516 was old state    544
 New state    519 was old state    520
 New state    520 was old state    528
 New state    521 was old state    524
 New state    522 was old state    526
 New state    523 was old state    525
 New state    524 was old state    523
 New state    525 was old state    521
 New state    526 was old state    529
 New state    527 was old state    522
 New state    528 was old state    527
 New state    529 was old state    530
 New state    530 was old state    531
 New state    531 was old state    539
 New state    534 was old state    536
 New state    535 was old state    538
 New state    536 was old state    534
 New state    537 was old state    535
 New state    538 was old state    537
 New state    539 was old state    543
 New state    540 was old state    542
 New state    541 was old state    540
 New state    542 was old state    541
 New state    543 was old state    545
 New state    544 was old state    546
 New state    545 was old state    547
 New state    546 was old state    548
 New state    547 was old state    552
 New state    548 was old state    557
 No map to state    552
 New state    555 was old state    556
 New state    556 was old state    555
 No map to state    557
 New state    567 was old state    568
 New state    568 was old state    570
 New state    569 was old state    567
 New state    570 was old state    571
 New state    571 was old state    569
 New state    576 was old state    579
 New state    577 was old state    578
 New state    578 was old state    580
 New state    579 was old state    582
 New state    580 was old state    576
 New state    581 was old state    577
 New state    582 was old state    581
 New state    585 was old state    586
 New state    586 was old state    585
 New state    591 was old state    594
 New state    592 was old state    595
 New state    593 was old state    591
 New state    594 was old state    593
 New state    595 was old state    596
 New state    596 was old state    599
 New state    598 was old state    592
 New state    599 was old state    602
 New state    600 was old state    604
 New state    601 was old state    598
 New state    602 was old state    603
 New state    603 was old state    605
 New state    604 was old state    608
 New state    605 was old state    609
 New state    606 was old state    611
 New state    607 was old state    600
 New state    608 was old state    607
 New state    609 was old state    601
 New state    610 was old state    613
 New state    611 was old state    615
 New state    612 was old state    618
 New state    613 was old state    616
 New state    614 was old state    606
 New state    615 was old state    619
 New state    616 was old state    614
 New state    617 was old state    623
 New state    618 was old state    620
 New state    619 was old state    617
 New state    620 was old state    622
 New state    621 was old state    624
 New state    622 was old state    621
 New state    623 was old state    625
 New state    624 was old state    626
 New state    625 was old state    634
 New state    626 was old state    629
 New state    629 was old state    630
 New state    630 was old state    633
 New state    631 was old state    637
 New state    633 was old state    639
 New state    634 was old state    635
 New state    635 was old state    636
 New state    636 was old state    638
 New state    637 was old state    631
 New state    638 was old state    640
 New state    639 was old state    654
 New state    640 was old state    660
 New state    642 was old state    644
 New state    644 was old state    646
 New state    646 was old state    642
 New state    648 was old state    652
 New state    649 was old state    648
 New state    652 was old state    649
 New state    654 was old state    656
 No map to state    656
 New state    657 was old state    658
 New state    658 was old state    657
 New state    660 was old state    662
 New state    662 was old state    664
 New state    663 was old state    665
 New state    664 was old state    666
 New state    665 was old state    663
 New state    666 was old state    668
 New state    668 was old state    669
 New state    669 was old state    670
 New state    670 was old state    671
 New state    671 was old state    672
 No map to state    672
 New state    673 was old state    674
 New state    674 was old state    675
 New state    675 was old state    673
 Excitation Energies [eV] at current iteration:
 Root      1 :     9.389778531007304
 Root      2 :    10.122054753557730
 Root      3 :    10.669006934898170
 Root      4 :    10.997171163126090
 Root      5 :    11.238561562733380
 Root      6 :    11.521853465078670
 Root      7 :    11.804526177222880
 Root      8 :    12.032684456975720
 Root      9 :    12.264665501200530
 Root     10 :    12.278755664466840
 Root     11 :    12.507826329175300
 Root     12 :    12.693413398808600
 Root     13 :    12.697814686686020
 Root     14 :    12.819078952546330
 Root     15 :    12.875453453144350
 Root     16 :    12.891253747276740
 Root     17 :    12.981277684068750
 Root     18 :    13.178810841859330
 Root     19 :    13.307599645957400
 Root     20 :    13.468613708005410
 Root     21 :    13.509438181894960
 Root     22 :    13.860036600763030
 Root     23 :    13.956497909549680
 Root     24 :    14.121767610750860
 Root     25 :    14.450655616355680
 Root     26 :    14.564598385911190
 Root     27 :    14.699665246678010
 Root     28 :    14.781456673833040
 Root     29 :    14.824249713508590
 Root     30 :    14.844142692019930
 Root     31 :    14.958434761407830
 Root     32 :    15.072501848874150
 Root     33 :    15.104041064840560
 Root     34 :    15.189471746817280
 Root     35 :    15.220209779291490
 Root     36 :    15.229507302827100
 Root     37 :    15.240738926020120
 Root     38 :    15.269751507463210
 Root     39 :    15.418073446000110
 Root     40 :    15.627349411229470
 Root     41 :    15.674703862579200
 Root     42 :    15.825521517603730
 Root     43 :    15.848254930199410
 Root     44 :    15.848901728499600
 Root     45 :    15.879320567336370
 Root     46 :    15.945993636669480
 Root     47 :    16.072546600183010
 Root     48 :    16.279074810902110
 Root     49 :    16.351273223350330
 Root     50 :    16.434658405406020
 Root     51 :    16.479706873384570
 Root     52 :    16.527501170796190
 Root     53 :    16.636481080021870
 Root     54 :    16.650545440486110
 Root     55 :    16.715981323556880
 Root     56 :    16.982138335732770
 Root     57 :    17.078335047423140
 Root     58 :    17.081326057618820
 Root     59 :    17.087087524690490
 Root     60 :    17.162783391312470
 Root     61 :    17.191658277792510
 Root     62 :    17.509966501448680
 Root     63 :    17.694183050799280
 Root     64 :    17.961187606612810
 Root     65 :    17.988423147343420
 Root     66 :    18.001037198805090
 Root     67 :    18.041101486914530
 Root     68 :    18.181439119380470
 Root     69 :    18.427808270486690
 Root     70 :    18.546019596147490
 Root     71 :    18.551922560596670
 Root     72 :    18.625495211435780
 Root     73 :    18.643986919215100
 Root     74 :    18.695102055119500
 Root     75 :    18.716367052647260
 Root     76 :    18.803160955373520
 Root     77 :    18.858752472566920
 Root     78 :    18.869088205330010
 Root     79 :    18.870381729490450
 Root     80 :    18.944561070691150
 Root     81 :    18.956275700881990
 Root     82 :    18.961208153976920
 Root     83 :    18.963331554400730
 Root     84 :    18.986154548794090
 Root     85 :    19.038897915959140
 Root     86 :    19.051288001643850
 Root     87 :    19.116181912928890
 Root     88 :    19.261215543496770
 Root     89 :    19.299315421353480
 Root     90 :    19.357166287162140
 Root     91 :    19.431353464243120
 Root     92 :    19.435838444973980
 Root     93 :    19.460880686437550
 Root     94 :    19.475113206440670
 Root     95 :    19.560840414239340
 Root     96 :    19.694954113200080
 Root     97 :    19.711811598240360
 Root     98 :    19.803327077700650
 Root     99 :    19.882401718298940
 Root    100 :    20.006417536485540
 Root    101 :    20.029939387398820
 Root    102 :    20.229926777147120
 Root    103 :    20.279075959811710
 Root    104 :    20.437376689750630
 Root    105 :    20.499329837152460
 Root    106 :    20.510280360579910
 Root    107 :    20.669174267387850
 Root    108 :    20.864452338706290
 Root    109 :    20.866762450231490
 Root    110 :    21.031810270807450
 Root    111 :    21.182592275418530
 Root    112 :    21.242559535058470
 Root    113 :    21.304062304673240
 Root    114 :    21.312126164920450
 Root    115 :    21.372177228463320
 Root    116 :    21.458050081843060
 Root    117 :    21.608831807589290
 Root    118 :    21.723407336368810
 Root    119 :    21.727866337452110
 Root    120 :    21.798276994388350
 Root    121 :    21.867583132777780
 Root    122 :    22.048053073169800
 Root    123 :    22.152558920488160
 Root    124 :    22.169853386847080
 Root    125 :    22.238780633684580
 Root    126 :    22.241105646338680
 Root    127 :    22.300072159927910
 Root    128 :    22.347599334080060
 Root    129 :    22.422019176795680
 Root    130 :    22.491754945688800
 Root    131 :    22.512030892679570
 Root    132 :    22.537677125258090
 Root    133 :    22.591662269234030
 Root    134 :    22.669473932359510
 Root    135 :    22.686317002955760
 Root    136 :    22.689150172335930
 Root    137 :    22.798685059815920
 Root    138 :    22.800370226841420
 Root    139 :    22.838275319777340
 Root    140 :    22.943146709942080
 Root    141 :    22.959801978095130
 Root    142 :    22.977812404928250
 Root    143 :    23.120323382360030
 Root    144 :    23.122532448653570
 Root    145 :    23.185954019412950
 Root    146 :    23.206061797336050
 Root    147 :    23.218712074718600
 Root    148 :    23.673522893347280
 Root    149 :    23.734413088520560
 Root    150 :    24.104221577089690
 Root    151 :    24.137126236086940
 Root    152 :    24.150946607460020
 Root    153 :    24.358824453943970
 Root    154 :    24.589278167805410
 Root    155 :    24.881545852544090
 Root    156 :    24.907722720169050
 Root    157 :    24.945010210427370
 Root    158 :    24.949605230964690
 Root    159 :    25.034585166791750
 Root    160 :    25.103957236573330
 Root    161 :    25.175580591690140
 Root    162 :    25.177613840629180
 Root    163 :    25.239076250760050
 Root    164 :    25.378642036395600
 Root    165 :    25.487369540431810
 Root    166 :    25.498387489061730
 Root    167 :    25.539186653495290
 Root    168 :    25.544859487522750
 Root    169 :    25.659871293592960
 Root    170 :    25.899434296615120
 Root    171 :    25.929437393139170
 Root    172 :    26.020113970345570
 Root    173 :    26.050915498673310
 Root    174 :    26.101698847271770
 Root    175 :    26.234072181470110
 Root    176 :    26.424588748797860
 Root    177 :    26.485529511257570
 Root    178 :    26.594996096300080
 Root    179 :    26.828270640520180
 Root    180 :    27.050713570147900
 Root    181 :    27.070451863712220
 Root    182 :    27.079464023128710
 Root    183 :    27.245651206823660
 Root    184 :    27.490808666219670
 Root    185 :    27.527513977508880
 Root    186 :    27.570419328876110
 Root    187 :    27.704475652168990
 Root    188 :    27.848496796327020
 Root    189 :    27.889853198818070
 Root    190 :    28.044004967320910
 Root    191 :    28.046435868851120
 Root    192 :    28.055025083729540
 Root    193 :    28.073959972766900
 Root    194 :    28.256667361504360
 Root    195 :    28.335415908162010
 Root    196 :    28.435431153226520
 Root    197 :    28.476358603986920
 Root    198 :    28.617234835827910
 Root    199 :    28.700621737537240
 Root    200 :    28.709918414431490
 Root    201 :    28.990616452941610
 Root    202 :    29.036963245684510
 Root    203 :    29.160944643177430
 Root    204 :    29.199378452179200
 Root    205 :    29.284897701658660
 Root    206 :    29.394614465478140
 Root    207 :    29.581149022514200
 Root    208 :    29.675179630984960
 Root    209 :    29.818288209456430
 Root    210 :    30.075509476457820
 Root    211 :    30.093730530618900
 Root    212 :    30.279005686031790
 Root    213 :    30.329155088479570
 Root    214 :    30.339024789124730
 Root    215 :    30.494134559588520
 Root    216 :    30.664634864623350
 Root    217 :    30.680581325617150
 Root    218 :    30.784162572498460
 Root    219 :    30.923345766498300
 Root    220 :    31.011482605385210
 Root    221 :    31.012030622446660
 Root    222 :    31.019676619315920
 Root    223 :    31.084494529209600
 Root    224 :    31.144162591558540
 Root    225 :    31.216628082196470
 Root    226 :    31.400148066096770
 Root    227 :    31.495647473382470
 Root    228 :    31.516553799178200
 Root    229 :    31.591836487381180
 Root    230 :    31.654164099157470
 Root    231 :    31.836512405136170
 Root    232 :    31.839611511755920
 Root    233 :    31.865384864337630
 Root    234 :    31.957099427510330
 Root    235 :    32.064894148680440
 Root    236 :    32.126285971986230
 Root    237 :    32.135068961108140
 Root    238 :    32.325451231127200
 Root    239 :    32.531386510018860
 Root    240 :    32.545242823155690
 Root    241 :    32.651664764417600
 Root    242 :    32.711151266943470
 Root    243 :    32.736234018981490
 Root    244 :    32.838556200336380
 Root    245 :    33.220983103391460
 Root    246 :    33.283313284640090
 Root    247 :    33.761897608129560
 Root    248 :    33.792090431455680
 Root    249 :    33.951238170719890
 Root    250 :    34.111716300670250
 Root    251 :    34.127028296145500
 Root    252 :    34.242100338191170
 Root    253 :    34.334236517606090
 Root    254 :    34.427779217819270
 Root    255 :    34.452398380058160
 Root    256 :    34.537891839495470
 Root    257 :    34.662810947900010
 Root    258 :    34.786459616596750
 Root    259 :    34.858399025655100
 Root    260 :    34.894132452386470
 Root    261 :    34.951086366048530
 Root    262 :    34.957138375676830
 Root    263 :    34.978244384639480
 Root    264 :    35.023739374709920
 Root    265 :    35.045015286467740
 Root    266 :    35.172783808911080
 Root    267 :    35.251411259753140
 Root    268 :    35.398547205417610
 Root    269 :    35.459943605085140
 Root    270 :    35.490948105923430
 Root    271 :    35.643803547043690
 Root    272 :    35.644688942831810
 Root    273 :    35.648080690517990
 Root    274 :    35.773604370616050
 Root    275 :    35.784614068196700
 Root    276 :    35.831670293860970
 Root    277 :    35.849714868247890
 Root    278 :    35.921600686408640
 Root    279 :    36.039676177954110
 Root    280 :    36.058023620077560
 Root    281 :    36.208204751450920
 Root    282 :    36.327216988149030
 Root    283 :    36.481435080096230
 Root    284 :    36.499684294935260
 Root    285 :    36.541507976963030
 Root    286 :    36.777841740838070
 Root    287 :    36.789692904619760
 Root    288 :    36.906527588840670
 Root    289 :    36.927222907033650
 Root    290 :    36.942755550168460
 Root    291 :    37.055838420251590
 Root    292 :    37.161123407155690
 Root    293 :    37.202545420455710
 Root    294 :    37.320929621638460
 Root    295 :    37.375331221753690
 Root    296 :    37.432163128181000
 Root    297 :    37.518428725566710
 Root    298 :    37.563421219743200
 Root    299 :    37.884786639641820
 Root    300 :    37.944107830690920
 Root    301 :    38.069106199282410
 Root    302 :    38.146993827170200
 Root    303 :    38.153560125447650
 Root    304 :    38.374570973988040
 Root    305 :    38.410536442237350
 Root    306 :    38.609201347519080
 Root    307 :    38.692989331478210
 Root    308 :    38.753545582028260
 Root    309 :    38.773713064375170
 Root    310 :    38.813904150960650
 Root    311 :    38.855208561851100
 Root    312 :    39.055144679379910
 Root    313 :    39.055905770689020
 Root    314 :    39.154070438341490
 Root    315 :    39.217126952649020
 Root    316 :    39.230187628428350
 Root    317 :    39.398028226150100
 Root    318 :    39.735600931087140
 Root    319 :    39.902422552662860
 Root    320 :    39.913252765740690
 Root    321 :    39.977206254893670
 Root    322 :    40.061664397238510
 Root    323 :    40.221293417486580
 Root    324 :    40.255329805582570
 Root    325 :    40.418882307187720
 Root    326 :    40.423361069557470
 Root    327 :    40.441770995440830
 Root    328 :    40.515436353345020
 Root    329 :    40.520545661803380
 Root    330 :    40.688990558116650
 Root    331 :    40.754600850672390
 Root    332 :    40.770165246580970
 Root    333 :    40.827136579674900
 Root    334 :    40.829262777114590
 Root    335 :    41.171579999111170
 Root    336 :    41.287055688760370
 Root    337 :    41.556108347813190
 Root    338 :    41.857971542323180
 Root    339 :    41.915391919281700
 Root    340 :    42.081055435774480
 Root    341 :    42.437318514523300
 Root    342 :    42.509085011567820
 Root    343 :    42.583690246724070
 Root    344 :    42.793411286459160
 Root    345 :    42.823741859280760
 Root    346 :    42.958187011311430
 Root    347 :    42.963268999390070
 Root    348 :    43.009260833851740
 Root    349 :    43.033936859371970
 Root    350 :    43.041571105805420
 Root    351 :    43.233787771705120
 Root    352 :    43.494744379287250
 Root    353 :    43.659281265275660
 Root    354 :    43.838598665776030
 Root    355 :    44.132330027890930
 Root    356 :    44.610439350200610
 Root    357 :    44.718542046754820
 Root    358 :    44.859089336070370
 Root    359 :    44.987748251029070
 Root    360 :    45.064824755251980
 Root    361 :    45.173654850611770
 Root    362 :    45.396732708733120
 Root    363 :    45.733720686935440
 Root    364 :    45.950915990353050
 Root    365 :    46.992286207878490
 Root    366 :    47.309354654004340
 Root    367 :    47.502868398089110
 Root    368 :    47.712821347822220
 Root    369 :    48.577278652214550
 Root    370 :    48.680440155722910
 Root    371 :    49.088494675609650
 Root    372 :    49.293947377202580
 Root    373 :    49.502162305803730
 Root    374 :    50.164454482027770
 Root    375 :    50.181777760118240
 Root    376 :    50.430834328924870
 Root    377 :    50.433009929828610
 Root    378 :    50.603315587586150
 Root    379 :    50.993167870439140
 Root    380 :    51.056728370890060
 Root    381 :    51.235846081255860
 Root    382 :    51.450008686633890
 Root    383 :    51.500093033288610
 Root    384 :    51.727567817597530
 Root    385 :    51.856932455778730
 Root    386 :    52.043610092831000
 Root    387 :    52.200019722694440
 Root    388 :    52.402355246786400
 Root    389 :    52.443603334352320
 Root    390 :    52.690470269808320
 Root    391 :    52.824000557621510
 Root    392 :    53.332117982212480
 Root    393 :    53.472332670232170
 Root    394 :    53.533275541065490
 Root    395 :    53.581412501750940
 Root    396 :    53.636256855516320
 Root    397 :    53.750199874429310
 Root    398 :    54.028800462758260
 Root    399 :    54.133389339271790
 Root    400 :    54.191350506189070
 Root    401 :    54.215907214993630
 Root    402 :    54.382417923665910
 Root    403 :    54.483106091190580
 Root    404 :    54.518265256814180
 Root    405 :    54.520402036883380
 Root    406 :    54.882474189585210
 Root    407 :    54.895773328144320
 Root    408 :    55.084798081912280
 Root    409 :    55.159966193268240
 Root    410 :    55.217346267012350
 Root    411 :    55.279433928136280
 Root    412 :    55.300432236248260
 Root    413 :    55.581523209467270
 Root    414 :    55.639988026765120
 Root    415 :    56.057273759024310
 Root    416 :    56.276231875528440
 Root    417 :    56.498562945812610
 Root    418 :    56.911733994947590
 Root    419 :    57.150449036300090
 Root    420 :    57.317046624960620
 Root    421 :    57.460276010134220
 Root    422 :    57.538656858809790
 Root    423 :    57.558932373192820
 Root    424 :    57.804562996440550
 Root    425 :    57.818696082259590
 Root    426 :    57.844633098695110
 Root    427 :    57.845077270711410
 Root    428 :    58.124024021295380
 Root    429 :    58.239806147154750
 Root    430 :    58.244460989269360
 Root    431 :    58.380341223374360
 Root    432 :    58.422003262654780
 Root    433 :    58.620803532528360
 Root    434 :    58.797346311184180
 Root    435 :    59.092625256225900
 Root    436 :    59.296577392320250
 Root    437 :    59.442986779276990
 Root    438 :    59.689476108078880
 Root    439 :    59.807005084293700
 Root    440 :    59.824087073815580
 Root    441 :    60.114812286908300
 Root    442 :    60.256016809233470
 Root    443 :    60.568634309916380
 Root    444 :    60.735459658478720
 Root    445 :    60.939481129869840
 Root    446 :    61.097423293082500
 Root    447 :    61.136154016149110
 Root    448 :    61.413078929675920
 Root    449 :    61.593351400889820
 Root    450 :    61.656623383718650
 Root    451 :    61.841375454877990
 Root    452 :    61.909707632248170
 Root    453 :    61.942015661856850
 Root    454 :    62.323654646845090
 Root    455 :    62.492211846604160
 Root    456 :    62.586357543188970
 Root    457 :    62.650214463141200
 Root    458 :    63.102545612720550
 Root    459 :    63.165179577187390
 Root    460 :    63.188635162493020
 Root    461 :    63.492606639820060
 Root    462 :    63.571740184716010
 Root    463 :    63.806708125018310
 Root    464 :    63.836008748963830
 Root    465 :    63.913842170503200
 Root    466 :    64.761371858073640
 Root    467 :    65.024868011153130
 Root    468 :    65.145486982454130
 Root    469 :    65.264711155648530
 Root    470 :    65.403003939527590
 Root    471 :    65.440833275300850
 Root    472 :    65.451596133390480
 Root    473 :    65.817647754672980
 Root    474 :    66.099065898978370
 Root    475 :    66.108181579309760
 Root    476 :    66.202238362793680
 Root    477 :    66.243137970391490
 Root    478 :    66.355969407683330
 Root    479 :    66.894868059213780
 Root    480 :    66.921851268525220
 Root    481 :    67.152481917257460
 Root    482 :    67.268810186858900
 Root    483 :    67.914300780522840
 Root    484 :    68.591034629565770
 Root    485 :    68.626978470964450
 Root    486 :    68.688499107058160
 Root    487 :    68.750783479020310
 Root    488 :    68.861267042438390
 Root    489 :    68.873522112075380
 Root    490 :    68.951303043180700
 Root    491 :    68.987566313735360
 Root    492 :    69.420126034606350
 Root    493 :    69.512143645652420
 Root    494 :    69.545197450679450
 Root    495 :    69.737762388786290
 Root    496 :    70.080699016114910
 Root    497 :    70.318842578799560
 Root    498 :    70.355207190746310
 Root    499 :    70.702359582710540
 Root    500 :    70.762208833719900
 Root    501 :    71.408827579690410
 Root    502 :    71.515822203058920
 Root    503 :    71.571736706224020
 Root    504 :    71.576653300107980
 Root    505 :    71.804511364385010
 Root    506 :    71.916295889699600
 Root    507 :    72.271908202278790
 Root    508 :    72.509513660751170
 Root    509 :    72.577066299018030
 Root    510 :    72.586749508309400
 Root    511 :    72.983138424825400
 Root    512 :    73.037080315347000
 Root    513 :    73.086598450378130
 Root    514 :    73.461172477993980
 Root    515 :    73.461547187702980
 Root    516 :    73.582639762620370
 Root    517 :    73.622204502518040
 Root    518 :    73.726591110568120
 Root    519 :    74.095884026466010
 Root    520 :    74.383233059720070
 Root    521 :    74.498272530487550
 Root    522 :    74.732191889314290
 Root    523 :    74.873473866661000
 Root    524 :    74.954929519478720
 Root    525 :    74.997247704077380
 Root    526 :    75.007879266110660
 Root    527 :    75.037655106207610
 Root    528 :    75.116922941928410
 Root    529 :    75.515833294509360
 Root    530 :    75.517998490785090
 Root    531 :    75.921331298532720
 Root    532 :    76.253557347529320
 Root    533 :    76.863895642636510
 Root    534 :    77.121913923922190
 Root    535 :    77.233589492501790
 Root    536 :    77.244853538658080
 Root    537 :    77.582740510471440
 Root    538 :    77.676436451643240
 Root    539 :    78.527872100553670
 Root    540 :    78.532010785633080
 Root    541 :    78.590510094634060
 Root    542 :    78.671309039693210
 Root    543 :    78.963833924718700
 Root    544 :    79.231904079408010
 Root    545 :    79.653318188458970
 Root    546 :    79.711979049785430
 Root    547 :    80.993078960785370
 Root    548 :    81.040268720550060
 Root    549 :    81.423273450019760
 Root    550 :    82.557099611566710
 Root    551 :    83.855609269701650
 Root    552 :    84.819115256435000
 Root    553 :    84.880586456574730
 Root    554 :    85.488367757755470
 Root    555 :    86.204008944614860
 Root    556 :    86.237635753337000
 Root    557 :    86.677640847466530
 Root    558 :    87.071464593958410
 Root    559 :    87.084068809336900
 Root    560 :    87.229737165154800
 Root    561 :    87.706391104161410
 Root    562 :    87.842028334851730
 Root    563 :    88.097247863489980
 Root    564 :    88.495975165179090
 Root    565 :    88.696495013622070
 Root    566 :    90.503488873524890
 Root    567 :    90.509581939736790
 Root    568 :    90.646643282551080
 Root    569 :    90.654285790535850
 Root    570 :    90.748944572430490
 Root    571 :    90.847552880194710
 Root    572 :    91.228144514138590
 Root    573 :    92.010487157814480
 Root    574 :    93.152326682146320
 Root    575 :    93.227893254125860
 Root    576 :    94.117522899720310
 Root    577 :    94.190939764744390
 Root    578 :    94.227470638271700
 Root    579 :    94.654140664711150
 Root    580 :    94.697607537987040
 Root    581 :    94.998491495918670
 Root    582 :    95.027062092677430
 Root    583 :    96.332433644278680
 Root    584 :    96.521608754249000
 Root    585 :    97.629224873046720
 Root    586 :    97.938720129923870
 Root    587 :    98.113570339094760
 Root    588 :    98.337219989727390
 Root    589 :    98.598893227579810
 Root    590 :    98.766793274874960
 Root    591 :    98.773291651330130
 Root    592 :    99.396773161949770
 Root    593 :    99.571616313620070
 Root    594 :    99.654281460833250
 Root    595 :   100.511451083839400
 Root    596 :   100.691504365750400
 Root    597 :   100.706540792867000
 Root    598 :   100.809591902860800
 Root    599 :   100.992464893244200
 Root    600 :   101.235839864399900
 Root    601 :   101.320434662606700
 Root    602 :   101.360768219318000
 Root    603 :   101.681005541861800
 Root    604 :   101.838663988635000
 Root    605 :   102.162015909436600
 Root    606 :   102.516124848880100
 Root    607 :   102.612264765885300
 Root    608 :   102.822377511305300
 Root    609 :   103.047094249720900
 Root    610 :   103.405875070173900
 Root    611 :   103.742434801921600
 Root    612 :   103.964811804823300
 Root    613 :   103.971735452415700
 Root    614 :   103.976512550082600
 Root    615 :   104.181787794904100
 Root    616 :   104.573854943117500
 Root    617 :   104.782482218298400
 Root    618 :   104.819015121561300
 Root    619 :   104.909071511799500
 Root    620 :   104.957111841324000
 Root    621 :   105.170384456026000
 Root    622 :   105.341155692735400
 Root    623 :   105.514268382212800
 Root    624 :   105.660718755093800
 Root    625 :   105.957708845538900
 Root    626 :   106.219747486258900
 Root    627 :   106.339430861488400
 Root    628 :   106.574418654263200
 Root    629 :   106.677278089514300
 Root    630 :   107.190263302611700
 Root    631 :   107.619352573722300
 Root    632 :   107.629403655742300
 Root    633 :   108.142134355485200
 Root    634 :   108.377354109668800
 Root    635 :   108.542114284673600
 Root    636 :   108.603812319996000
 Root    637 :   108.664812730716200
 Root    638 :   108.886282698046400
 Root    639 :   109.222409661237500
 Root    640 :   109.599735595456700
 Root    641 :   109.766261883916400
 Root    642 :   109.944878103423900
 Root    643 :   109.988382491674000
 Root    644 :   110.078055190177100
 Root    645 :   110.188866384102600
 Root    646 :   110.255840784024800
 Root    647 :   111.363339172273700
 Root    648 :   111.878208916893000
 Root    649 :   111.924352284134400
 Root    650 :   111.960948044173500
 Root    651 :   112.078717882057400
 Root    652 :   113.247816650922300
 Root    653 :   113.541363379182800
 Root    654 :   113.617717032726100
 Root    655 :   114.547192553767700
 Root    656 :   114.732965885865500
 Root    657 :   115.280883593744600
 Root    658 :   115.600952693667200
 Root    659 :   116.319809103025100
 Root    660 :   117.318847703771700
 Root    661 :   117.636692179009500
 Root    662 :   117.719820185089000
 Root    663 :   117.949556010492300
 Root    664 :   118.007385322048000
 Root    665 :   118.614286604653700
 Root    666 :   120.699100879360400
 Root    667 :   121.129869162485600
 Root    668 :   121.268763602567300
 Root    669 :   121.654233971005800
 Root    670 :   121.661261456368200
 Root    671 :   122.125937381895400
 Root    672 :   122.301053857288500
 Root    673 :   122.487625509655200
 Root    674 :   122.587264537023800
 Root    675 :   123.033132412838900
 Root    676 :   123.791931998730200
 Root    677 :   124.273049252056700
 Root    678 :   124.565468379184300
 Root    679 :   124.656661308823600
 Root    680 :   124.946868074957900
 Root    681 :   125.261089594813500
 Root    682 :   125.932042221960300
 Root    683 :   127.570914426263000
 Root    684 :   128.975570343174400
 Root    685 :   129.567684217575600
 Root    686 :   131.113659842127100
 Root    687 :   134.872692622382700
 Root    688 :   136.340067989656400
 Root    689 :   138.393804277979000
 Root    690 :   139.803817608180200
 Convergence achieved for final wavefunctions.
 ***********************************************************************
 Excited states from <AA,BB:AA,BB> singles matrix:
 ***********************************************************************
 
 1PDM for each excited state written to RWF  633
 Ground to excited state transition densities written to RWF  633
 Ground to excited state transition electric dipole moments (Au):
       state          X           Y           Z        Dip. S.      Osc.
         1        -0.3752      0.0000      0.0000      0.1408      0.0324
         2         0.0000     -0.0000      0.0000      0.0000      0.0000
         3         0.2642      0.0000     -0.0000      0.0698      0.0182
         4        -0.0000      0.0000     -0.5316      0.2825      0.0761
         5         0.0000      0.3432     -0.0000      0.1178      0.0324
         6         0.0000     -0.0000      0.0018      0.0000      0.0000
         7         0.0000      0.0000      0.0000      0.0000      0.0000
         8         0.0000      0.0000      0.2740      0.0751      0.0221
         9         0.4819      0.0000      0.0000      0.2323      0.0698
        10         0.0000     -0.2531      0.0000      0.0640      0.0193
        11         0.3905     -0.0000      0.0000      0.1525      0.0467
        12        -0.0000     -0.0000      0.6373      0.4062      0.1263
        13        -0.0000     -0.0000     -0.0000      0.0000      0.0000
        14        -0.0000      0.5188     -0.0000      0.2692      0.0845
        15        -0.0000     -0.0000      0.0000      0.0000      0.0000
        16        -0.4206     -0.0000      0.0000      0.1769      0.0559
        17        -0.0000     -0.0000     -0.0000      0.0000      0.0000
        18        -0.0000      0.0316     -0.0000      0.0010      0.0003
        19         0.1263     -0.0000     -0.0000      0.0160      0.0052
        20         0.0000      0.4366      0.0000      0.1906      0.0629
        21         0.0000     -0.0000      0.4295      0.1845      0.0611
        22         0.0000     -0.0424      0.0000      0.0018      0.0006
        23         0.0000      0.0000      0.0000      0.0000      0.0000
        24        -0.0000     -0.0000      0.2094      0.0439      0.0152
        25         0.0000     -0.0000      0.0000      0.0000      0.0000
        26        -0.0000      0.0000      0.1535      0.0236      0.0084
        27         0.1558     -0.0000      0.0000      0.0243      0.0087
        28         0.0000     -0.0000      0.0000      0.0000      0.0000
        29        -0.0000      0.5536     -0.0000      0.3065      0.1113
        30        -0.2071     -0.0000      0.0000      0.0429      0.0156
        31        -0.0000      0.2664     -0.0000      0.0710      0.0260
        32        -0.3797     -0.0000      0.0000      0.1442      0.0532
        33        -0.0000     -0.0097      0.0000      0.0001      0.0000
        34        -0.3904      0.0000      0.0000      0.1524      0.0567
        35         0.0000     -0.0000     -0.3011      0.0906      0.0338
        36        -0.3297     -0.0000     -0.0000      0.1087      0.0405
        37         0.0000      0.0000     -0.0000      0.0000      0.0000
        38         0.0000      0.0000      0.1231      0.0152      0.0057
        39         0.0000      0.0000      0.0000      0.0000      0.0000
        40        -0.0000     -0.0000     -0.1351      0.0183      0.0070
        41         0.0000      0.2768     -0.0000      0.0766      0.0294
        42        -0.0000     -0.0000      0.1428      0.0204      0.0079
        43        -0.5196      0.0000     -0.0000      0.2700      0.1048
        44        -0.0000     -0.0233     -0.0000      0.0005      0.0002
        45        -0.0000      0.0000     -0.0000      0.0000      0.0000
        46         0.0000     -0.5789     -0.0000      0.3351      0.1309
        47        -0.0000      0.0000     -0.3317      0.1100      0.0433
        48         0.1009      0.0000     -0.0000      0.0102      0.0041
        49         0.0000      0.2902      0.0000      0.0842      0.0337
        50        -0.0000     -0.0000      0.5873      0.3449      0.1389
        51        -0.2431     -0.0000     -0.0000      0.0591      0.0239
        52        -0.0000     -0.0000      0.0000      0.0000      0.0000
        53         0.0000      0.6204     -0.0000      0.3849      0.1569
        54        -0.4329      0.0000     -0.0000      0.1874      0.0765
        55         0.0000     -0.0000      0.0736      0.0054      0.0022
        56         0.0000      0.0000     -0.3510      0.1232      0.0513
        57         0.0000     -0.3784     -0.0000      0.1432      0.0599
        58        -0.0000     -0.0000      0.0000      0.0000      0.0000
        59         0.0000     -0.0000      0.3036      0.0922      0.0386
        60         0.2179      0.0000     -0.0000      0.0475      0.0200
        61        -0.0000     -0.0000      0.0000      0.0000      0.0000
        62        -0.0000     -0.3211      0.0000      0.1031      0.0442
        63        -0.0000     -0.0000     -0.2152      0.0463      0.0201
        64         0.0000      0.0000     -0.3336      0.1113      0.0490
        65         0.4334     -0.0000      0.0000      0.1878      0.0828
        66        -0.0000      0.0000     -0.0000      0.0000      0.0000
        67        -0.0000     -0.3763     -0.0000      0.1416      0.0626
        68        -0.0000      0.0000      0.1145      0.0131      0.0058
        69        -0.2309      0.0000      0.0000      0.0533      0.0241
        70         0.0000      0.1470      0.0000      0.0216      0.0098
        71        -0.0000     -0.0000      0.0000      0.0000      0.0000
        72        -0.0000      0.0000     -0.0000      0.0000      0.0000
        73        -0.0000     -0.0000     -0.0000      0.0000      0.0000
        74        -0.0000     -0.0000     -0.2023      0.0409      0.0187
        75         0.1402      0.0000     -0.0000      0.0197      0.0090
        76        -0.0000      0.0000     -0.0000      0.0000      0.0000
        77        -0.0000     -0.0000     -0.3322      0.1103      0.0510
        78         0.1268      0.0000     -0.0000      0.0161      0.0074
        79         0.0000      0.4135     -0.0000      0.1710      0.0790
        80         0.3311      0.0000      0.0000      0.1096      0.0509
        81         0.0000      0.0000     -0.0000      0.0000      0.0000
        82         0.0000     -0.0000     -0.3904      0.1524      0.0708
        83        -0.0000     -0.1670      0.0000      0.0279      0.0130
        84        -0.0000      0.2965     -0.0000      0.0879      0.0409
        85         0.0000     -0.0000      0.0094      0.0001      0.0000
        86         0.1514     -0.0000      0.0000      0.0229      0.0107
        87        -0.0000     -0.0000     -0.0262      0.0007      0.0003
        88         0.0000     -0.0000      0.3766      0.1418      0.0669
        89        -0.0000     -0.2666     -0.0000      0.0711      0.0336
        90         0.0000      0.0000      0.2779      0.0772      0.0366
        91         0.0000      0.0000     -0.2194      0.0481      0.0229
        92         0.1619     -0.0000      0.0000      0.0262      0.0125
        93        -0.0000     -0.1372     -0.0000      0.0188      0.0090
        94        -0.0000     -0.0000      0.0000      0.0000      0.0000
        95        -0.2534     -0.0000     -0.0000      0.0642      0.0308
        96         0.0000     -0.0000      0.0000      0.0000      0.0000
        97        -0.0000     -0.0790      0.0000      0.0062      0.0030
        98         0.0000      0.0000     -0.0000      0.0000      0.0000
        99         0.0000      0.0000     -0.0000      0.0000      0.0000
       100        -0.0000      0.0000     -0.3215      0.1034      0.0507
       101         0.1507      0.0000     -0.0000      0.0227      0.0111
       102         0.2262     -0.0000     -0.0000      0.0512      0.0254
       103        -0.0000     -0.1042     -0.0000      0.0109      0.0054
       104        -0.0000     -0.0163     -0.0000      0.0003      0.0001
       105         0.0005     -0.0000      0.0000      0.0000      0.0000
       106        -0.0000     -0.0000      0.0000      0.0000      0.0000
       107         0.0000      0.0000      0.2371      0.0562      0.0285
       108        -0.1290      0.0000     -0.0000      0.0167      0.0085
       109         0.0000     -0.5532      0.0000      0.3060      0.1564
       110         0.0000     -0.0000      0.0000      0.0000      0.0000
       111        -0.0000      0.0000     -0.0104      0.0001      0.0001
       112         0.0000     -0.4155     -0.0000      0.1727      0.0899
       113         0.3058      0.0000     -0.0000      0.0935      0.0488
       114        -0.0000      0.1150     -0.0000      0.0132      0.0069
       115         0.0000      0.0000      0.2327      0.0541      0.0283
       116        -0.0770      0.0000      0.0000      0.0059      0.0031
       117         0.0000      0.0000     -0.5252      0.2759      0.1460
       118        -0.0000     -0.0000      0.0437      0.0019      0.0010
[...]
     13   0.000000D+00 -0.695483D+00  0.000000D+00  0.000000D+00  0.000000D+00
     14   0.000000D+00  0.000000D+00  0.181206D+00  0.000000D+00  0.000000D+00
     15   0.000000D+00  0.000000D+00  0.000000D+00  0.000000D+00 -0.271772D+00
     16  -0.429793D-01  0.000000D+00  0.000000D+00  0.228957D+01  0.000000D+00
               621           622           623           624           625 
      1  -0.234719D+03 -0.234713D+03 -0.234706D+03 -0.234701D+03 -0.234690D+03
      2   0.000000D+00  0.000000D+00  0.000000D+00  0.119189D-01  0.000000D+00
      3   0.193392D+00  0.000000D+00  0.000000D+00  0.000000D+00  0.234936D+00
      4   0.000000D+00  0.000000D+00 -0.594615D-01  0.000000D+00  0.000000D+00
      5   0.000000D+00  0.000000D+00  0.000000D+00 -0.388925D-01  0.000000D+00
      6  -0.648754D+00  0.000000D+00  0.000000D+00  0.000000D+00 -0.794672D+00
      7   0.000000D+00  0.000000D+00  0.209100D+00  0.000000D+00  0.000000D+00
      8  -0.215063D+00  0.000000D+00  0.000000D+00  0.000000D+00 -0.209464D+01
      9   0.000000D+00  0.000000D+00  0.000000D+00  0.420119D-01  0.000000D+00
     10   0.000000D+00  0.362084D+00  0.000000D+00  0.000000D+00  0.000000D+00
     11   0.000000D+00  0.000000D+00 -0.187455D-01  0.000000D+00  0.000000D+00
     12   0.000000D+00  0.000000D+00 -0.310909D+00  0.000000D+00  0.000000D+00
     13   0.000000D+00  0.000000D+00 -0.357913D+00  0.000000D+00  0.000000D+00
     14   0.000000D+00 -0.164882D+00  0.000000D+00  0.000000D+00  0.000000D+00
     15   0.000000D+00  0.000000D+00  0.000000D+00  0.518420D-01  0.000000D+00
     16   0.373786D+00  0.000000D+00  0.000000D+00  0.000000D+00 -0.133684D+01
               626           627           628           629           630 
      1  -0.234680D+03 -0.234676D+03 -0.234667D+03 -0.234663D+03 -0.234645D+03
      2  -0.132679D+00  0.166408D+00  0.000000D+00  0.000000D+00  0.000000D+00
      3   0.000000D+00  0.000000D+00  0.000000D+00  0.000000D+00  0.000000D+00
      4   0.000000D+00  0.000000D+00  0.000000D+00 -0.138129D+00  0.231154D+00
      5   0.427189D+00 -0.544631D+00  0.000000D+00  0.000000D+00  0.000000D+00
      6   0.000000D+00  0.000000D+00  0.000000D+00  0.000000D+00  0.000000D+00
      7   0.000000D+00  0.000000D+00  0.000000D+00  0.494376D+00 -0.766822D+00
      8   0.000000D+00  0.000000D+00  0.000000D+00  0.000000D+00  0.000000D+00
      9  -0.212822D+00  0.255972D+00  0.000000D+00  0.000000D+00  0.000000D+00
     10   0.000000D+00  0.000000D+00 -0.877339D+00  0.000000D+00  0.000000D+00
     11   0.000000D+00  0.000000D+00  0.000000D+00 -0.436958D-01  0.127182D+00
     12   0.000000D+00  0.000000D+00  0.000000D+00 -0.275676D+01 -0.258112D+01
     13   0.000000D+00  0.000000D+00  0.000000D+00 -0.667165D+00  0.683051D+00
     14   0.000000D+00  0.000000D+00  0.721203D+00  0.000000D+00  0.000000D+00
     15  -0.249918D+00  0.789931D-01  0.000000D+00  0.000000D+00  0.000000D+00
     16   0.000000D+00  0.000000D+00  0.000000D+00  0.000000D+00  0.000000D+00
               631           632           633           634           635 
      1  -0.234629D+03 -0.234628D+03 -0.234610D+03 -0.234601D+03 -0.234595D+03
      2   0.000000D+00 -0.209071D+00  0.000000D+00  0.000000D+00  0.000000D+00
      3   0.000000D+00  0.000000D+00  0.000000D+00 -0.588014D-02  0.621699D-02
      4  -0.246148D+00  0.000000D+00  0.000000D+00  0.000000D+00  0.000000D+00
      5   0.000000D+00  0.728170D+00  0.000000D+00  0.000000D+00  0.000000D+00
      6   0.000000D+00  0.000000D+00  0.000000D+00  0.184821D-01 -0.133444D-01
      7   0.840318D+00  0.000000D+00  0.000000D+00  0.000000D+00  0.000000D+00
      8   0.000000D+00  0.000000D+00  0.000000D+00  0.131938D+01 -0.926049D+00
      9   0.000000D+00 -0.452319D+00  0.000000D+00  0.000000D+00  0.000000D+00
     10   0.000000D+00  0.000000D+00 -0.149844D+01  0.000000D+00  0.000000D+00
     11   0.419238D-01  0.000000D+00  0.000000D+00  0.000000D+00  0.000000D+00
     12   0.408424D+01  0.000000D+00  0.000000D+00  0.000000D+00  0.000000D+00
     13  -0.877035D+00  0.000000D+00  0.000000D+00  0.000000D+00  0.000000D+00
     14   0.000000D+00  0.000000D+00  0.166301D+01  0.000000D+00  0.000000D+00
     15   0.000000D+00 -0.321145D+00  0.000000D+00  0.000000D+00  0.000000D+00
     16   0.000000D+00  0.000000D+00  0.000000D+00  0.147061D+01 -0.118268D+01
               636           637           638           639           640 
      1  -0.234593D+03 -0.234590D+03 -0.234582D+03 -0.234570D+03 -0.234556D+03
      2   0.000000D+00  0.000000D+00  0.000000D+00  0.000000D+00  0.000000D+00
      3   0.000000D+00  0.000000D+00 -0.269174D+00 -0.202336D+00  0.000000D+00
      4   0.000000D+00  0.000000D+00  0.000000D+00  0.000000D+00  0.411306D+00
      5   0.000000D+00  0.000000D+00  0.000000D+00  0.000000D+00  0.000000D+00
      6   0.000000D+00  0.000000D+00  0.966430D+00  0.700702D+00  0.000000D+00
      7   0.000000D+00  0.000000D+00  0.000000D+00  0.000000D+00 -0.145924D+01
      8   0.000000D+00  0.000000D+00  0.717443D+00  0.153559D+01  0.000000D+00
      9   0.000000D+00  0.000000D+00  0.000000D+00  0.000000D+00  0.000000D+00
     10   0.218144D+01 -0.169839D+01  0.000000D+00  0.000000D+00  0.000000D+00
     11   0.000000D+00  0.000000D+00  0.000000D+00  0.000000D+00  0.759460D-01
     12   0.000000D+00  0.000000D+00  0.000000D+00  0.000000D+00  0.105724D+01
     13   0.000000D+00  0.000000D+00  0.000000D+00  0.000000D+00  0.180592D+01
     14  -0.243860D+01  0.169366D+01  0.000000D+00  0.000000D+00  0.000000D+00
     15   0.000000D+00  0.000000D+00  0.000000D+00  0.000000D+00  0.000000D+00
     16   0.000000D+00  0.000000D+00 -0.478680D+00  0.784502D+00  0.000000D+00
               641           642           643           644           645 
      1  -0.234550D+03 -0.234543D+03 -0.234542D+03 -0.234538D+03 -0.234534D+03
      2   0.117192D+00  0.000000D+00  0.000000D+00  0.000000D+00  0.000000D+00
      3   0.000000D+00  0.000000D+00  0.000000D+00  0.000000D+00 -0.235895D+00
      4   0.000000D+00  0.208143D-01  0.000000D+00  0.123589D+00  0.000000D+00
      5  -0.375409D+00  0.000000D+00  0.000000D+00  0.000000D+00  0.000000D+00
      6   0.000000D+00  0.000000D+00  0.000000D+00  0.000000D+00  0.866160D+00
      7   0.000000D+00 -0.617642D-01  0.000000D+00 -0.430699D+00  0.000000D+00
      8   0.000000D+00  0.000000D+00  0.000000D+00  0.000000D+00 -0.379438D+00
      9   0.133542D+00  0.000000D+00  0.000000D+00  0.000000D+00  0.000000D+00
     10   0.000000D+00  0.000000D+00 -0.222448D+01  0.000000D+00  0.000000D+00
     11   0.000000D+00 -0.299270D+00  0.000000D+00  0.523372D-01  0.000000D+00
     12   0.000000D+00 -0.265590D+00  0.000000D+00  0.579564D+00  0.000000D+00
     13   0.000000D+00  0.332210D+00  0.000000D+00  0.134113D+00  0.000000D+00
     14   0.000000D+00  0.000000D+00  0.232012D+01  0.000000D+00  0.000000D+00
     15   0.415523D+00  0.000000D+00  0.000000D+00  0.000000D+00  0.000000D+00
     16   0.000000D+00  0.000000D+00  0.000000D+00  0.000000D+00 -0.127310D+01
               646           647           648           649           650 
      1  -0.234532D+03 -0.234491D+03 -0.234472D+03 -0.234471D+03 -0.234469D+03
      2   0.245699D+00 -0.389324D-02  0.715675D-02  0.000000D+00  0.000000D+00
      3   0.000000D+00  0.000000D+00  0.000000D+00  0.000000D+00 -0.744479D-01
      4   0.000000D+00  0.000000D+00  0.000000D+00  0.000000D+00  0.000000D+00
      5  -0.858765D+00  0.323960D-01 -0.449940D-01  0.000000D+00  0.000000D+00
      6   0.000000D+00  0.000000D+00  0.000000D+00  0.000000D+00  0.266289D+00
      7   0.000000D+00  0.000000D+00  0.000000D+00  0.000000D+00  0.000000D+00
      8   0.000000D+00  0.000000D+00  0.000000D+00  0.000000D+00  0.978357D+00
      9   0.599669D+00 -0.173555D-01  0.287752D-02  0.000000D+00  0.000000D+00
     10   0.000000D+00  0.000000D+00  0.000000D+00  0.153861D+00  0.000000D+00
     11   0.000000D+00  0.000000D+00  0.000000D+00  0.000000D+00  0.000000D+00
     12   0.000000D+00  0.000000D+00  0.000000D+00  0.000000D+00  0.000000D+00
     13   0.000000D+00  0.000000D+00  0.000000D+00  0.000000D+00  0.000000D+00
     14   0.000000D+00  0.000000D+00  0.000000D+00  0.866762D-01  0.000000D+00
     15   0.706765D+00 -0.387044D-01 -0.625306D-01  0.000000D+00  0.000000D+00
     16   0.000000D+00  0.000000D+00  0.000000D+00  0.000000D+00  0.564284D+00
               651           652           653           654           655 
      1  -0.234465D+03 -0.234422D+03 -0.234411D+03 -0.234408D+03 -0.234374D+03
      2   0.000000D+00 -0.444210D+00  0.269826D+00  0.000000D+00  0.000000D+00
      3   0.000000D+00  0.000000D+00  0.000000D+00  0.000000D+00  0.000000D+00
      4   0.334362D-01  0.000000D+00  0.000000D+00  0.000000D+00 -0.158765D+00
      5   0.000000D+00  0.163087D+01 -0.962653D+00  0.000000D+00  0.000000D+00
      6   0.000000D+00  0.000000D+00  0.000000D+00  0.000000D+00  0.000000D+00
      7  -0.117855D+00  0.000000D+00  0.000000D+00  0.000000D+00  0.556484D+00
      8   0.000000D+00  0.000000D+00  0.000000D+00  0.000000D+00  0.000000D+00
      9   0.000000D+00 -0.831846D+00  0.253249D+00  0.000000D+00  0.000000D+00
     10   0.000000D+00  0.000000D+00  0.000000D+00 -0.106670D+01  0.000000D+00
     11  -0.930447D-01  0.000000D+00  0.000000D+00  0.000000D+00 -0.409556D-01
     12  -0.211989D+01  0.000000D+00  0.000000D+00  0.000000D+00  0.553011D+01
     13   0.509719D+00  0.000000D+00  0.000000D+00  0.000000D+00 -0.796278D+00
     14   0.000000D+00  0.000000D+00  0.000000D+00  0.983590D+00  0.000000D+00
     15   0.000000D+00 -0.102721D+01  0.520231D+00  0.000000D+00  0.000000D+00
     16   0.000000D+00  0.000000D+00  0.000000D+00  0.000000D+00  0.000000D+00
               656           657           658           659           660 
      1  -0.234367D+03 -0.234347D+03 -0.234336D+03 -0.234309D+03 -0.234272D+03
      2   0.000000D+00  0.000000D+00  0.000000D+00  0.000000D+00  0.394104D+00
      3  -0.185212D+00  0.000000D+00  0.000000D+00  0.000000D+00  0.000000D+00
      4   0.000000D+00  0.000000D+00  0.000000D+00  0.503176D-02  0.000000D+00
      5   0.000000D+00  0.000000D+00  0.000000D+00  0.000000D+00 -0.149566D+01
      6   0.673127D+00  0.000000D+00  0.000000D+00  0.000000D+00  0.000000D+00
      7   0.000000D+00  0.000000D+00  0.000000D+00 -0.676557D-01  0.000000D+00
      8   0.389878D+01  0.000000D+00  0.000000D+00  0.000000D+00  0.000000D+00
      9   0.000000D+00  0.000000D+00  0.000000D+00  0.000000D+00  0.874324D+00
     10   0.000000D+00 -0.135817D+01  0.378882D+01  0.000000D+00  0.000000D+00
     11   0.000000D+00  0.000000D+00  0.000000D+00 -0.581057D-01  0.000000D+00
     12   0.000000D+00  0.000000D+00  0.000000D+00  0.306524D+01  0.000000D+00
     13   0.000000D+00  0.000000D+00  0.000000D+00 -0.621198D-02  0.000000D+00
     14   0.000000D+00  0.155375D+01 -0.415755D+01  0.000000D+00  0.000000D+00
     15   0.000000D+00  0.000000D+00  0.000000D+00  0.000000D+00  0.109148D+01
     16   0.326014D+01  0.000000D+00  0.000000D+00  0.000000D+00  0.000000D+00
               661           662           663           664           665 
      1  -0.234261D+03 -0.234258D+03 -0.234249D+03 -0.234247D+03 -0.234225D+03
      2   0.000000D+00  0.000000D+00 -0.478127D-01  0.000000D+00  0.000000D+00
      3   0.249799D+00  0.000000D+00  0.000000D+00  0.000000D+00  0.394426D+00
      4   0.000000D+00  0.277292D+00  0.000000D+00  0.337448D+00  0.000000D+00
      5   0.000000D+00  0.000000D+00  0.180103D+00  0.000000D+00  0.000000D+00
      6  -0.949225D+00  0.000000D+00  0.000000D+00  0.000000D+00 -0.158130D+01
      7   0.000000D+00 -0.107555D+01  0.000000D+00 -0.130598D+01  0.000000D+00
      8  -0.166356D+01  0.000000D+00  0.000000D+00  0.000000D+00  0.325263D+00
      9   0.000000D+00  0.000000D+00  0.367753D-01  0.000000D+00  0.000000D+00
     10   0.000000D+00  0.000000D+00  0.000000D+00  0.000000D+00  0.000000D+00
     11   0.000000D+00 -0.509038D-01  0.000000D+00 -0.787797D-01  0.000000D+00
     12   0.000000D+00 -0.276699D+01  0.000000D+00 -0.238636D+00  0.000000D+00
     13   0.000000D+00  0.140612D+01  0.000000D+00  0.184372D+01  0.000000D+00
     14   0.000000D+00  0.000000D+00  0.000000D+00  0.000000D+00  0.000000D+00
     15   0.000000D+00  0.000000D+00  0.905741D-01  0.000000D+00  0.000000D+00
     16  -0.102513D+01  0.000000D+00  0.000000D+00  0.000000D+00  0.208400D+01
               666           667           668           669           670 
      1  -0.234148D+03 -0.234132D+03 -0.234127D+03 -0.234113D+03 -0.234113D+03
      2   0.000000D+00  0.000000D+00  0.000000D+00  0.000000D+00  0.304241D-02
      3   0.000000D+00  0.179038D+00  0.000000D+00  0.000000D+00  0.000000D+00
      4   0.000000D+00  0.000000D+00 -0.616242D-01  0.154136D+00  0.000000D+00
      5   0.000000D+00  0.000000D+00  0.000000D+00  0.000000D+00 -0.150617D-01
      6   0.000000D+00 -0.756404D+00  0.000000D+00  0.000000D+00  0.000000D+00
      7   0.000000D+00  0.000000D+00  0.227306D+00 -0.602594D+00  0.000000D+00
      8   0.000000D+00  0.189600D+01  0.000000D+00  0.000000D+00  0.000000D+00
      9   0.000000D+00  0.000000D+00  0.000000D+00  0.000000D+00  0.188294D-01
     10  -0.108616D+01  0.000000D+00  0.000000D+00  0.000000D+00  0.000000D+00
     11   0.000000D+00  0.000000D+00  0.458844D+00 -0.108939D+00  0.000000D+00
     12   0.000000D+00  0.000000D+00  0.311769D+00  0.373938D+01  0.000000D+00
     13   0.000000D+00  0.000000D+00 -0.438451D-01  0.174504D+00  0.000000D+00
     14   0.132699D+01  0.000000D+00  0.000000D+00  0.000000D+00  0.000000D+00
     15   0.000000D+00  0.000000D+00  0.000000D+00  0.000000D+00  0.719077D+00
     16   0.000000D+00  0.253262D+01  0.000000D+00  0.000000D+00  0.000000D+00
               671           672           673           674           675 
      1  -0.234096D+03 -0.234089D+03 -0.234082D+03 -0.234079D+03 -0.234062D+03
      2   0.000000D+00  0.000000D+00  0.000000D+00  0.000000D+00  0.000000D+00
      3   0.000000D+00  0.000000D+00  0.000000D+00 -0.135351D-01 -0.642417D-01
      4  -0.744668D-01 -0.164705D+00  0.000000D+00  0.000000D+00  0.000000D+00
      5   0.000000D+00  0.000000D+00  0.000000D+00  0.000000D+00  0.000000D+00
      6   0.000000D+00  0.000000D+00  0.000000D+00  0.460081D-01  0.242837D+00
      7   0.285101D+00  0.763247D+00  0.000000D+00  0.000000D+00  0.000000D+00
      8   0.000000D+00  0.000000D+00  0.000000D+00  0.228744D+00  0.664370D+00
      9   0.000000D+00  0.000000D+00  0.000000D+00  0.000000D+00  0.000000D+00
     10   0.000000D+00  0.000000D+00  0.139260D+00  0.000000D+00  0.000000D+00
     11  -0.817467D+00  0.232196D+00  0.000000D+00  0.000000D+00  0.000000D+00
     12  -0.169597D+00 -0.597000D+01  0.000000D+00  0.000000D+00  0.000000D+00
     13   0.619950D+00 -0.118698D+01  0.000000D+00  0.000000D+00  0.000000D+00
     14   0.000000D+00  0.000000D+00 -0.689934D+00  0.000000D+00  0.000000D+00
     15   0.000000D+00  0.000000D+00  0.000000D+00  0.000000D+00  0.000000D+00
     16   0.000000D+00  0.000000D+00  0.000000D+00 -0.306343D+00  0.480000D+00
               676           677           678           679           680 
      1  -0.234034D+03 -0.234017D+03 -0.234006D+03 -0.234003D+03 -0.233992D+03
      2   0.000000D+00  0.000000D+00  0.000000D+00  0.544932D-01  0.000000D+00
      3   0.000000D+00 -0.412230D-02  0.000000D+00  0.000000D+00  0.000000D+00
      4   0.000000D+00  0.000000D+00  0.000000D+00  0.000000D+00 -0.110121D-01
      5   0.000000D+00  0.000000D+00  0.000000D+00 -0.203226D+00  0.000000D+00
      6   0.000000D+00  0.898749D-02  0.000000D+00  0.000000D+00  0.000000D+00
      7   0.000000D+00  0.000000D+00  0.000000D+00  0.000000D+00  0.449759D-01
      8   0.000000D+00  0.899653D-01  0.000000D+00  0.000000D+00  0.000000D+00
      9   0.000000D+00  0.000000D+00  0.000000D+00  0.536500D-01  0.000000D+00
     10   0.506277D+00  0.000000D+00  0.444173D+00  0.000000D+00  0.000000D+00
     11   0.000000D+00  0.000000D+00  0.000000D+00  0.000000D+00  0.505247D+00
     12   0.000000D+00  0.000000D+00  0.000000D+00  0.000000D+00 -0.262063D+00
     13   0.000000D+00  0.000000D+00  0.000000D+00  0.000000D+00 -0.335428D+00
     14  -0.127082D+00  0.000000D+00  0.263276D-02  0.000000D+00  0.000000D+00
     15   0.000000D+00  0.000000D+00  0.000000D+00 -0.496897D+00  0.000000D+00
     16   0.000000D+00  0.103493D+00  0.000000D+00  0.000000D+00  0.000000D+00
               681           682           683           684           685 
      1  -0.233980D+03 -0.233956D+03 -0.233896D+03 -0.233844D+03 -0.233822D+03
      2   0.000000D+00  0.904386D-01  0.207148D-01  0.000000D+00  0.000000D+00
      3  -0.100197D+00  0.000000D+00  0.000000D+00  0.000000D+00 -0.224345D-01
      4   0.000000D+00  0.000000D+00  0.000000D+00  0.000000D+00  0.000000D+00
      5   0.000000D+00 -0.352362D+00 -0.935058D-01  0.000000D+00  0.000000D+00
      6   0.529764D+00  0.000000D+00  0.000000D+00  0.000000D+00  0.987900D-01
      7   0.000000D+00  0.000000D+00  0.000000D+00  0.000000D+00  0.000000D+00
      8  -0.483445D+00  0.000000D+00  0.000000D+00  0.000000D+00  0.435306D+00
      9   0.000000D+00  0.196475D+00  0.684251D-01  0.000000D+00  0.000000D+00
     10   0.000000D+00  0.000000D+00  0.000000D+00  0.482663D+00  0.000000D+00
     11   0.000000D+00  0.000000D+00  0.000000D+00  0.000000D+00  0.000000D+00
     12   0.000000D+00  0.000000D+00  0.000000D+00  0.000000D+00  0.000000D+00
     13   0.000000D+00  0.000000D+00  0.000000D+00  0.000000D+00  0.000000D+00
     14   0.000000D+00  0.000000D+00  0.000000D+00 -0.203461D+00  0.000000D+00
     15   0.000000D+00 -0.684456D-01 -0.153938D+00  0.000000D+00  0.000000D+00
     16  -0.199876D+01  0.000000D+00  0.000000D+00  0.000000D+00  0.117264D+00
               686           687           688           689           690 
      1  -0.233765D+03 -0.233627D+03 -0.233573D+03 -0.233498D+03 -0.233446D+03
      2   0.000000D+00  0.000000D+00  0.000000D+00  0.000000D+00  0.000000D+00
      3   0.000000D+00  0.424721D-01  0.000000D+00  0.000000D+00 -0.162116D-02
      4  -0.482011D-01  0.000000D+00 -0.152254D-01  0.191666D-01  0.000000D+00
      5   0.000000D+00  0.000000D+00  0.000000D+00  0.000000D+00  0.000000D+00
      6   0.000000D+00 -0.243080D+00  0.000000D+00  0.000000D+00  0.916703D-01
      7   0.198362D+00  0.000000D+00  0.141374D+00 -0.979772D-01  0.000000D+00
      8   0.000000D+00  0.200107D+00  0.000000D+00  0.000000D+00 -0.118281D+00
      9   0.000000D+00  0.000000D+00  0.000000D+00  0.000000D+00  0.000000D+00
     10   0.000000D+00  0.000000D+00  0.000000D+00  0.000000D+00  0.000000D+00
     11   0.474925D-01  0.000000D+00 -0.233727D+00  0.135692D+00  0.000000D+00
     12   0.381882D+00  0.000000D+00 -0.794774D+00  0.121655D+00  0.000000D+00
     13   0.120240D+00  0.000000D+00 -0.244857D+00 -0.103695D+00  0.000000D+00
     14   0.000000D+00  0.000000D+00  0.000000D+00  0.000000D+00  0.000000D+00
     15   0.000000D+00  0.000000D+00  0.000000D+00  0.000000D+00  0.000000D+00
     16   0.000000D+00  0.830815D-03  0.000000D+00  0.000000D+00 -0.123246D+00
 Unable to Open any file for archive entry.
 1\1\GINC-HEL13\SP\RPBE1PBE TD-FC\Gen\C1H2F2\SABYASACHI\21-Mar-2022\0\\
 #P TD(Nstates=10000) pbe1pbe/Gen SCF(maxcycles=100) Int(Grid=ultrafine
 )\\xGDB7_00001_tier4.com\\0,1\F,0,0.,1.098813,-0.28912\C,0,0.,0.,0.499
 944\F,0,0.,-1.098813,-0.28912\H,0,-0.911346,0.,1.102246\H,0,0.911346,0
 .,1.102246\\Version=EM64L-G16RevC.01\State=1-A1\HF=-238.5837594\RMSD=3
 .399e-09\PG=C02V [C2(C1),SGV(F2),SGV'(H2)]\\@
 The archive entry for this job was punched.


 THE MORE POWERFUL THE METHOD, THE MORE CATASTROPHIC THE ERRORS.
     -- M.D. KAMEN
 Job cpu time:       0 days  0 hours  2 minutes  9.8 seconds.
 Elapsed time:       0 days  0 hours  0 minutes 16.5 seconds.
 File lengths (MBytes):  RWF=    605 Int=      0 D2E=      0 Chk=    119 Scr=      1
 Normal termination of Gaussian 16 at Mon Mar 21 04:15:28 2022.
