 Entering Gaussian System, Link 0=g16
 Input=000014.com
 Output=000014.log
 Initial command:
 /home/sabyasachi/g16/l1.exe "/scratch/sabyasachi/PBS_7976478.helios/Gau-159062.inp" -scrdir="/scratch/sabyasachi/PBS_7976478.helios/"
 Entering Link 1 = /home/sabyasachi/g16/l1.exe PID=    159063.
  
 Copyright (c) 1988-2019, Gaussian, Inc.  All Rights Reserved.
  
 This is part of the Gaussian(R) 16 program.  It is based on
 the Gaussian(R) 09 system (copyright 2009, Gaussian, Inc.),
 the Gaussian(R) 03 system (copyright 2003, Gaussian, Inc.),
 the Gaussian(R) 98 system (copyright 1998, Gaussian, Inc.),
 the Gaussian(R) 94 system (copyright 1995, Gaussian, Inc.),
 the Gaussian 92(TM) system (copyright 1992, Gaussian, Inc.),
 the Gaussian 90(TM) system (copyright 1990, Gaussian, Inc.),
 the Gaussian 88(TM) system (copyright 1988, Gaussian, Inc.),
 the Gaussian 86(TM) system (copyright 1986, Carnegie Mellon
 University), and the Gaussian 82(TM) system (copyright 1983,
 Carnegie Mellon University). Gaussian is a federally registered
 trademark of Gaussian, Inc.
  
 This software contains proprietary and confidential information,
 including trade secrets, belonging to Gaussian, Inc.
  
 This software is provided under written license and may be
 used, copied, transmitted, or stored only in accord with that
 written license.
  
 The following legend is applicable only to US Government
 contracts under FAR:
  
                    RESTRICTED RIGHTS LEGEND
  
 Use, reproduction and disclosure by the US Government is
 subject to restrictions as set forth in subparagraphs (a)
 and (c) of the Commercial Computer Software - Restricted
 Rights clause in FAR 52.227-19.
  
 Gaussian, Inc.
 340 Quinnipiac St., Bldg. 40, Wallingford CT 06492
  
  
 ---------------------------------------------------------------
 Warning -- This program may not be used in any manner that
 competes with the business of Gaussian, Inc. or will provide
 assistance to any competitor of Gaussian, Inc.  The licensee
 of this program is prohibited from giving any competitor of
 Gaussian, Inc. access to this program.  By using this program,
 the user acknowledges that Gaussian, Inc. is engaged in the
 business of creating and licensing software in the field of
 computational chemistry and represents and warrants to the
 licensee that it is not a competitor of Gaussian, Inc. and that
 it will not use this program in any manner prohibited above.
 ---------------------------------------------------------------
  

 Cite this work as:
 Gaussian 16, Revision C.01,
 M. J. Frisch, G. W. Trucks, H. B. Schlegel, G. E. Scuseria, 
 M. A. Robb, J. R. Cheeseman, G. Scalmani, V. Barone, 
 G. A. Petersson, H. Nakatsuji, X. Li, M. Caricato, A. V. Marenich, 
 J. Bloino, B. G. Janesko, R. Gomperts, B. Mennucci, H. P. Hratchian, 
 J. V. Ortiz, A. F. Izmaylov, J. L. Sonnenberg, D. Williams-Young, 
 F. Ding, F. Lipparini, F. Egidi, J. Goings, B. Peng, A. Petrone, 
 T. Henderson, D. Ranasinghe, V. G. Zakrzewski, J. Gao, N. Rega, 
 G. Zheng, W. Liang, M. Hada, M. Ehara, K. Toyota, R. Fukuda, 
 J. Hasegawa, M. Ishida, T. Nakajima, Y. Honda, O. Kitao, H. Nakai, 
 T. Vreven, K. Throssell, J. A. Montgomery, Jr., J. E. Peralta, 
 F. Ogliaro, M. J. Bearpark, J. J. Heyd, E. N. Brothers, K. N. Kudin, 
 V. N. Staroverov, T. A. Keith, R. Kobayashi, J. Normand, 
 K. Raghavachari, A. P. Rendell, J. C. Burant, S. S. Iyengar, 
 J. Tomasi, M. Cossi, J. M. Millam, M. Klene, C. Adamo, R. Cammi, 
 J. W. Ochterski, R. L. Martin, K. Morokuma, O. Farkas, 
 J. B. Foresman, and D. J. Fox, Gaussian, Inc., Wallingford CT, 2019.
 
 ******************************************
 Gaussian 16:  EM64L-G16RevC.01  3-Jul-2019
                21-Mar-2022 
 ******************************************
 %mem=64gb
 %nproc=8
 Will use up to    8 processors via shared memory.
 ----------------------------------------------------------------------
 #P TD(Nstates=10000) pbe1pbe/Gen SCF(maxcycles=100) Int(Grid=ultrafine
 )
 ----------------------------------------------------------------------
 1/38=1,172=1/1;
 2/12=2,17=6,18=5,40=1/2;
 3/5=7,11=9,25=1,30=1,74=-13,75=-5/1,2,3,8;
 4//1;
 5/5=2,7=100,38=5/2;
 8/6=1,10=1,108=10000/1;
 9/41=10000,42=1,70=2/14;
 6/7=2,8=2,9=2,10=2/1;
 99/5=1,9=1/99;
 Leave Link    1 at Mon Mar 21 20:24:09 2022, MaxMem=  8589934592 cpu:               0.3 elap:               0.0
 (Enter /home/sabyasachi/g16/l101.exe)
 ---------------------
 xGDB7_00001_tier4.com
 ---------------------
 Symbolic Z-matrix:
 Charge =  0 Multiplicity = 1
 6                     0.        1.26773  -0.25908 
 6                     0.        0.        0.58555 
 6                     0.       -1.26773  -0.25908 
 1                     0.        2.16431   0.36309 
 1                    -0.88145   1.30768  -0.90365 
 1                     0.88145   1.30768  -0.90365 
 1                    -0.87453   0.        1.24206 
 1                     0.87453   0.        1.24206 
 1                    -0.88145  -1.30768  -0.90365 
 1                     0.       -2.16431   0.36309 
 1                     0.88145  -1.30768  -0.90365 
 
 ITRead=  0  0  0  0  0  0  0  0  0  0  0
 MicOpt= -1 -1 -1 -1 -1 -1 -1 -1 -1 -1 -1
 NAtoms=     11 NQM=       11 NQMF=       0 NMMI=      0 NMMIF=      0
                NMic=       0 NMicF=      0.
                    Isotopes and Nuclear Properties:
 (Nuclear quadrupole moments (NQMom) in fm**2, nuclear magnetic moments (NMagM)
  in nuclear magnetons)

  Atom         1           2           3           4           5           6           7           8           9          10
 IAtWgt=          12          12          12           1           1           1           1           1           1           1
 AtmWgt=  12.0000000  12.0000000  12.0000000   1.0078250   1.0078250   1.0078250   1.0078250   1.0078250   1.0078250   1.0078250
 NucSpn=           0           0           0           1           1           1           1           1           1           1
 AtZEff=  -0.0000000  -0.0000000  -0.0000000  -0.0000000  -0.0000000  -0.0000000  -0.0000000  -0.0000000  -0.0000000  -0.0000000
 NQMom=    0.0000000   0.0000000   0.0000000   0.0000000   0.0000000   0.0000000   0.0000000   0.0000000   0.0000000   0.0000000
 NMagM=    0.0000000   0.0000000   0.0000000   2.7928460   2.7928460   2.7928460   2.7928460   2.7928460   2.7928460   2.7928460
 AtZNuc=   6.0000000   6.0000000   6.0000000   1.0000000   1.0000000   1.0000000   1.0000000   1.0000000   1.0000000   1.0000000

  Atom        11
 IAtWgt=           1
 AtmWgt=   1.0078250
 NucSpn=           1
 AtZEff=  -0.0000000
 NQMom=    0.0000000
 NMagM=    2.7928460
 AtZNuc=   1.0000000
 Leave Link  101 at Mon Mar 21 20:24:09 2022, MaxMem=  8589934592 cpu:               0.6 elap:               0.1
 (Enter /home/sabyasachi/g16/l202.exe)
                          Input orientation:                          
 ---------------------------------------------------------------------
 Center     Atomic      Atomic             Coordinates (Angstroms)
 Number     Number       Type             X           Y           Z
 ---------------------------------------------------------------------
      1          6           0        0.000000    1.267731   -0.259082
      2          6           0        0.000000    0.000000    0.585552
      3          6           0        0.000000   -1.267731   -0.259082
      4          1           0        0.000000    2.164308    0.363087
      5          1           0       -0.881453    1.307675   -0.903652
      6          1           0        0.881453    1.307675   -0.903652
      7          1           0       -0.874532    0.000000    1.242055
      8          1           0        0.874532    0.000000    1.242055
      9          1           0       -0.881453   -1.307675   -0.903652
     10          1           0        0.000000   -2.164308    0.363087
     11          1           0        0.881453   -1.307675   -0.903652
 ---------------------------------------------------------------------
                    Distance matrix (angstroms):
                    1          2          3          4          5
     1  C    0.000000
     2  C    1.523335   0.000000
     3  C    2.535462   1.523335   0.000000
     4  H    1.091304   2.175711   3.487977   0.000000
     5  H    1.092715   2.169032   2.797346   1.765052   0.000000
     6  H    1.092715   2.169032   2.797346   1.765052   1.762906
     7  H    2.150665   1.093528   2.150665   2.494318   2.512791
     8  H    2.150665   1.093528   2.150665   2.494318   3.065543
     9  H    2.797346   2.169032   1.092715   3.799507   2.615350
    10  H    3.487977   2.175711   1.091304   4.328616   3.799507
    11  H    2.797346   2.169032   1.092715   3.799507   3.154028
                    6          7          8          9         10
     6  H    0.000000
     7  H    3.065543   0.000000
     8  H    2.512791   1.749064   0.000000
     9  H    3.154028   2.512791   3.065543   0.000000
    10  H    3.799507   2.494318   2.494318   1.765052   0.000000
    11  H    2.615350   3.065543   2.512791   1.762906   1.765052
                   11
    11  H    0.000000
 Stoichiometry    C3H8
 Framework group  C2V[C2(C),SGV(C2H2),SGV'(H2),X(H4)]
 Deg. of freedom     9
 Full point group                 C2V     NOp   4
 Largest Abelian subgroup         C2V     NOp   4
 Largest concise Abelian subgroup C2V     NOp   4
                         Standard orientation:                         
 ---------------------------------------------------------------------
 Center     Atomic      Atomic             Coordinates (Angstroms)
 Number     Number       Type             X           Y           Z
 ---------------------------------------------------------------------
      1          6           0        0.000000    1.267731   -0.259082
      2          6           0       -0.000000   -0.000000    0.585552
      3          6           0       -0.000000   -1.267731   -0.259082
      4          1           0        0.000000    2.164308    0.363087
      5          1           0       -0.881453    1.307675   -0.903652
      6          1           0        0.881453    1.307675   -0.903652
      7          1           0       -0.874532    0.000000    1.242055
      8          1           0        0.874532   -0.000000    1.242055
      9          1           0       -0.881453   -1.307675   -0.903652
     10          1           0       -0.000000   -2.164308    0.363087
     11          1           0        0.881453   -1.307675   -0.903652
 ---------------------------------------------------------------------
 Rotational constants (GHZ):          29.6189661           8.4822903           7.5098267
 Leave Link  202 at Mon Mar 21 20:24:09 2022, MaxMem=  8589934592 cpu:               0.1 elap:               0.0
 (Enter /home/sabyasachi/g16/l301.exe)
 General basis read from cards:  (5D, 7F)
 Centers:       4      5      6      7      8      9     10     11
 S 3 1.00
     Exponent=  1.3010701000D+01 Coefficients=  1.9682158000D-02
     Exponent=  1.9622572000D+00 Coefficients=  1.3796524000D-01
     Exponent=  4.4453796000D-01 Coefficients=  4.7831935000D-01
 S 1 1.00
     Exponent=  1.2194962000D-01 Coefficients=  1.0000000000D+00
 P 1 1.00
     Exponent=  8.0000000000D-01 Coefficients=  1.0000000000D+00
 P 1 1.00
     Exponent=  1.1704099050D-01 Coefficients=  1.0000000000D+00
 ****
 Centers:       1      2      3
 S 5 1.00
     Exponent=  1.2384016938D+03 Coefficients=  5.4568832082D-03
     Exponent=  1.8629004992D+02 Coefficients=  4.0638409211D-02
     Exponent=  4.2251176346D+01 Coefficients=  1.8025593888D-01
     Exponent=  1.1676557932D+01 Coefficients=  4.6315121755D-01
     Exponent=  3.5930506482D+00 Coefficients=  4.4087173314D-01
 S 1 1.00
     Exponent=  4.0245147363D-01 Coefficients=  1.0000000000D+00
 S 1 1.00
     Exponent=  1.3090182668D-01 Coefficients=  1.0000000000D+00
 S 1 1.00
     Exponent=  6.7053540256D-02 Coefficients=  1.0000000000D+00
 P 3 1.00
     Exponent=  9.4680970621D+00 Coefficients=  3.8387871728D-02
     Exponent=  2.0103545142D+00 Coefficients=  2.1117025112D-01
     Exponent=  5.4771004707D-01 Coefficients=  5.1328172114D-01
 P 1 1.00
     Exponent=  1.5268613795D-01 Coefficients=  1.0000000000D+00
 D 1 1.00
     Exponent=  8.0000000000D-01 Coefficients=  1.0000000000D+00
 D 1 1.00
     Exponent=  1.1713185140D-01 Coefficients=  1.0000000000D+00
 ****
 Ernie: Thresh=  0.10000D-02 Tol=  0.10000D-05 Strict=F.
 There are    48 symmetry adapted cartesian basis functions of A1  symmetry.
 There are    20 symmetry adapted cartesian basis functions of A2  symmetry.
 There are    26 symmetry adapted cartesian basis functions of B1  symmetry.
 There are    36 symmetry adapted cartesian basis functions of B2  symmetry.
 There are    44 symmetry adapted basis functions of A1  symmetry.
 There are    20 symmetry adapted basis functions of A2  symmetry.
 There are    26 symmetry adapted basis functions of B1  symmetry.
 There are    34 symmetry adapted basis functions of B2  symmetry.
   124 basis functions,   176 primitive gaussians,   130 cartesian basis functions
    13 alpha electrons       13 beta electrons
       nuclear repulsion energy        82.7165400226 Hartrees.
 IExCor= 1009 DFT=T Ex+Corr=PBE1PBE ExCW=0 ScaHFX=  0.250000
 ScaDFX=  0.750000  0.750000  1.000000  1.000000 ScalE2=  1.000000  1.000000
 IRadAn=      5 IRanWt=     -1 IRanGd=            0 ICorTp=0 IEmpDi=  4
 NAtoms=   11 NActive=   11 NUniq=    5 SFac= 4.00D+00 NAtFMM=   60 NAOKFM=F Big=F
 Integral buffers will be    131072 words long.
 Regular integral format.
 Two-electron integral symmetry is turned on.
 Leave Link  301 at Mon Mar 21 20:24:10 2022, MaxMem=  8589934592 cpu:               0.4 elap:               0.1
 (Enter /home/sabyasachi/g16/l302.exe)
 NPDir=0 NMtPBC=     1 NCelOv=     1 NCel=       1 NClECP=     1 NCelD=      1
         NCelK=      1 NCelE2=     1 NClLst=     1 CellRange=     0.0.
 One-electron integrals computed using PRISM.
 One-electron integral symmetry used in STVInt
 NBasis=   124 RedAO= T EigKep=  2.54D-04  NBF=    44    20    26    34
 NBsUse=   124 1.00D-06 EigRej= -1.00D+00 NBFU=    44    20    26    34
 Precomputing XC quadrature grid using
 IXCGrd= 4 IRadAn=           5 IRanWt=          -1 IRanGd=           0 AccXCQ= 0.00D+00.
 Generated NRdTot=       0 NPtTot=           0 NUsed=           0 NTot=          32
 NSgBfM=   130   130   130   130   130 MxSgAt=    11 MxSgA2=    11.
 Leave Link  302 at Mon Mar 21 20:24:10 2022, MaxMem=  8589934592 cpu:               1.2 elap:               0.2
 (Enter /home/sabyasachi/g16/l303.exe)
 DipDrv:  MaxL=1.
 Leave Link  303 at Mon Mar 21 20:24:10 2022, MaxMem=  8589934592 cpu:               0.2 elap:               0.0
 (Enter /home/sabyasachi/g16/l308.exe)
 Leave Link  308 at Mon Mar 21 20:24:10 2022, MaxMem=  8589934592 cpu:               0.2 elap:               0.1
 (Enter /home/sabyasachi/g16/l401.exe)
 ExpMin= 6.71D-02 ExpMax= 1.24D+03 ExpMxC= 1.86D+02 IAcc=3 IRadAn=         5 AccDes= 0.00D+00
 Harris functional with IExCor= 1009 and IRadAn=       5 diagonalized for initial guess.
 HarFok:  IExCor= 1009 AccDes= 0.00D+00 IRadAn=         5 IDoV= 1 UseB2=F ITyADJ=14
 ICtDFT=  3500011 ScaDFX=  1.000000  1.000000  1.000000  1.000000
 FoFCou: FMM=F IPFlag=           0 FMFlag=      100000 FMFlg1=           0
         NFxFlg=           0 DoJE=T BraDBF=F KetDBF=T FulRan=T
         wScrn=  0.000000 ICntrl=       500 IOpCl=  0 I1Cent=   200000004 NGrid=           0
         NMat0=    1 NMatS0=      1 NMatT0=    0 NMatD0=    1 NMtDS0=    0 NMtDT0=    0
 Petite list used in FoFCou.
 Harris En= -119.006582342474    
 JPrj=0 DoOrth=F DoCkMO=F.
 Initial guess orbital symmetries:
       Occupied  (B2) (A1) (A1) (A1) (B2) (A1) (B1) (A1) (B2) (A2)
                 (B2) (A1) (B1)
       Virtual   (A1) (B2) (A1) (B1) (A1) (A1) (B1) (B2) (A2) (B2)
                 (A1) (A2) (B2) (A1) (B1) (B1) (B2) (A1) (A1) (B2)
                 (A1) (A2) (B1) (B1) (A1) (A1) (A2) (B2) (B1) (B2)
                 (A2) (A1) (A1) (B2) (B1) (A1) (B2) (A2) (A1) (B1)
                 (B1) (A2) (B2) (A1) (A1) (B2) (B1) (A2) (B2) (A1)
                 (B2) (A2) (A1) (B2) (A1) (B1) (B2) (A1) (A1) (B2)
                 (B1) (A2) (A1) (B2) (A1) (B1) (A2) (B2) (B1) (B2)
                 (A1) (A1) (A2) (A1) (B1) (B2) (A2) (B1) (A1) (A2)
                 (B2) (B1) (A1) (A2) (B2) (B1) (A1) (B1) (B2) (A2)
                 (A1) (B1) (B2) (A1) (B2) (A1) (A2) (A1) (B2) (B1)
                 (A1) (B2) (A2) (A1) (B2) (B1) (A1) (B2) (A2) (A1)
                 (B1)
 The electronic state of the initial guess is 1-A1.
 Leave Link  401 at Mon Mar 21 20:24:10 2022, MaxMem=  8589934592 cpu:               2.1 elap:               0.3
 (Enter /home/sabyasachi/g16/l502.exe)
 Keep R1 ints in memory in symmetry-blocked form, NReq=37701951.
 FoFCou: FMM=F IPFlag=           0 FMFlag=           0 FMFlg1=           0
         NFxFlg=           0 DoJE=F BraDBF=F KetDBF=F FulRan=T
         wScrn=  0.000000 ICntrl=       600 IOpCl=  0 I1Cent=           0 NGrid=           0
         NMat0=    1 NMatS0=   7750 NMatT0=    0 NMatD0=    1 NMtDS0=    0 NMtDT0=    0
 Petite list used in FoFCou.
 Closed shell SCF:
 Using DIIS extrapolation, IDIIS=  1040.
 NGot=  8589934592 LenX=  8582321173 LenY=  8582303832
 Requested convergence on RMS density matrix=1.00D-08 within 100 cycles.
 Requested convergence on MAX density matrix=1.00D-06.
 Requested convergence on             energy=1.00D-06.
 No special actions if energy rises.
 Integral accuracy reduced to 1.0D-05 until final iterations.

 Cycle   1  Pass 0  IDiag  1:
 E= -118.759323667214    
 DIIS: error= 3.91D-02 at cycle   1 NSaved=   1.
 NSaved= 1 IEnMin= 1 EnMin= -118.759323667214     IErMin= 1 ErrMin= 3.91D-02
 ErrMax= 3.91D-02  0.00D+00 EMaxC= 1.00D-01 BMatC= 1.31D-01 BMatP= 1.31D-01
 IDIUse=3 WtCom= 6.09D-01 WtEn= 3.91D-01
 Coeff-Com:  0.100D+01
 Coeff-En:   0.100D+01
 Coeff:      0.100D+01
 Gap=     0.294 Goal=   None    Shift=    0.000
 GapD=    0.294 DampG=1.000 DampE=0.500 DampFc=0.5000 IDamp=-1.
 Damping current iteration by 5.00D-01
 RMSDP=6.98D-03 MaxDP=1.54D-01              OVMax= 1.77D-01

 Cycle   2  Pass 0  IDiag  1:
 E= -118.825582547365     Delta-E=       -0.066258880151 Rises=F Damp=T
 DIIS: error= 6.53D-03 at cycle   2 NSaved=   2.
 NSaved= 2 IEnMin= 2 EnMin= -118.825582547365     IErMin= 2 ErrMin= 6.53D-03
 ErrMax= 6.53D-03  0.00D+00 EMaxC= 1.00D-01 BMatC= 4.47D-03 BMatP= 1.31D-01
 IDIUse=3 WtCom= 9.35D-01 WtEn= 6.53D-02
 Coeff-Com:  0.651D-01 0.935D+00
 Coeff-En:   0.113D+00 0.887D+00
 Coeff:      0.682D-01 0.932D+00
 Gap=     0.365 Goal=   None    Shift=    0.000
 RMSDP=2.20D-03 MaxDP=4.36D-02 DE=-6.63D-02 OVMax= 1.02D-01

 Cycle   3  Pass 0  IDiag  1:
 E= -118.906581460700     Delta-E=       -0.080998913335 Rises=F Damp=F
 DIIS: error= 2.78D-03 at cycle   3 NSaved=   3.
 NSaved= 3 IEnMin= 3 EnMin= -118.906581460700     IErMin= 3 ErrMin= 2.78D-03
 ErrMax= 2.78D-03  0.00D+00 EMaxC= 1.00D-01 BMatC= 6.05D-04 BMatP= 4.47D-03
 IDIUse=3 WtCom= 9.72D-01 WtEn= 2.78D-02
 Coeff-Com: -0.294D-02 0.219D+00 0.784D+00
 Coeff-En:   0.000D+00 0.000D+00 0.100D+01
 Coeff:     -0.286D-02 0.213D+00 0.790D+00
 Gap=     0.367 Goal=   None    Shift=    0.000
 RMSDP=4.71D-04 MaxDP=6.00D-03 DE=-8.10D-02 OVMax= 7.68D-03

 Cycle   4  Pass 0  IDiag  1:
 E= -118.907073352468     Delta-E=       -0.000491891768 Rises=F Damp=F
 DIIS: error= 8.46D-04 at cycle   4 NSaved=   4.
 NSaved= 4 IEnMin= 4 EnMin= -118.907073352468     IErMin= 4 ErrMin= 8.46D-04
 ErrMax= 8.46D-04  0.00D+00 EMaxC= 1.00D-01 BMatC= 1.07D-04 BMatP= 6.05D-04
 IDIUse=3 WtCom= 9.92D-01 WtEn= 8.46D-03
 Coeff-Com: -0.408D-02 0.280D-01 0.308D+00 0.668D+00
 Coeff-En:   0.000D+00 0.000D+00 0.203D-01 0.980D+00
 Coeff:     -0.405D-02 0.278D-01 0.306D+00 0.670D+00
 Gap=     0.369 Goal=   None    Shift=    0.000
 RMSDP=1.22D-04 MaxDP=3.64D-03 DE=-4.92D-04 OVMax= 2.94D-03

 Cycle   5  Pass 0  IDiag  1:
 E= -118.907169602876     Delta-E=       -0.000096250408 Rises=F Damp=F
 DIIS: error= 2.89D-04 at cycle   5 NSaved=   5.
 NSaved= 5 IEnMin= 5 EnMin= -118.907169602876     IErMin= 5 ErrMin= 2.89D-04
 ErrMax= 2.89D-04  0.00D+00 EMaxC= 1.00D-01 BMatC= 8.47D-06 BMatP= 1.07D-04
 IDIUse=3 WtCom= 9.97D-01 WtEn= 2.89D-03
 Coeff-Com: -0.125D-02-0.155D-02 0.828D-01 0.293D+00 0.627D+00
 Coeff-En:   0.000D+00 0.000D+00 0.000D+00 0.000D+00 0.100D+01
 Coeff:     -0.124D-02-0.154D-02 0.826D-01 0.292D+00 0.628D+00
 Gap=     0.368 Goal=   None    Shift=    0.000
 RMSDP=3.63D-05 MaxDP=9.80D-04 DE=-9.63D-05 OVMax= 7.93D-04

 Cycle   6  Pass 0  IDiag  1:
 E= -118.907177627318     Delta-E=       -0.000008024442 Rises=F Damp=F
 DIIS: error= 2.57D-05 at cycle   6 NSaved=   6.
 NSaved= 6 IEnMin= 6 EnMin= -118.907177627318     IErMin= 6 ErrMin= 2.57D-05
 ErrMax= 2.57D-05  0.00D+00 EMaxC= 1.00D-01 BMatC= 7.55D-08 BMatP= 8.47D-06
 IDIUse=1 WtCom= 1.00D+00 WtEn= 0.00D+00
 Coeff-Com: -0.172D-03-0.106D-02 0.175D-01 0.715D-01 0.187D+00 0.725D+00
 Coeff:     -0.172D-03-0.106D-02 0.175D-01 0.715D-01 0.187D+00 0.725D+00
 Gap=     0.368 Goal=   None    Shift=    0.000
 RMSDP=5.17D-06 MaxDP=6.53D-05 DE=-8.02D-06 OVMax= 9.66D-05

 Initial convergence to 1.0D-05 achieved.  Increase integral accuracy.
 Cycle   7  Pass 1  IDiag  1:
 E= -118.907173205009     Delta-E=        0.000004422309 Rises=F Damp=F
 DIIS: error= 3.95D-06 at cycle   1 NSaved=   1.
 NSaved= 1 IEnMin= 1 EnMin= -118.907173205009     IErMin= 1 ErrMin= 3.95D-06
 ErrMax= 3.95D-06  0.00D+00 EMaxC= 1.00D-01 BMatC= 1.65D-09 BMatP= 1.65D-09
 IDIUse=1 WtCom= 1.00D+00 WtEn= 0.00D+00
 Coeff-Com:  0.100D+01
 Coeff:      0.100D+01
 Gap=     0.369 Goal=   None    Shift=    0.000
 RMSDP=5.17D-06 MaxDP=6.53D-05 DE= 4.42D-06 OVMax= 2.11D-05

 Cycle   8  Pass 1  IDiag  1:
 E= -118.907173206462     Delta-E=       -0.000000001453 Rises=F Damp=F
 DIIS: error= 2.19D-06 at cycle   2 NSaved=   2.
 NSaved= 2 IEnMin= 2 EnMin= -118.907173206462     IErMin= 2 ErrMin= 2.19D-06
 ErrMax= 2.19D-06  0.00D+00 EMaxC= 1.00D-01 BMatC= 6.20D-10 BMatP= 1.65D-09
 IDIUse=1 WtCom= 1.00D+00 WtEn= 0.00D+00
 Coeff-Com:  0.364D+00 0.636D+00
 Coeff:      0.364D+00 0.636D+00
 Gap=     0.368 Goal=   None    Shift=    0.000
 RMSDP=3.97D-07 MaxDP=5.54D-06 DE=-1.45D-09 OVMax= 9.49D-06

 Cycle   9  Pass 1  IDiag  1:
 E= -118.907173207129     Delta-E=       -0.000000000666 Rises=F Damp=F
 DIIS: error= 7.90D-07 at cycle   3 NSaved=   3.
 NSaved= 3 IEnMin= 3 EnMin= -118.907173207129     IErMin= 3 ErrMin= 7.90D-07
 ErrMax= 7.90D-07  0.00D+00 EMaxC= 1.00D-01 BMatC= 4.60D-11 BMatP= 6.20D-10
 IDIUse=1 WtCom= 1.00D+00 WtEn= 0.00D+00
 Coeff-Com:  0.720D-01 0.239D+00 0.689D+00
 Coeff:      0.720D-01 0.239D+00 0.689D+00
 Gap=     0.369 Goal=   None    Shift=    0.000
 RMSDP=7.90D-08 MaxDP=1.93D-06 DE=-6.66D-10 OVMax= 2.16D-06

 Cycle  10  Pass 1  IDiag  1:
 E= -118.907173207175     Delta-E=       -0.000000000046 Rises=F Damp=F
 DIIS: error= 1.78D-07 at cycle   4 NSaved=   4.
 NSaved= 4 IEnMin= 4 EnMin= -118.907173207175     IErMin= 4 ErrMin= 1.78D-07
 ErrMax= 1.78D-07  0.00D+00 EMaxC= 1.00D-01 BMatC= 3.05D-12 BMatP= 4.60D-11
 IDIUse=1 WtCom= 1.00D+00 WtEn= 0.00D+00
 Coeff-Com: -0.976D-02 0.244D-01 0.236D+00 0.749D+00
 Coeff:     -0.976D-02 0.244D-01 0.236D+00 0.749D+00
 Gap=     0.368 Goal=   None    Shift=    0.000
 RMSDP=2.71D-08 MaxDP=4.16D-07 DE=-4.60D-11 OVMax= 5.99D-07

 Cycle  11  Pass 1  IDiag  1:
 E= -118.907173207176     Delta-E=       -0.000000000001 Rises=F Damp=F
 DIIS: error= 3.21D-08 at cycle   5 NSaved=   5.
 NSaved= 5 IEnMin= 5 EnMin= -118.907173207176     IErMin= 5 ErrMin= 3.21D-08
 ErrMax= 3.21D-08  0.00D+00 EMaxC= 1.00D-01 BMatC= 9.31D-14 BMatP= 3.05D-12
 IDIUse=1 WtCom= 1.00D+00 WtEn= 0.00D+00
 Coeff-Com: -0.600D-02 0.140D-02 0.609D-01 0.262D+00 0.682D+00
 Coeff:     -0.600D-02 0.140D-02 0.609D-01 0.262D+00 0.682D+00
 Gap=     0.369 Goal=   None    Shift=    0.000
 RMSDP=4.76D-09 MaxDP=1.39D-07 DE=-1.31D-12 OVMax= 8.52D-08

 SCF Done:  E(RPBE1PBE) =  -118.907173207     A.U. after   11 cycles
            NFock= 11  Conv=0.48D-08     -V/T= 2.0128
 KE= 1.174065962156D+02 PE=-4.392748593022D+02 EE= 1.202445498569D+02
 Leave Link  502 at Mon Mar 21 20:24:12 2022, MaxMem=  8589934592 cpu:              11.3 elap:               1.5
 (Enter /home/sabyasachi/g16/l801.exe)
 DoSCS=F DFT=T ScalE2(SS,OS)=  1.000000  1.000000
 ExpMin= 6.71D-02 ExpMax= 1.24D+03 ExpMxC= 1.86D+02 IAcc=3 IRadAn=         5 AccDes= 0.00D+00
 HarFok:  IExCor=  205 AccDes= 0.00D+00 IRadAn=         5 IDoV=-2 UseB2=F ITyADJ=14
 ICtDFT= 12500011 ScaDFX=  1.000000  1.000000  1.000000  1.000000
 Largest valence mixing into a core orbital is  7.31D-05
 Largest core mixing into a valence orbital is  2.18D-05
 Range of M.O.s used for correlation:     4   124
 NBasis=   124 NAE=    13 NBE=    13 NFC=     3 NFV=     0
 NROrb=    121 NOA=    10 NOB=    10 NVA=   111 NVB=   111

 **** Warning!!: The largest alpha MO coefficient is  0.26723952D+02

 Leave Link  801 at Mon Mar 21 20:24:12 2022, MaxMem=  8589934592 cpu:               0.6 elap:               0.1
 (Enter /home/sabyasachi/g16/l914.exe)
 RHF ground state
 Keep R1, R2, and R3 ints in memory in symmetry-blocked form, NReq=1499364203.
 FoFCou: FMM=F IPFlag=           0 FMFlag=           0 FMFlg1=           0
         NFxFlg=           0 DoJE=F BraDBF=F KetDBF=F FulRan=T
         wScrn=  0.000000 ICntrl=       600 IOpCl=  0 I1Cent=           0 NGrid=           0
         NMat0=    1 NMatS0=   7750 NMatT0=    0 NMatD0=    1 NMtDS0=    0 NMtDT0=    0
 Petite list used in FoFCou.
 MDV=  8589934592 DFT=T DoStab=F Mixed=T DoRPA=T DoScal=F NonHer=T
 Making orbital integer symmetry assigments:
 Orbital symmetries:
       Occupied  (A1) (B2) (A1) (A1) (B2) (A1) (B1) (A1) (B2) (A2)
                 (B2) (A1) (B1)
       Virtual   (A1) (B2) (A1) (B1) (A1) (B1) (A1) (B2) (A2) (A2)
                 (A1) (B2) (B1) (B2) (A1) (B1) (B2) (A1) (A2) (A1)
                 (B2) (A1) (B1) (A1) (A1) (B1) (A2) (B1) (B2) (A2)
                 (A1) (B2) (A1) (B1) (B2) (B2) (A2) (A1) (B1) (A1)
                 (A2) (B1) (A1) (B2) (B2) (A1) (B1) (B2) (A1) (A2)
                 (B2) (A2) (A1) (B2) (A1) (B1) (B2) (A1) (A1) (B1)
                 (B2) (A2) (A1) (B2) (A1) (B1) (A2) (B2) (B1) (A1)
                 (B2) (A1) (A2) (A1) (B1) (B2) (A2) (B1) (A1) (A2)
                 (B1) (B2) (A2) (A1) (B2) (B1) (A1) (B2) (B1) (A2)
                 (A1) (B2) (B1) (A1) (B2) (A2) (A1) (A1) (B2) (B1)
                 (A1) (B2) (A2) (A1) (B2) (B1) (A1) (B2) (A2) (A1)
                 (B1)
  1110 initial guesses have been made.
 Convergence on wavefunction:    0.001000000000000
 Davidson Disk Diagonalization:  ConvIn= 1.00D-03 SkipCon=T Conv= 1.00D-03.
 Max sub-space:  6660 roots to seek:  2220 dimension of matrix:         2220
 *** WARNING: Number of orthogonal guesses is         1110
 Iteration     1 Dimension  1110 NMult     0 NNew   1110
 CISAX will form  1110 AO SS matrices at one time.
 NMat=  1110 NSing=  1110 JSym2X=-1.
 New state     16 was old state     17
 New state     17 was old state     18
 New state     18 was old state     16
 New state     21 was old state     23
 New state     22 was old state     21
 New state     23 was old state     25
 New state     24 was old state     22
 New state     25 was old state     24
 New state     27 was old state     30
 New state     28 was old state     27
 New state     29 was old state     28
 New state     30 was old state     29
 New state     33 was old state     37
 New state     34 was old state     33
 New state     35 was old state     34
 New state     36 was old state     35
 New state     37 was old state     39
 New state     38 was old state     40
 New state     39 was old state     38
 New state     40 was old state     41
 New state     41 was old state     43
 New state     42 was old state     36
 New state     43 was old state     46
 New state     44 was old state     45
 New state     45 was old state     48
 New state     46 was old state     42
 New state     47 was old state     50
 New state     48 was old state     44
 New state     49 was old state     47
 New state     50 was old state     49
 New state     54 was old state     55
 New state     55 was old state     54
 New state     56 was old state     59
 New state     57 was old state     58
 New state     58 was old state     56
 New state     59 was old state     57
 New state     61 was old state     64
 New state     62 was old state     68
 New state     63 was old state     61
 New state     64 was old state     65
 New state     65 was old state     63
 New state     68 was old state     69
 New state     69 was old state     70
 New state     70 was old state     72
 New state     71 was old state     73
 New state     72 was old state     71
 New state     73 was old state     74
 New state     74 was old state     77
 New state     75 was old state     76
 New state     76 was old state     78
 New state     77 was old state     75
 New state     78 was old state     80
 New state     80 was old state     83
 New state     81 was old state     82
 New state     82 was old state     81
 New state     83 was old state     87
 New state     84 was old state     85
 New state     85 was old state     84
 New state     86 was old state     88
 New state     87 was old state     86
 New state     88 was old state    100
 New state     89 was old state     93
 New state     90 was old state     91
 New state     91 was old state     92
 New state     92 was old state     94
 New state     93 was old state     90
 New state     94 was old state     89
 New state     96 was old state     97
 New state     97 was old state     96
 New state     98 was old state     99
 New state     99 was old state    101
 New state    100 was old state     98
 New state    101 was old state    103
 New state    102 was old state    105
 New state    103 was old state    104
 New state    104 was old state    108
 New state    105 was old state    106
 New state    106 was old state    107
 New state    107 was old state    109
 New state    108 was old state    128
 New state    109 was old state    102
 New state    110 was old state    111
 New state    111 was old state    110
 New state    112 was old state    113
 New state    113 was old state    115
 New state    114 was old state    112
 New state    115 was old state    116
 New state    116 was old state    114
 New state    117 was old state    118
 New state    118 was old state    119
 New state    119 was old state    126
 New state    121 was old state    127
 New state    122 was old state    125
 New state    123 was old state    121
 New state    124 was old state    123
 New state    125 was old state    124
 New state    126 was old state    130
 New state    127 was old state    122
 New state    128 was old state    132
 New state    129 was old state    134
 New state    130 was old state    131
 New state    131 was old state    135
 New state    132 was old state    136
 New state    134 was old state    129
 No map to state    135
 New state    136 was old state    138
 New state    137 was old state    142
 New state    138 was old state    140
 New state    140 was old state    137
 New state    141 was old state    148
 New state    142 was old state    141
 New state    143 was old state    144
 New state    144 was old state    145
 New state    145 was old state    146
 New state    146 was old state    143
 New state    147 was old state    150
 New state    148 was old state    149
 New state    149 was old state    152
 New state    150 was old state    154
 New state    152 was old state    165
 New state    154 was old state    155
 New state    155 was old state    147
 New state    156 was old state    162
 New state    157 was old state    160
 New state    158 was old state    170
 New state    159 was old state    161
 New state    160 was old state    158
 New state    161 was old state    157
 New state    162 was old state    156
 New state    163 was old state    159
 New state    164 was old state    173
 New state    165 was old state    164
 New state    166 was old state    163
 New state    167 was old state    168
 New state    168 was old state    169
 New state    169 was old state    167
 New state    170 was old state    166
 New state    173 was old state    174
 New state    174 was old state    176
 New state    175 was old state    178
 New state    176 was old state    180
 New state    177 was old state    175
 New state    178 was old state    177
 New state    179 was old state    186
 New state    180 was old state    179
 New state    183 was old state    185
 New state    184 was old state    183
 New state    185 was old state    184
 New state    186 was old state    188
 New state    187 was old state    189
 New state    188 was old state    187
 New state    189 was old state    193
 New state    190 was old state    198
 New state    191 was old state    195
 New state    192 was old state    194
 New state    193 was old state    190
 New state    194 was old state    199
 New state    195 was old state    208
 New state    196 was old state    206
 New state    197 was old state    191
 New state    198 was old state    201
 New state    199 was old state    205
 New state    200 was old state    213
 New state    201 was old state    197
 New state    202 was old state    200
 New state    203 was old state    211
 New state    204 was old state    207
 New state    205 was old state    203
 New state    206 was old state    204
 New state    207 was old state    209
 New state    208 was old state    196
 New state    209 was old state    223
 New state    210 was old state    212
 New state    211 was old state    210
 New state    212 was old state    215
 New state    213 was old state    217
 New state    215 was old state    202
 New state    217 was old state    219
 New state    218 was old state    221
 New state    219 was old state    218
 New state    220 was old state    222
 New state    221 was old state    228
 New state    222 was old state    224
 New state    223 was old state    220
 New state    224 was old state    225
 New state    225 was old state    232
 New state    226 was old state    227
 New state    227 was old state    231
 New state    228 was old state    229
 New state    229 was old state    226
 New state    231 was old state    235
 New state    232 was old state    234
 New state    233 was old state    237
 New state    234 was old state    238
 New state    235 was old state    233
 New state    236 was old state    258
 New state    237 was old state    236
 New state    238 was old state    248
 New state    239 was old state    242
 New state    240 was old state    245
 New state    241 was old state    239
 New state    242 was old state    250
 New state    243 was old state    246
 New state    244 was old state    240
 New state    245 was old state    247
 New state    246 was old state    241
 New state    247 was old state    243
 New state    248 was old state    244
 New state    250 was old state    263
 New state    251 was old state    252
 New state    252 was old state    251
 New state    253 was old state    260
 New state    254 was old state    257
 New state    255 was old state    253
 New state    256 was old state    254
 New state    257 was old state    262
 New state    258 was old state    255
 New state    259 was old state    256
 New state    260 was old state    261
 New state    261 was old state    266
 New state    262 was old state    264
 New state    263 was old state    276
 New state    264 was old state    265
 New state    265 was old state    268
 New state    266 was old state    267
 New state    267 was old state    274
 New state    268 was old state    271
 New state    269 was old state    273
 New state    270 was old state    269
 New state    271 was old state    272
 New state    272 was old state    275
 New state    273 was old state    293
 New state    274 was old state    279
 New state    275 was old state    285
 New state    276 was old state    291
 New state    277 was old state    280
 New state    278 was old state    284
 New state    279 was old state    288
 New state    280 was old state    287
 New state    281 was old state    282
 New state    282 was old state    277
 New state    283 was old state    278
 New state    284 was old state    286
 New state    285 was old state    281
 New state    286 was old state    317
 New state    287 was old state    289
 New state    288 was old state    294
 New state    289 was old state    290
 New state    290 was old state    283
 New state    291 was old state    295
 New state    292 was old state    301
 New state    293 was old state    292
 New state    294 was old state    296
 New state    295 was old state    300
 New state    296 was old state    298
 New state    297 was old state    303
 New state    298 was old state    297
 New state    299 was old state    304
 New state    300 was old state    299
 New state    301 was old state    302
 New state    302 was old state    305
 New state    303 was old state    319
 New state    304 was old state    309
 New state    305 was old state    306
 New state    306 was old state    307
 New state    307 was old state    312
 New state    308 was old state    310
 New state    309 was old state    308
 New state    310 was old state    313
 New state    311 was old state    322
 New state    312 was old state    311
 New state    313 was old state    320
 New state    314 was old state    316
 New state    315 was old state    318
 New state    316 was old state    372
 New state    317 was old state    314
 New state    318 was old state    321
 New state    319 was old state    315
 New state    320 was old state    337
 New state    321 was old state    324
 New state    322 was old state    326
 New state    323 was old state    331
 New state    324 was old state    325
 New state    325 was old state    328
 New state    326 was old state    323
 New state    327 was old state    333
 New state    328 was old state    327
 New state    329 was old state    332
 New state    331 was old state    334
 New state    332 was old state    329
 New state    333 was old state    336
 New state    334 was old state    335
 New state    335 was old state    340
 New state    336 was old state    338
 New state    337 was old state    341
 New state    338 was old state    339
 New state    339 was old state    342
 New state    340 was old state    353
 New state    341 was old state    343
 New state    342 was old state    358
 New state    343 was old state    344
 New state    344 was old state    345
 New state    345 was old state    351
 New state    346 was old state    355
 New state    347 was old state    348
 New state    348 was old state    350
 New state    349 was old state    346
 New state    350 was old state    349
 New state    351 was old state    347
 New state    352 was old state    354
 New state    353 was old state    352
 New state    354 was old state    357
 New state    355 was old state    356
 New state    356 was old state    377
 New state    357 was old state    361
 New state    358 was old state    360
 New state    360 was old state    369
 New state    361 was old state    362
 New state    362 was old state    366
 New state    363 was old state    365
 New state    365 was old state    367
 New state    366 was old state    363
 New state    367 was old state    386
 New state    368 was old state    374
 New state    369 was old state    378
 New state    370 was old state    368
 New state    372 was old state    373
 New state    373 was old state    375
 New state    374 was old state    381
 New state    375 was old state    370
 New state    377 was old state    379
 New state    378 was old state    388
 New state    379 was old state    384
 New state    381 was old state    382
 New state    382 was old state    385
 New state    384 was old state    387
 New state    385 was old state    392
 New state    386 was old state    391
 New state    387 was old state    390
 New state    388 was old state    393
 New state    389 was old state    394
 New state    390 was old state    396
 New state    391 was old state    389
 New state    392 was old state    397
 New state    393 was old state    409
 New state    394 was old state    404
 New state    395 was old state    398
 New state    396 was old state    402
 New state    397 was old state    395
 New state    398 was old state    399
 New state    399 was old state    401
 New state    401 was old state    411
 New state    402 was old state    405
 New state    403 was old state    408
 New state    404 was old state    403
 New state    405 was old state    410
 New state    406 was old state    407
 New state    407 was old state    415
 New state    408 was old state    406
 New state    409 was old state    413
 New state    410 was old state    419
 New state    411 was old state    412
 New state    412 was old state    421
 New state    413 was old state    416
 New state    414 was old state    417
 New state    415 was old state    414
 New state    416 was old state    425
 New state    417 was old state    418
 New state    418 was old state    423
 New state    419 was old state    435
 New state    420 was old state    422
 New state    421 was old state    420
 No map to state    422
 No map to state    423
 New state    425 was old state    426
 New state    426 was old state    428
 New state    428 was old state    441
 New state    432 was old state    434
 New state    433 was old state    432
 New state    434 was old state    433
 New state    435 was old state    439
 New state    436 was old state    440
 New state    437 was old state    436
 New state    438 was old state    437
 New state    439 was old state    438
 New state    440 was old state    442
 New state    441 was old state    446
 New state    442 was old state    447
 New state    443 was old state    444
 New state    444 was old state    443
 New state    446 was old state    452
 New state    447 was old state    450
 No map to state    449
 New state    450 was old state    449
 New state    452 was old state    461
 New state    453 was old state    454
 New state    454 was old state    453
 New state    455 was old state    457
 New state    456 was old state    455
 New state    457 was old state    460
 New state    458 was old state    456
 No map to state    459
 New state    460 was old state    464
 New state    461 was old state    458
 New state    462 was old state    459
 New state    463 was old state    462
 New state    464 was old state    463
 New state    469 was old state    470
 New state    470 was old state    469
 New state    471 was old state    472
 New state    472 was old state    475
 New state    473 was old state    474
 New state    474 was old state    471
 New state    475 was old state    473
 New state    476 was old state    479
 New state    477 was old state    480
 New state    478 was old state    476
 New state    479 was old state    478
 New state    480 was old state    477
 New state    482 was old state    485
 New state    483 was old state    486
 New state    484 was old state    482
 New state    485 was old state    483
 New state    486 was old state    484
 New state    487 was old state    492
 New state    488 was old state    487
 New state    490 was old state    493
 New state    491 was old state    490
 New state    492 was old state    488
 New state    493 was old state    491
 New state    494 was old state    496
 New state    495 was old state    494
 New state    496 was old state    497
 New state    497 was old state    495
 New state    499 was old state    501
 New state    500 was old state    499
 New state    501 was old state    500
 New state    503 was old state    505
 New state    504 was old state    506
 New state    505 was old state    503
 New state    506 was old state    509
 New state    507 was old state    512
 New state    508 was old state    511
 New state    509 was old state    507
 New state    510 was old state    514
 New state    511 was old state    508
 New state    512 was old state    510
 New state    513 was old state    504
 New state    514 was old state    513
 New state    516 was old state    518
 New state    517 was old state    516
 New state    518 was old state    521
 New state    519 was old state    517
 New state    521 was old state    519
 New state    523 was old state    524
 New state    524 was old state    523
 New state    527 was old state    532
 New state    528 was old state    527
 New state    530 was old state    528
 New state    531 was old state    530
 New state    532 was old state    534
 New state    533 was old state    531
 New state    534 was old state    533
 New state    535 was old state    537
 New state    536 was old state    540
 New state    537 was old state    538
 New state    538 was old state    535
 New state    539 was old state    536
 New state    540 was old state    541
 New state    541 was old state    539
 New state    543 was old state    544
 New state    544 was old state    548
 New state    545 was old state    543
 New state    546 was old state    549
 New state    547 was old state    545
 New state    548 was old state    546
 New state    549 was old state    550
 New state    550 was old state    552
 New state    551 was old state    557
 New state    552 was old state    559
 New state    553 was old state    547
 New state    554 was old state    562
 New state    555 was old state    560
 New state    556 was old state    553
 New state    557 was old state    556
 New state    558 was old state    555
 New state    559 was old state    551
 New state    560 was old state    554
 New state    562 was old state    563
 New state    563 was old state    566
 New state    564 was old state    558
 New state    566 was old state    569
 New state    569 was old state    573
 New state    571 was old state    564
 New state    572 was old state    574
 New state    573 was old state    571
 New state    574 was old state    576
 New state    575 was old state    572
 New state    576 was old state    575
 New state    577 was old state    579
 New state    578 was old state    581
 New state    579 was old state    577
 New state    580 was old state    583
 New state    581 was old state    584
 New state    582 was old state    587
 New state    583 was old state    588
 New state    584 was old state    585
 New state    585 was old state    590
 New state    586 was old state    589
 New state    587 was old state    586
 New state    588 was old state    578
 New state    589 was old state    592
 New state    590 was old state    580
 New state    592 was old state    593
 New state    593 was old state    595
 New state    595 was old state    597
 New state    597 was old state    599
 New state    599 was old state    602
 New state    600 was old state    603
 New state    601 was old state    605
 New state    602 was old state    601
 New state    603 was old state    600
 New state    605 was old state    606
 New state    606 was old state    607
 New state    607 was old state    609
 New state    608 was old state    613
 New state    609 was old state    611
 New state    610 was old state    612
 New state    611 was old state    614
 New state    612 was old state    616
 New state    613 was old state    608
 New state    614 was old state    610
 New state    616 was old state    619
 New state    617 was old state    627
 New state    618 was old state    620
 New state    619 was old state    618
 New state    620 was old state    617
 New state    621 was old state    623
 New state    623 was old state    621
 New state    625 was old state    626
 New state    626 was old state    628
 New state    627 was old state    638
 New state    628 was old state    625
 New state    631 was old state    632
 New state    632 was old state    631
 New state    634 was old state    636
 New state    635 was old state    634
 New state    636 was old state    635
 New state    637 was old state    639
 New state    638 was old state    641
 New state    639 was old state    637
 New state    640 was old state    644
 New state    641 was old state    643
 New state    642 was old state    640
 New state    643 was old state    646
 New state    644 was old state    645
 New state    645 was old state    653
 New state    646 was old state    642
 New state    648 was old state    651
 New state    649 was old state    648
 New state    650 was old state    652
 New state    651 was old state    655
 New state    652 was old state    654
 New state    653 was old state    650
 New state    654 was old state    649
 New state    655 was old state    658
 New state    657 was old state    660
 New state    658 was old state    659
 New state    659 was old state    661
 New state    660 was old state    657
 New state    661 was old state    662
 New state    662 was old state    664
 New state    664 was old state    665
 New state    665 was old state    668
 New state    668 was old state    670
 New state    669 was old state    672
 New state    670 was old state    669
 New state    671 was old state    675
 New state    672 was old state    671
 New state    673 was old state    674
 New state    674 was old state    677
 New state    675 was old state    673
 New state    677 was old state    680
 New state    680 was old state    682
 New state    682 was old state    683
 New state    683 was old state    684
 New state    684 was old state    685
 New state    685 was old state    691
 New state    686 was old state    687
 New state    687 was old state    690
 New state    690 was old state    686
 New state    691 was old state    692
 No map to state    692
 New state    695 was old state    696
 New state    696 was old state    695
 New state    697 was old state    699
 New state    699 was old state    697
 New state    701 was old state    702
 New state    702 was old state    701
 New state    703 was old state    704
 New state    704 was old state    703
 New state    708 was old state    709
 New state    709 was old state    708
 New state    710 was old state    711
 New state    711 was old state    710
 New state    712 was old state    715
 New state    714 was old state    712
 New state    715 was old state    714
 New state    717 was old state    718
 New state    718 was old state    717
 New state    719 was old state    720
 New state    720 was old state    719
 New state    722 was old state    723
 New state    723 was old state    724
 New state    724 was old state    722
 New state    726 was old state    727
 New state    727 was old state    726
 New state    728 was old state    731
 New state    729 was old state    728
 New state    731 was old state    729
 New state    733 was old state    736
 New state    734 was old state    733
 New state    735 was old state    734
 New state    736 was old state    740
 New state    737 was old state    735
 New state    738 was old state    737
 New state    739 was old state    738
 New state    740 was old state    739
 New state    747 was old state    751
 New state    748 was old state    749
 New state    749 was old state    747
 New state    750 was old state    754
 New state    751 was old state    748
 New state    753 was old state    755
 New state    754 was old state    753
 New state    755 was old state    750
 New state    761 was old state    762
 New state    762 was old state    761
 New state    765 was old state    766
 New state    766 was old state    765
 New state    768 was old state    769
 New state    769 was old state    768
 New state    770 was old state    772
 New state    772 was old state    770
 New state    773 was old state    774
 New state    774 was old state    775
 New state    775 was old state    773
 New state    778 was old state    780
 New state    779 was old state    778
 New state    780 was old state    779
 New state    781 was old state    783
 New state    782 was old state    781
 New state    783 was old state    782
 New state    789 was old state    790
 New state    790 was old state    789
 New state    791 was old state    792
 New state    792 was old state    793
 New state    793 was old state    797
 New state    794 was old state    791
 New state    796 was old state    798
 New state    797 was old state    794
 New state    798 was old state    799
 New state    799 was old state    796
 New state    800 was old state    801
 New state    801 was old state    800
 New state    802 was old state    803
 New state    803 was old state    802
 New state    804 was old state    806
 New state    805 was old state    808
 New state    806 was old state    804
 New state    807 was old state    805
 New state    808 was old state    814
 New state    809 was old state    807
 New state    810 was old state    809
 New state    813 was old state    810
 New state    814 was old state    813
 New state    816 was old state    819
 New state    817 was old state    820
 New state    818 was old state    816
 New state    819 was old state    817
 New state    820 was old state    821
 New state    821 was old state    818
 New state    824 was old state    830
 New state    825 was old state    824
 New state    826 was old state    825
 New state    827 was old state    831
 New state    828 was old state    827
 New state    829 was old state    828
 New state    830 was old state    826
 New state    831 was old state    834
 New state    832 was old state    833
 New state    833 was old state    832
 New state    834 was old state    829
 New state    835 was old state    840
 New state    836 was old state    841
 New state    837 was old state    838
 New state    838 was old state    842
 New state    839 was old state    837
 New state    840 was old state    836
 New state    841 was old state    839
 New state    842 was old state    835
 New state    845 was old state    849
 New state    848 was old state    845
 New state    849 was old state    848
 New state    851 was old state    852
 New state    852 was old state    851
 New state    853 was old state    855
 New state    854 was old state    853
 New state    855 was old state    854
 New state    856 was old state    857
 New state    857 was old state    859
 New state    858 was old state    856
 New state    859 was old state    858
 New state    862 was old state    863
 New state    863 was old state    862
 New state    865 was old state    867
 New state    866 was old state    865
 New state    867 was old state    866
 New state    868 was old state    869
 New state    869 was old state    868
 New state    870 was old state    872
 New state    871 was old state    873
 New state    872 was old state    870
 New state    873 was old state    871
 New state    877 was old state    878
 New state    878 was old state    879
 New state    879 was old state    880
 New state    880 was old state    877
 New state    884 was old state    887
 New state    885 was old state    886
 New state    886 was old state    884
 New state    887 was old state    885
 New state    889 was old state    890
 New state    890 was old state    889
 New state    896 was old state    897
 New state    897 was old state    898
 New state    898 was old state    901
 New state    899 was old state    896
 New state    900 was old state    902
 New state    901 was old state    899
 New state    902 was old state    900
 New state    903 was old state    904
 New state    904 was old state    903
 New state    910 was old state    911
 New state    911 was old state    910
 New state    913 was old state    916
 New state    914 was old state    915
 New state    915 was old state    913
 New state    916 was old state    918
 New state    918 was old state    914
 New state    920 was old state    922
 New state    921 was old state    920
 New state    922 was old state    921
 New state    923 was old state    925
 New state    924 was old state    923
 New state    925 was old state    924
 New state    929 was old state    930
 New state    930 was old state    929
 New state    932 was old state    933
 New state    933 was old state    932
 New state    934 was old state    936
 New state    936 was old state    934
 New state    939 was old state    940
 New state    940 was old state    944
 New state    941 was old state    945
 New state    942 was old state    939
 New state    943 was old state    942
 New state    944 was old state    941
 New state    945 was old state    943
 New state    946 was old state    947
 New state    947 was old state    946
 New state    953 was old state    954
 New state    954 was old state    955
 New state    955 was old state    953
 New state    956 was old state    959
 New state    957 was old state    956
 New state    958 was old state    957
 New state    959 was old state    958
 New state    964 was old state    966
 New state    966 was old state    964
 New state    968 was old state    969
 New state    969 was old state    968
 New state    971 was old state    972
 New state    972 was old state    971
 New state    973 was old state    977
 New state    974 was old state    973
 New state    975 was old state    974
 New state    976 was old state    979
 New state    977 was old state    975
 New state    978 was old state    976
 New state    979 was old state    980
 New state    980 was old state    978
 New state    982 was old state    983
 New state    983 was old state    982
 New state    985 was old state    987
 New state    986 was old state    985
 New state    987 was old state    986
 New state    988 was old state    989
 New state    989 was old state    990
 New state    990 was old state    991
 New state    991 was old state    988
 New state    993 was old state    994
 New state    994 was old state    993
 New state   1000 was old state   1001
 New state   1001 was old state   1000
 New state   1006 was old state   1007
 New state   1007 was old state   1006
 New state   1008 was old state   1009
 New state   1009 was old state   1011
 New state   1010 was old state   1008
 New state   1011 was old state   1010
 New state   1012 was old state   1013
 New state   1013 was old state   1012
 New state   1019 was old state   1021
 New state   1020 was old state   1019
 New state   1021 was old state   1020
 New state   1035 was old state   1037
 New state   1037 was old state   1035
 New state   1040 was old state   1042
 New state   1041 was old state   1040
 New state   1042 was old state   1045
 New state   1043 was old state   1044
 New state   1044 was old state   1041
 New state   1045 was old state   1046
 New state   1046 was old state   1047
 New state   1047 was old state   1043
 New state   1053 was old state   1056
 New state   1054 was old state   1053
 New state   1056 was old state   1054
 New state   1058 was old state   1059
 New state   1059 was old state   1058
 New state   1060 was old state   1061
 New state   1061 was old state   1063
 New state   1062 was old state   1060
 New state   1063 was old state   1068
 New state   1064 was old state   1062
 New state   1065 was old state   1067
 New state   1066 was old state   1070
 New state   1067 was old state   1064
 New state   1068 was old state   1065
 New state   1069 was old state   1066
 New state   1070 was old state   1071
 New state   1071 was old state   1069
 New state   1073 was old state   1075
 New state   1074 was old state   1076
 New state   1075 was old state   1077
 New state   1076 was old state   1073
 New state   1077 was old state   1074
 New state   1080 was old state   1082
 New state   1082 was old state   1080
 New state   1086 was old state   1087
 New state   1087 was old state   1086
 New state   1094 was old state   1095
 New state   1095 was old state   1094
 New state   1097 was old state   1098
 New state   1098 was old state   1097
 New state   1100 was old state   1101
 New state   1101 was old state   1100
 New state   1103 was old state   1104
 New state   1104 was old state   1105
 New state   1105 was old state   1103
 New state   1106 was old state   1107
 New state   1107 was old state   1106
 Excitation Energies [eV] at current iteration:
 Root      1 :     8.730622757564991
 Root      2 :     9.120790760550266
 Root      3 :     9.131859646548047
 Root      4 :     9.609869711174801
 Root      5 :     9.775828210237828
 Root      6 :     9.914421159746928
 Root      7 :    10.019157958081020
 Root      8 :    10.085605466163380
 Root      9 :    10.193141329235910
 Root     10 :    10.275448249052480
 Root     11 :    10.405332356407170
 Root     12 :    10.614090232229990
 Root     13 :    10.651973776061390
 Root     14 :    10.705204783239840
 Root     15 :    10.881345244399290
 Root     16 :    11.059720488443310
 Root     17 :    11.098170926944490
 Root     18 :    11.138725803435380
 Root     19 :    11.271941502168630
 Root     20 :    11.388571154972400
 Root     21 :    11.473271736409780
 Root     22 :    11.523213477890370
 Root     23 :    11.560726289044030
 Root     24 :    11.658768055087730
 Root     25 :    11.696670257327470
 Root     26 :    11.729397778052200
 Root     27 :    11.778806406336970
 Root     28 :    11.877129004562710
 Root     29 :    11.939488721744680
 Root     30 :    11.977393281107080
 Root     31 :    12.034717531154010
 Root     32 :    12.043273730384940
 Root     33 :    12.111170731286870
 Root     34 :    12.207737090619150
 Root     35 :    12.227591699492650
 Root     36 :    12.306534802275320
 Root     37 :    12.338449283092950
 Root     38 :    12.450318067715950
 Root     39 :    12.492733672487830
 Root     40 :    12.532856484507390
 Root     41 :    12.551211914705050
 Root     42 :    12.564631827017730
 Root     43 :    12.701757634049750
 Root     44 :    12.725815269538000
 Root     45 :    12.803450836393920
 Root     46 :    12.804174597333550
 Root     47 :    12.884803805334360
 Root     48 :    12.907411974069940
 Root     49 :    12.956951128051690
 Root     50 :    12.970884214550120
 Root     51 :    13.099885220370540
 Root     52 :    13.123007532787530
 Root     53 :    13.163107950099870
 Root     54 :    13.274413556723180
 Root     55 :    13.341439633682030
 Root     56 :    13.385325886689040
 Root     57 :    13.412622839458130
 Root     58 :    13.502699405721500
 Root     59 :    13.510382357101290
 Root     60 :    13.543377094709950
 Root     61 :    13.570241705237730
 Root     62 :    13.658336270230940
 Root     63 :    13.694051553791310
 Root     64 :    13.712559787916510
 Root     65 :    13.750197143992300
 Root     66 :    13.777866975743180
 Root     67 :    13.879553937867080
 Root     68 :    13.913215427778220
 Root     69 :    13.960258054247070
 Root     70 :    14.009239684703780
 Root     71 :    14.015584963061200
 Root     72 :    14.062255013458440
 Root     73 :    14.075185488663580
 Root     74 :    14.103300863093440
 Root     75 :    14.205980233509160
 Root     76 :    14.240004544279280
 Root     77 :    14.242514134669010
 Root     78 :    14.434508936950430
 Root     79 :    14.463512821415830
 Root     80 :    14.550865135793160
 Root     81 :    14.623565786830220
 Root     82 :    14.672309563937250
 Root     83 :    14.791664866546540
 Root     84 :    14.815050521903310
 Root     85 :    14.832641931490390
 Root     86 :    14.898767043438720
 Root     87 :    15.016887532498110
 Root     88 :    15.041248894537170
 Root     89 :    15.052633333300280
 Root     90 :    15.097932967650420
 Root     91 :    15.136112152891370
 Root     92 :    15.160171449806480
 Root     93 :    15.173471916778220
 Root     94 :    15.247992222418710
 Root     95 :    15.312827946915560
 Root     96 :    15.335546595523620
 Root     97 :    15.342175924114410
 Root     98 :    15.429686225487260
 Root     99 :    15.486242063370240
 Root    100 :    15.556614415161770
 Root    101 :    15.562178916579820
 Root    102 :    15.653498834201210
 Root    103 :    15.782483144954710
 Root    104 :    15.829108008012950
 Root    105 :    15.835703659887940
 Root    106 :    15.845464212380280
 Root    107 :    16.013626427969630
 Root    108 :    16.099537539403430
 Root    109 :    16.185092294764260
 Root    110 :    16.185566929743530
 Root    111 :    16.296143074374720
 Root    112 :    16.399556125136340
 Root    113 :    16.408709991488260
 Root    114 :    16.426191773293510
 Root    115 :    16.487097286243200
 Root    116 :    16.537717633486320
 Root    117 :    16.551395330161950
 Root    118 :    16.565087776428040
 Root    119 :    16.686594087612720
 Root    120 :    16.697307967291730
 Root    121 :    16.720999013827480
 Root    122 :    16.748509836700100
 Root    123 :    16.756583244432050
 Root    124 :    16.774495735458100
 Root    125 :    16.807714480898170
 Root    126 :    16.834752558932070
 Root    127 :    16.871608326192220
 Root    128 :    16.923563466764240
 Root    129 :    16.952498025481610
 Root    130 :    16.968159159856770
 Root    131 :    17.044769546692930
 Root    132 :    17.112435178539890
 Root    133 :    17.119574113737700
 Root    134 :    17.193270550682960
 Root    135 :    17.254548555695050
 Root    136 :    17.285125036788480
 Root    137 :    17.317335937906400
 Root    138 :    17.350948304783740
 Root    139 :    17.372809270522440
 Root    140 :    17.400918688105820
 Root    141 :    17.536726498686930
 Root    142 :    17.642807032463010
 Root    143 :    17.775442333752640
 Root    144 :    17.790534671528560
 Root    145 :    17.830183979370870
 Root    146 :    17.863747834396970
 Root    147 :    17.905024354899970
 Root    148 :    17.919371274978450
 Root    149 :    17.947096834685080
 Root    150 :    17.995483774618130
 Root    151 :    18.017556287906550
 Root    152 :    18.050713661432690
 Root    153 :    18.055140512376920
 Root    154 :    18.080504771166910
 Root    155 :    18.135619241305620
 Root    156 :    18.150151092040770
 Root    157 :    18.195660548626550
 Root    158 :    18.212950625431460
 Root    159 :    18.216881131861630
 Root    160 :    18.220899213918430
 Root    161 :    18.245737515187190
 Root    162 :    18.266788990286480
 Root    163 :    18.365723609467580
 Root    164 :    18.395195760203650
 Root    165 :    18.412768035853630
 Root    166 :    18.416526478958470
 Root    167 :    18.448475669535040
 Root    168 :    18.448666398993570
 Root    169 :    18.508016352730890
 Root    170 :    18.595218837156860
 Root    171 :    18.617849658844980
 Root    172 :    18.679588694420640
 Root    173 :    18.694026232903690
 Root    174 :    18.712948015291500
 Root    175 :    18.753179531068450
 Root    176 :    18.761646602763090
 Root    177 :    18.766930286152220
 Root    178 :    18.818181095010190
 Root    179 :    18.849530182035480
 Root    180 :    18.912837502517280
 Root    181 :    18.960841480345930
 Root    182 :    18.987954774225580
 Root    183 :    19.081392372371310
 Root    184 :    19.133619619220260
 Root    185 :    19.180723731227210
 Root    186 :    19.230473470596870
 Root    187 :    19.235018952869910
 Root    188 :    19.287688886676320
 Root    189 :    19.312807923573030
 Root    190 :    19.331885611695590
 Root    191 :    19.350355184962580
 Root    192 :    19.358531467771290
 Root    193 :    19.367238154623330
 Root    194 :    19.417811100804730
 Root    195 :    19.441741492359610
 Root    196 :    19.464284160488630
 Root    197 :    19.497470773292990
 Root    198 :    19.522929442893490
 Root    199 :    19.522972355389190
 Root    200 :    19.569218018190610
 Root    201 :    19.589160285229660
 Root    202 :    19.597354569022650
 Root    203 :    19.608978930028240
 Root    204 :    19.616217343369010
 Root    205 :    19.624134193220720
 Root    206 :    19.662711820079200
 Root    207 :    19.683808124641850
 Root    208 :    19.761040270945450
 Root    209 :    19.790167790135230
 Root    210 :    19.803876277061690
 Root    211 :    19.821680069139920
 Root    212 :    19.878614275935840
 Root    213 :    19.897920277598230
 Root    214 :    19.937925742092480
 Root    215 :    19.965622099606890
 Root    216 :    19.996449684792570
 Root    217 :    20.087689735092130
 Root    218 :    20.094021504419370
 Root    219 :    20.149707832902580
 Root    220 :    20.159969820577000
 Root    221 :    20.211319000589890
 Root    222 :    20.221989235576700
 Root    223 :    20.231201279711680
 Root    224 :    20.306787941057520
 Root    225 :    20.374561247984250
 Root    226 :    20.377728555734540
 Root    227 :    20.452287436987270
 Root    228 :    20.509083088861840
 Root    229 :    20.518846656160830
 Root    230 :    20.580487479802310
 Root    231 :    20.581678398851160
 Root    232 :    20.623705793822690
 Root    233 :    20.702056145721100
 Root    234 :    20.711253065891220
 Root    235 :    20.714564459459490
 Root    236 :    20.739463360666500
 Root    237 :    20.786127063089260
 Root    238 :    20.839869927029170
 Root    239 :    20.856708425567260
 Root    240 :    20.885068493396820
 Root    241 :    20.901062601101170
 Root    242 :    20.960898300590890
 Root    243 :    20.988887208017830
 Root    244 :    21.013272451213600
 Root    245 :    21.064817606992090
 Root    246 :    21.067949520244860
 Root    247 :    21.106569675430340
 Root    248 :    21.109116740658230
 Root    249 :    21.110303216560820
 Root    250 :    21.144367693823420
 Root    251 :    21.219002576036260
 Root    252 :    21.228519921939080
 Root    253 :    21.250219826103780
 Root    254 :    21.277797627488840
 Root    255 :    21.300686645907150
 Root    256 :    21.340071284066940
 Root    257 :    21.362242685392340
 Root    258 :    21.390143819907390
 Root    259 :    21.421570264582230
 Root    260 :    21.464107641076910
 Root    261 :    21.468990956995940
 Root    262 :    21.482784751676590
 Root    263 :    21.489612688474250
 Root    264 :    21.546931388930150
 Root    265 :    21.607677435230540
 Root    266 :    21.664220630348120
 Root    267 :    21.688212576173660
 Root    268 :    21.708547063073170
 Root    269 :    21.730401856487510
 Root    270 :    21.803029825561350
 Root    271 :    21.812588645628470
 Root    272 :    21.815710651610110
 Root    273 :    21.847294334240680
 Root    274 :    21.858188595593730
 Root    275 :    21.885778835160840
 Root    276 :    21.892239658912450
 Root    277 :    21.892600416708570
 Root    278 :    21.917940844938320
 Root    279 :    21.960975419592420
 Root    280 :    21.963304603318160
 Root    281 :    21.976425160270840
 Root    282 :    22.021451866318700
 Root    283 :    22.050911028762760
 Root    284 :    22.066807348164520
 Root    285 :    22.076523437776350
 Root    286 :    22.126395198114630
 Root    287 :    22.133244106300620
 Root    288 :    22.153347528311890
 Root    289 :    22.185140557345490
 Root    290 :    22.239426559809850
 Root    291 :    22.269137994272150
 Root    292 :    22.325563868971910
 Root    293 :    22.329792127117620
 Root    294 :    22.334394854471590
 Root    295 :    22.383270589805030
 Root    296 :    22.419355515810950
 Root    297 :    22.451566007543530
 Root    298 :    22.473062519832000
 Root    299 :    22.532447101786250
 Root    300 :    22.539431144853000
 Root    301 :    22.592307093612750
 Root    302 :    22.636214821432830
 Root    303 :    22.676231579699460
 Root    304 :    22.699753974640720
 Root    305 :    22.719007661173430
 Root    306 :    22.811102782285270
 Root    307 :    22.864822172243390
 Root    308 :    22.890468323600260
 Root    309 :    22.900477856728740
 Root    310 :    22.970619112427820
 Root    311 :    23.016400666545180
 Root    312 :    23.044729805077290
 Root    313 :    23.051840825792370
 Root    314 :    23.095204955632140
 Root    315 :    23.099225033161490
 Root    316 :    23.151323503907440
 Root    317 :    23.155732983601500
 Root    318 :    23.177288276545640
 Root    319 :    23.182146864772150
 Root    320 :    23.218141014892310
 Root    321 :    23.312740943281330
 Root    322 :    23.316404925499110
 Root    323 :    23.346765775445930
 Root    324 :    23.365240690196200
 Root    325 :    23.377714253526990
 Root    326 :    23.417514516004990
 Root    327 :    23.450082134587320
 Root    328 :    23.462434159914930
 Root    329 :    23.505266786586950
 Root    330 :    23.539782118877050
 Root    331 :    23.547287224644380
 Root    332 :    23.564125109082250
 Root    333 :    23.594686930551440
 Root    334 :    23.606457732580410
 Root    335 :    23.655539908507190
 Root    336 :    23.690050384895070
 Root    337 :    23.714484741884590
 Root    338 :    23.724610228133930
 Root    339 :    23.775275303536810
 Root    340 :    23.824650363529660
 Root    341 :    23.849267762483030
 Root    342 :    23.894842621616910
 Root    343 :    23.900621044706830
 Root    344 :    24.002839703171130
 Root    345 :    24.020225191625020
 Root    346 :    24.065241367385940
 Root    347 :    24.072640289688230
 Root    348 :    24.108351929407110
 Root    349 :    24.131618468438720
 Root    350 :    24.138883397822420
 Root    351 :    24.156674803199120
 Root    352 :    24.187786838515720
 Root    353 :    24.281865384590530
 Root    354 :    24.296033143605500
 Root    355 :    24.318829080536470
 Root    356 :    24.367408779850230
 Root    357 :    24.450410845984000
 Root    358 :    24.490171645472440
 Root    359 :    24.497366843874360
 Root    360 :    24.564223212438910
 Root    361 :    24.582242896181460
 Root    362 :    24.598363578246040
 Root    363 :    24.673734700576720
 Root    364 :    24.674459652349850
 Root    365 :    24.691008822163340
 Root    366 :    24.744394959228710
 Root    367 :    24.755066486686850
 Root    368 :    24.760094929613180
 Root    369 :    24.784181647884410
 Root    370 :    24.810824015424320
 Root    371 :    24.855606026604810
 Root    372 :    24.858736403247130
 Root    373 :    24.903579161086130
 Root    374 :    24.939305053464330
 Root    375 :    24.949471455641720
 Root    376 :    24.957985446626240
 Root    377 :    24.966956523183040
 Root    378 :    25.020687369481260
 Root    379 :    25.031696736086460
 Root    380 :    25.034556982864800
 Root    381 :    25.116133885817500
 Root    382 :    25.124716262525440
 Root    383 :    25.195096742402120
 Root    384 :    25.218777784878610
 Root    385 :    25.240306869402440
 Root    386 :    25.278484858247420
 Root    387 :    25.335015641327840
 Root    388 :    25.398549799888710
 Root    389 :    25.420920325868370
 Root    390 :    25.433166718135680
 Root    391 :    25.461634939311780
 Root    392 :    25.506902786488670
 Root    393 :    25.554892215353770
 Root    394 :    25.671778227923990
 Root    395 :    25.696688896185660
 Root    396 :    25.705725225753920
 Root    397 :    25.736434035076520
 Root    398 :    25.910872034141960
 Root    399 :    25.927423205346720
 Root    400 :    25.947324749781510
 Root    401 :    25.952815057415240
 Root    402 :    25.998145959067460
 Root    403 :    25.999123848077450
 Root    404 :    26.037971568533130
 Root    405 :    26.084291212542150
 Root    406 :    26.145815246476820
 Root    407 :    26.182382243119450
 Root    408 :    26.237620898500520
 Root    409 :    26.263654488076810
 Root    410 :    26.311215267874870
 Root    411 :    26.340326126110430
 Root    412 :    26.343564726920520
 Root    413 :    26.371638087079860
 Root    414 :    26.396788965418340
 Root    415 :    26.452011405004940
 Root    416 :    26.499435874183930
 Root    417 :    26.500231343124220
 Root    418 :    26.548265280991360
 Root    419 :    26.593272444182010
 Root    420 :    26.609193393199130
 Root    421 :    26.630992838257420
 Root    422 :    26.651834263837090
 Root    423 :    26.701944316261350
 Root    424 :    26.786432019359070
 Root    425 :    26.885569997793210
 Root    426 :    26.917536885995740
 Root    427 :    27.016350298112700
 Root    428 :    27.099502520832530
 Root    429 :    27.290442217585690
 Root    430 :    27.385390131041280
 Root    431 :    27.408136701260330
 Root    432 :    27.467638370352250
 Root    433 :    27.502334424763510
 Root    434 :    27.567863682303850
 Root    435 :    27.633149026960620
 Root    436 :    27.633455199418680
 Root    437 :    27.674805690041510
 Root    438 :    27.740170487904690
 Root    439 :    27.745539217853100
 Root    440 :    27.790659305424210
 Root    441 :    27.796662639080540
 Root    442 :    28.116894869445510
 Root    443 :    28.123941715569310
 Root    444 :    28.132726214604490
 Root    445 :    28.152689768571780
 Root    446 :    28.157595000183060
 Root    447 :    28.200074398324300
 Root    448 :    28.453927293714430
 Root    449 :    28.531290345702960
 Root    450 :    28.547089729443290
 Root    451 :    28.716064591211620
 Root    452 :    28.780582044435580
 Root    453 :    28.829121332754240
 Root    454 :    28.837588473197520
 Root    455 :    28.972858299383610
 Root    456 :    29.027582131844350
 Root    457 :    29.027742046041370
 Root    458 :    29.075609080384020
 Root    459 :    29.147014642501000
 Root    460 :    29.167024659657220
 Root    461 :    29.194106075152550
 Root    462 :    29.227705133985190
 Root    463 :    29.258433583339330
 Root    464 :    29.412789511382260
 Root    465 :    29.608627727796800
 Root    466 :    29.768167291591230
 Root    467 :    29.888469421380960
 Root    468 :    30.026401864554160
 Root    469 :    30.126088512724220
 Root    470 :    30.324767649619670
 Root    471 :    30.367046843383550
 Root    472 :    30.437073217555000
 Root    473 :    30.475450694653270
 Root    474 :    30.508995304470780
 Root    475 :    30.512125561377990
 Root    476 :    30.692144278165600
 Root    477 :    30.703239745233710
 Root    478 :    30.803258094236400
 Root    479 :    30.832466315231950
 Root    480 :    30.942674699308470
 Root    481 :    30.968014863718080
 Root    482 :    31.061985247425430
 Root    483 :    31.067946912257810
 Root    484 :    31.094098017167750
 Root    485 :    31.220896021576930
 Root    486 :    31.245189242430270
 Root    487 :    31.392563716822810
 Root    488 :    31.408226032378490
 Root    489 :    31.447621134654180
 Root    490 :    31.530568801884430
 Root    491 :    31.534320097212700
 Root    492 :    31.548318122544020
 Root    493 :    31.587441516364060
 Root    494 :    31.752830709114850
 Root    495 :    31.762534355463370
 Root    496 :    31.890553425079940
 Root    497 :    31.897941465705840
 Root    498 :    31.972931545328130
 Root    499 :    32.040587899274430
 Root    500 :    32.067208143785740
 Root    501 :    32.161132038239930
 Root    502 :    32.404822867316710
 Root    503 :    32.469075378972480
 Root    504 :    32.522969126199390
 Root    505 :    32.575683731846350
 Root    506 :    32.579995136992250
 Root    507 :    32.669091493874340
 Root    508 :    32.772109842954170
 Root    509 :    32.803131262283910
 Root    510 :    33.004155645075570
 Root    511 :    33.016329060507510
 Root    512 :    33.119390908279190
 Root    513 :    33.139333520632030
 Root    514 :    33.226902215118020
 Root    515 :    33.253720267166830
 Root    516 :    33.361172631392070
 Root    517 :    33.459835834527020
 Root    518 :    33.478578929606390
 Root    519 :    33.635181319738610
 Root    520 :    33.670605233449680
 Root    521 :    33.670950752854350
 Root    522 :    33.734640163549590
 Root    523 :    33.867598862452760
 Root    524 :    33.874557368655150
 Root    525 :    33.889640504049470
[...]
     16   0.000000D+00  0.165471D+00  0.000000D+00  0.000000D+00  0.000000D+00
              1041          1042          1043          1044          1045 
      1  -0.115581D+03 -0.115575D+03 -0.115568D+03 -0.115565D+03 -0.115559D+03
      2   0.000000D+00 -0.451587D-01  0.000000D+00  0.000000D+00  0.000000D+00
      3   0.000000D+00  0.000000D+00 -0.726753D-02  0.000000D+00  0.000000D+00
      4   0.311307D-01  0.000000D+00  0.000000D+00  0.151985D-01 -0.965363D-02
      5   0.000000D+00  0.125101D+00  0.000000D+00  0.000000D+00  0.000000D+00
      6   0.000000D+00  0.000000D+00  0.305826D-01  0.000000D+00  0.000000D+00
      7  -0.103350D+00  0.000000D+00  0.000000D+00 -0.489969D-01  0.156938D-01
      8   0.000000D+00  0.000000D+00 -0.877700D+00  0.000000D+00  0.000000D+00
      9   0.000000D+00  0.263071D+00  0.000000D+00  0.000000D+00  0.000000D+00
     10   0.000000D+00  0.000000D+00  0.000000D+00  0.000000D+00  0.000000D+00
     11   0.542775D-01  0.000000D+00  0.000000D+00 -0.368670D-01  0.133079D-01
     12   0.122234D+01  0.000000D+00  0.000000D+00  0.262356D+00  0.276150D+00
     13  -0.211420D+00  0.000000D+00  0.000000D+00  0.345741D+00  0.610064D+00
     14   0.000000D+00  0.000000D+00  0.000000D+00  0.000000D+00  0.000000D+00
     15   0.000000D+00  0.107382D+00  0.000000D+00  0.000000D+00  0.000000D+00
     16   0.000000D+00  0.000000D+00 -0.747545D+00  0.000000D+00  0.000000D+00
              1046          1047          1048          1049          1050 
      1  -0.115554D+03 -0.115554D+03 -0.115552D+03 -0.115540D+03 -0.115525D+03
      2   0.000000D+00 -0.643017D-01  0.000000D+00  0.000000D+00  0.000000D+00
      3  -0.486891D-01  0.000000D+00  0.000000D+00  0.527254D-01  0.000000D+00
      4   0.000000D+00  0.000000D+00  0.000000D+00  0.000000D+00  0.000000D+00
      5   0.000000D+00  0.168700D+00  0.000000D+00  0.000000D+00  0.000000D+00
      6   0.160608D+00  0.000000D+00  0.000000D+00 -0.161759D+00  0.000000D+00
      7   0.000000D+00  0.000000D+00  0.000000D+00  0.000000D+00  0.000000D+00
      8  -0.785749D+00  0.000000D+00  0.000000D+00  0.270617D+00  0.000000D+00
      9   0.000000D+00  0.642396D-01  0.000000D+00  0.000000D+00  0.000000D+00
     10   0.000000D+00  0.000000D+00  0.824994D+00  0.000000D+00  0.494876D+00
     11   0.000000D+00  0.000000D+00  0.000000D+00  0.000000D+00  0.000000D+00
     12   0.000000D+00  0.000000D+00  0.000000D+00  0.000000D+00  0.000000D+00
     13   0.000000D+00  0.000000D+00  0.000000D+00  0.000000D+00  0.000000D+00
     14   0.000000D+00  0.000000D+00 -0.827674D+00  0.000000D+00 -0.418506D+00
     15   0.000000D+00  0.554828D-01  0.000000D+00  0.000000D+00  0.000000D+00
     16  -0.160222D+00  0.000000D+00  0.000000D+00  0.338706D+00  0.000000D+00
              1051          1052          1053          1054          1055 
      1  -0.115523D+03 -0.115522D+03 -0.115516D+03 -0.115515D+03 -0.115515D+03
      2   0.000000D+00  0.000000D+00  0.790955D-01  0.000000D+00  0.000000D+00
      3   0.000000D+00  0.000000D+00  0.000000D+00 -0.105870D+00  0.000000D+00
      4   0.618959D-02  0.000000D+00  0.000000D+00  0.000000D+00  0.104344D+00
      5   0.000000D+00  0.000000D+00 -0.217352D+00  0.000000D+00  0.000000D+00
      6   0.000000D+00  0.000000D+00  0.000000D+00  0.324377D+00  0.000000D+00
      7  -0.162244D-01  0.000000D+00  0.000000D+00  0.000000D+00 -0.302587D+00
      8   0.000000D+00  0.000000D+00  0.000000D+00 -0.240186D+00  0.000000D+00
      9   0.000000D+00  0.000000D+00 -0.119501D+00  0.000000D+00  0.000000D+00
     10   0.000000D+00 -0.171642D+00  0.000000D+00  0.000000D+00  0.000000D+00
     11   0.305984D-01  0.000000D+00  0.000000D+00  0.000000D+00 -0.201371D+00
     12  -0.501331D-01  0.000000D+00  0.000000D+00  0.000000D+00 -0.153219D+01
     13  -0.236145D-01  0.000000D+00  0.000000D+00  0.000000D+00  0.294727D+00
     14   0.000000D+00  0.486186D+00  0.000000D+00  0.000000D+00  0.000000D+00
     15   0.000000D+00  0.000000D+00 -0.930095D-01  0.000000D+00  0.000000D+00
     16   0.000000D+00  0.000000D+00  0.000000D+00 -0.295287D+00  0.000000D+00
              1056          1057          1058          1059          1060 
      1  -0.115498D+03 -0.115495D+03 -0.115490D+03 -0.115486D+03 -0.115483D+03
      2   0.000000D+00  0.000000D+00  0.000000D+00  0.000000D+00 -0.126224D+00
      3   0.000000D+00  0.137740D-01  0.000000D+00  0.127643D+00  0.000000D+00
      4   0.000000D+00  0.000000D+00  0.158461D+00  0.000000D+00  0.000000D+00
      5   0.000000D+00  0.000000D+00  0.000000D+00  0.000000D+00  0.367785D+00
      6   0.000000D+00 -0.533930D-01  0.000000D+00 -0.385479D+00  0.000000D+00
      7   0.000000D+00  0.000000D+00 -0.452676D+00  0.000000D+00  0.000000D+00
      8   0.000000D+00  0.439932D-01  0.000000D+00  0.115981D+00  0.000000D+00
      9   0.000000D+00  0.000000D+00  0.000000D+00  0.000000D+00 -0.624258D-01
     10   0.745846D-01  0.000000D+00  0.000000D+00  0.000000D+00  0.000000D+00
     11   0.000000D+00  0.000000D+00  0.405033D-01  0.000000D+00  0.000000D+00
     12   0.000000D+00  0.000000D+00  0.153288D+00  0.000000D+00  0.000000D+00
     13   0.000000D+00  0.000000D+00 -0.790462D-01  0.000000D+00  0.000000D+00
     14  -0.135184D+00  0.000000D+00  0.000000D+00  0.000000D+00  0.000000D+00
     15   0.000000D+00  0.000000D+00  0.000000D+00  0.000000D+00  0.265908D-01
     16   0.000000D+00  0.245792D+00  0.000000D+00  0.938877D-01  0.000000D+00
              1061          1062          1063          1064          1065 
      1  -0.115473D+03 -0.115471D+03 -0.115468D+03 -0.115457D+03 -0.115451D+03
      2   0.000000D+00  0.000000D+00  0.000000D+00  0.000000D+00 -0.715021D-01
      3   0.000000D+00  0.178637D-01  0.000000D+00 -0.225804D-03  0.000000D+00
      4   0.000000D+00  0.000000D+00 -0.252891D-01  0.000000D+00  0.000000D+00
      5   0.000000D+00  0.000000D+00  0.000000D+00  0.000000D+00  0.194419D+00
      6   0.000000D+00 -0.389812D-01  0.000000D+00  0.139443D-01  0.000000D+00
      7   0.000000D+00  0.000000D+00  0.611629D-01  0.000000D+00  0.000000D+00
      8   0.000000D+00  0.170332D+00  0.000000D+00  0.446189D+00  0.000000D+00
      9   0.000000D+00  0.000000D+00  0.000000D+00  0.000000D+00 -0.259168D-01
     10  -0.108526D+00  0.000000D+00  0.000000D+00  0.000000D+00  0.000000D+00
     11   0.000000D+00  0.000000D+00  0.319711D-01  0.000000D+00  0.000000D+00
     12   0.000000D+00  0.000000D+00 -0.996705D+00  0.000000D+00  0.000000D+00
     13   0.000000D+00  0.000000D+00 -0.135609D+00  0.000000D+00  0.000000D+00
     14  -0.330655D-01  0.000000D+00  0.000000D+00  0.000000D+00  0.000000D+00
     15   0.000000D+00  0.000000D+00  0.000000D+00  0.000000D+00 -0.180816D-01
     16   0.000000D+00  0.365852D+00  0.000000D+00  0.413800D+00  0.000000D+00
              1066          1067          1068          1069          1070 
      1  -0.115451D+03 -0.115450D+03 -0.115447D+03 -0.115439D+03 -0.115433D+03
      2   0.000000D+00  0.000000D+00  0.000000D+00  0.329505D-01 -0.748605D-02
      3   0.126296D+00  0.000000D+00  0.000000D+00  0.000000D+00  0.000000D+00
      4   0.000000D+00  0.000000D+00  0.162472D-01  0.000000D+00  0.000000D+00
      5   0.000000D+00  0.000000D+00  0.000000D+00 -0.107726D+00  0.471888D-03
      6  -0.378112D+00  0.000000D+00  0.000000D+00  0.000000D+00  0.000000D+00
      7   0.000000D+00  0.000000D+00 -0.478409D-01  0.000000D+00  0.000000D+00
      8  -0.573586D+00  0.000000D+00  0.000000D+00  0.000000D+00  0.000000D+00
      9   0.000000D+00  0.000000D+00  0.000000D+00 -0.933256D-01  0.131616D+00
     10   0.000000D+00 -0.632099D+00  0.000000D+00  0.000000D+00  0.000000D+00
     11   0.000000D+00  0.000000D+00 -0.125608D+00  0.000000D+00  0.000000D+00
     12   0.000000D+00  0.000000D+00  0.790186D-01  0.000000D+00  0.000000D+00
     13   0.000000D+00  0.000000D+00  0.447931D+00  0.000000D+00  0.000000D+00
     14   0.000000D+00  0.580718D+00  0.000000D+00  0.000000D+00  0.000000D+00
     15   0.000000D+00  0.000000D+00  0.000000D+00 -0.148996D+00  0.134687D+00
     16  -0.319940D+00  0.000000D+00  0.000000D+00  0.000000D+00  0.000000D+00
              1071          1072          1073          1074          1075 
      1  -0.115425D+03 -0.115423D+03 -0.115421D+03 -0.115414D+03 -0.115406D+03
      2   0.000000D+00  0.000000D+00 -0.113627D+00  0.000000D+00  0.000000D+00
      3   0.000000D+00  0.000000D+00  0.000000D+00  0.000000D+00  0.000000D+00
      4   0.414256D-01 -0.882855D-01  0.000000D+00  0.000000D+00  0.000000D+00
      5   0.000000D+00  0.000000D+00  0.353315D+00  0.000000D+00  0.000000D+00
      6   0.000000D+00  0.000000D+00  0.000000D+00  0.000000D+00  0.000000D+00
      7  -0.110007D+00  0.285136D+00  0.000000D+00  0.000000D+00  0.000000D+00
      8   0.000000D+00  0.000000D+00  0.000000D+00  0.000000D+00  0.000000D+00
      9   0.000000D+00  0.000000D+00  0.718902D-01  0.000000D+00  0.000000D+00
     10   0.000000D+00  0.000000D+00  0.000000D+00  0.354956D-02 -0.628368D+00
     11  -0.346380D-01 -0.407343D-02  0.000000D+00  0.000000D+00  0.000000D+00
     12  -0.611838D+00 -0.166195D+00  0.000000D+00  0.000000D+00  0.000000D+00
     13   0.263663D-01  0.286352D+00  0.000000D+00  0.000000D+00  0.000000D+00
     14   0.000000D+00  0.000000D+00  0.000000D+00 -0.168258D-01  0.578168D+00
     15   0.000000D+00  0.000000D+00  0.458158D-01  0.000000D+00  0.000000D+00
     16   0.000000D+00  0.000000D+00  0.000000D+00  0.000000D+00  0.000000D+00
              1076          1077          1078          1079          1080 
      1  -0.115404D+03 -0.115402D+03 -0.115390D+03 -0.115388D+03 -0.115375D+03
      2   0.000000D+00  0.000000D+00  0.000000D+00  0.388916D-03  0.000000D+00
      3   0.000000D+00  0.200265D-01 -0.468079D-02  0.000000D+00  0.000000D+00
      4   0.437664D-01  0.000000D+00  0.000000D+00  0.000000D+00 -0.127249D-01
      5   0.000000D+00  0.000000D+00  0.000000D+00 -0.420827D-02  0.000000D+00
      6   0.000000D+00 -0.357969D-01  0.180264D-01  0.000000D+00  0.000000D+00
      7  -0.137283D+00  0.000000D+00  0.000000D+00  0.000000D+00  0.276912D-01
      8   0.000000D+00 -0.239760D+00 -0.495598D-01  0.000000D+00  0.000000D+00
      9   0.000000D+00  0.000000D+00  0.000000D+00  0.207711D+00  0.000000D+00
     10   0.000000D+00  0.000000D+00  0.000000D+00  0.000000D+00  0.000000D+00
     11   0.851671D-01  0.000000D+00  0.000000D+00  0.000000D+00  0.177952D+00
     12   0.336774D+00  0.000000D+00  0.000000D+00  0.000000D+00 -0.533111D+00
     13   0.361445D+00  0.000000D+00  0.000000D+00  0.000000D+00 -0.187710D+00
     14   0.000000D+00  0.000000D+00  0.000000D+00  0.000000D+00  0.000000D+00
     15   0.000000D+00  0.000000D+00  0.000000D+00  0.235535D+00  0.000000D+00
     16   0.000000D+00 -0.579826D-01 -0.636825D+00  0.000000D+00  0.000000D+00
              1081          1082          1083          1084          1085 
      1  -0.115371D+03 -0.115369D+03 -0.115358D+03 -0.115356D+03 -0.115353D+03
      2   0.000000D+00  0.000000D+00 -0.770893D-01  0.000000D+00  0.000000D+00
      3   0.872571D-02  0.000000D+00  0.000000D+00 -0.571109D-02  0.000000D+00
      4   0.000000D+00  0.000000D+00  0.000000D+00  0.000000D+00  0.000000D+00
      5   0.000000D+00  0.000000D+00  0.225849D+00  0.000000D+00  0.000000D+00
      6  -0.345679D-01  0.000000D+00  0.000000D+00  0.140989D-01  0.000000D+00
      7   0.000000D+00  0.000000D+00  0.000000D+00  0.000000D+00  0.000000D+00
      8   0.217608D-01  0.000000D+00  0.000000D+00 -0.456675D+00  0.000000D+00
      9   0.000000D+00  0.000000D+00 -0.418837D-01  0.000000D+00  0.000000D+00
     10   0.000000D+00  0.502035D-01  0.000000D+00  0.000000D+00  0.328632D+00
     11   0.000000D+00  0.000000D+00  0.000000D+00  0.000000D+00  0.000000D+00
     12   0.000000D+00  0.000000D+00  0.000000D+00  0.000000D+00  0.000000D+00
     13   0.000000D+00  0.000000D+00  0.000000D+00  0.000000D+00  0.000000D+00
     14   0.000000D+00 -0.686662D-01  0.000000D+00  0.000000D+00 -0.234539D+00
     15   0.000000D+00  0.000000D+00  0.201895D-01  0.000000D+00  0.000000D+00
     16   0.322308D+00  0.000000D+00  0.000000D+00 -0.561000D+00  0.000000D+00
              1086          1087          1088          1089          1090 
      1  -0.115337D+03 -0.115336D+03 -0.115322D+03 -0.115314D+03 -0.115310D+03
      2   0.000000D+00  0.000000D+00  0.000000D+00 -0.256298D-01  0.000000D+00
      3   0.000000D+00  0.000000D+00 -0.193063D-01  0.000000D+00  0.000000D+00
      4   0.559297D-03  0.000000D+00  0.000000D+00  0.000000D+00  0.186093D-01
      5   0.000000D+00  0.000000D+00  0.000000D+00  0.749339D-01  0.000000D+00
      6   0.000000D+00  0.000000D+00  0.677110D-01  0.000000D+00  0.000000D+00
      7   0.103690D-01  0.000000D+00  0.000000D+00  0.000000D+00 -0.441993D-01
      8   0.000000D+00  0.000000D+00 -0.332071D+00  0.000000D+00  0.000000D+00
      9   0.000000D+00  0.000000D+00  0.000000D+00 -0.112750D+00  0.000000D+00
     10   0.000000D+00 -0.625058D-02  0.000000D+00  0.000000D+00  0.000000D+00
     11   0.774665D-01  0.000000D+00  0.000000D+00  0.000000D+00  0.102239D+00
     12  -0.989051D+00  0.000000D+00  0.000000D+00  0.000000D+00 -0.104293D+01
     13  -0.334577D-01  0.000000D+00  0.000000D+00  0.000000D+00 -0.281036D+00
     14   0.000000D+00 -0.572181D-01  0.000000D+00  0.000000D+00  0.000000D+00
     15   0.000000D+00  0.000000D+00  0.000000D+00 -0.189445D+00  0.000000D+00
     16   0.000000D+00  0.000000D+00 -0.363978D+00  0.000000D+00  0.000000D+00
              1091          1092          1093          1094          1095 
      1  -0.115300D+03 -0.115294D+03 -0.115286D+03 -0.115270D+03 -0.115261D+03
      2  -0.250440D-01  0.000000D+00  0.000000D+00  0.000000D+00  0.000000D+00
      3   0.000000D+00  0.000000D+00  0.000000D+00  0.000000D+00  0.432280D-01
      4   0.000000D+00 -0.571448D-01 -0.208229D-01  0.000000D+00  0.000000D+00
      5   0.637071D-01  0.000000D+00  0.000000D+00  0.000000D+00  0.000000D+00
      6   0.000000D+00  0.000000D+00  0.000000D+00  0.000000D+00 -0.113755D+00
      7   0.000000D+00  0.144960D+00  0.607106D-01  0.000000D+00  0.000000D+00
      8   0.000000D+00  0.000000D+00  0.000000D+00  0.000000D+00 -0.434518D+00
      9   0.215067D+00  0.000000D+00  0.000000D+00  0.000000D+00  0.000000D+00
     10   0.000000D+00  0.000000D+00  0.000000D+00  0.716128D+00  0.000000D+00
     11   0.000000D+00  0.150501D+00  0.606100D-01  0.000000D+00  0.000000D+00
     12   0.000000D+00 -0.571899D+00  0.444469D-01  0.000000D+00  0.000000D+00
     13   0.000000D+00 -0.276058D+00  0.454740D+00  0.000000D+00  0.000000D+00
     14   0.000000D+00  0.000000D+00  0.000000D+00 -0.752411D+00  0.000000D+00
     15   0.246988D+00  0.000000D+00  0.000000D+00  0.000000D+00  0.000000D+00
     16   0.000000D+00  0.000000D+00  0.000000D+00  0.000000D+00 -0.305095D-01
              1096          1097          1098          1099          1100 
      1  -0.115210D+03 -0.115202D+03 -0.115198D+03 -0.115195D+03 -0.115184D+03
      2   0.000000D+00  0.000000D+00  0.000000D+00  0.000000D+00  0.412165D-01
      3  -0.552694D-01  0.000000D+00  0.000000D+00  0.289039D-01  0.000000D+00
      4   0.000000D+00  0.467332D-01  0.000000D+00  0.000000D+00  0.000000D+00
      5   0.000000D+00  0.000000D+00  0.000000D+00  0.000000D+00 -0.124281D+00
      6   0.125185D+00  0.000000D+00  0.000000D+00 -0.594338D-01  0.000000D+00
      7   0.000000D+00 -0.137693D+00  0.000000D+00  0.000000D+00  0.000000D+00
      8  -0.256679D-01  0.000000D+00  0.000000D+00  0.331583D+00  0.000000D+00
      9   0.000000D+00  0.000000D+00  0.000000D+00  0.000000D+00  0.293491D+00
     10   0.000000D+00  0.000000D+00 -0.332474D-01  0.000000D+00  0.000000D+00
     11   0.000000D+00 -0.150820D+00  0.000000D+00  0.000000D+00  0.000000D+00
     12   0.000000D+00 -0.433994D+00  0.000000D+00  0.000000D+00  0.000000D+00
     13   0.000000D+00  0.241890D+00  0.000000D+00  0.000000D+00  0.000000D+00
     14   0.000000D+00  0.000000D+00 -0.738092D-01  0.000000D+00  0.000000D+00
     15   0.000000D+00  0.000000D+00  0.000000D+00  0.000000D+00 -0.410787D-01
     16  -0.325640D+00  0.000000D+00  0.000000D+00  0.641838D-01  0.000000D+00
              1101          1102          1103          1104          1105 
      1  -0.115161D+03 -0.115154D+03 -0.115114D+03 -0.115105D+03 -0.115104D+03
      2   0.000000D+00  0.531272D-01  0.000000D+00  0.000000D+00  0.735886D-01
      3   0.000000D+00  0.000000D+00  0.000000D+00 -0.476941D-01  0.000000D+00
      4  -0.529112D-01  0.000000D+00  0.504290D-01  0.000000D+00  0.000000D+00
      5   0.000000D+00 -0.152910D+00  0.000000D+00  0.000000D+00 -0.220443D+00
      6   0.000000D+00  0.000000D+00  0.000000D+00  0.153211D+00  0.000000D+00
      7   0.168445D+00  0.000000D+00 -0.132454D+00  0.000000D+00  0.000000D+00
      8   0.000000D+00  0.000000D+00  0.000000D+00  0.641010D+00  0.000000D+00
      9   0.000000D+00  0.369014D-01  0.000000D+00  0.000000D+00  0.545092D-01
     10   0.000000D+00  0.000000D+00  0.000000D+00  0.000000D+00  0.000000D+00
     11   0.152843D+00  0.000000D+00  0.124054D+00  0.000000D+00  0.000000D+00
     12   0.660830D+00  0.000000D+00  0.312495D+00  0.000000D+00  0.000000D+00
     13  -0.114287D+00  0.000000D+00 -0.348223D+00  0.000000D+00  0.000000D+00
     14   0.000000D+00  0.000000D+00  0.000000D+00  0.000000D+00  0.000000D+00
     15   0.000000D+00 -0.991317D-02  0.000000D+00  0.000000D+00 -0.341157D-01
     16   0.000000D+00  0.000000D+00  0.000000D+00  0.547153D+00  0.000000D+00
              1106          1107          1108          1109          1110 
      1  -0.115059D+03 -0.115051D+03 -0.115002D+03 -0.114994D+03 -0.114968D+03
      2   0.000000D+00  0.000000D+00  0.000000D+00  0.000000D+00  0.895891D-01
      3   0.000000D+00 -0.393873D-01  0.000000D+00  0.000000D+00  0.000000D+00
      4   0.000000D+00  0.000000D+00  0.000000D+00 -0.729142D-01  0.000000D+00
      5   0.000000D+00  0.000000D+00  0.000000D+00  0.000000D+00 -0.273068D+00
      6   0.000000D+00  0.103484D+00  0.000000D+00  0.000000D+00  0.000000D+00
      7   0.000000D+00  0.000000D+00  0.000000D+00  0.213731D+00  0.000000D+00
      8   0.000000D+00  0.211553D+00  0.000000D+00  0.000000D+00  0.000000D+00
      9   0.000000D+00  0.000000D+00  0.000000D+00  0.000000D+00 -0.132065D+00
     10   0.438292D+00  0.000000D+00  0.386271D+00  0.000000D+00  0.000000D+00
     11   0.000000D+00  0.000000D+00  0.000000D+00  0.851059D-01  0.000000D+00
     12   0.000000D+00  0.000000D+00  0.000000D+00  0.347665D+00  0.000000D+00
     13   0.000000D+00  0.000000D+00  0.000000D+00 -0.104446D+00  0.000000D+00
     14  -0.383191D+00  0.000000D+00 -0.443782D+00  0.000000D+00  0.000000D+00
     15   0.000000D+00  0.000000D+00  0.000000D+00  0.000000D+00 -0.859568D-01
     16   0.000000D+00  0.796592D-01  0.000000D+00  0.000000D+00  0.000000D+00
 Unable to Open any file for archive entry.
 1\1\GINC-HEL10\SP\RPBE1PBE TD-FC\Gen\C3H8\SABYASACHI\21-Mar-2022\0\\#P
  TD(Nstates=10000) pbe1pbe/Gen SCF(maxcycles=100) Int(Grid=ultrafine)\
 \xGDB7_00001_tier4.com\\0,1\C,0,0.,1.267731,-0.259082\C,0,0.,0.,0.5855
 52\C,0,0.,-1.267731,-0.259082\H,0,0.,2.164308,0.363087\H,0,-0.881453,1
 .307675,-0.903652\H,0,0.881453,1.307675,-0.903652\H,0,-0.874532,0.,1.2
 42055\H,0,0.874532,0.,1.242055\H,0,-0.881453,-1.307675,-0.903652\H,0,0
 .,-2.164308,0.363087\H,0,0.881453,-1.307675,-0.903652\\Version=EM64L-G
 16RevC.01\State=1-A1\HF=-118.9071732\RMSD=4.758e-09\PG=C02V [C2(C1),SG
 V(C2H2),SGV'(H2),X(H4)]\\@
 The archive entry for this job was punched.


 A true friend is someone who is there for
 you when he'd rather be anywhere else.
                               -- Len Wein
 Job cpu time:       0 days  0 hours 11 minutes  5.1 seconds.
 Elapsed time:       0 days  0 hours  1 minutes 23.4 seconds.
 File lengths (MBytes):  RWF=   1598 Int=      0 D2E=      0 Chk=    404 Scr=      1
 Normal termination of Gaussian 16 at Mon Mar 21 20:25:33 2022.
