 Entering Gaussian System, Link 0=g16
 Input=000008.com
 Output=000008.log
 Initial command:
 /home/sabyasachi/g16/l1.exe "/scratch/sabyasachi/PBS_7976472.helios/Gau-159519.inp" -scrdir="/scratch/sabyasachi/PBS_7976472.helios/"
 Entering Link 1 = /home/sabyasachi/g16/l1.exe PID=    159520.
  
 Copyright (c) 1988-2019, Gaussian, Inc.  All Rights Reserved.
  
 This is part of the Gaussian(R) 16 program.  It is based on
 the Gaussian(R) 09 system (copyright 2009, Gaussian, Inc.),
 the Gaussian(R) 03 system (copyright 2003, Gaussian, Inc.),
 the Gaussian(R) 98 system (copyright 1998, Gaussian, Inc.),
 the Gaussian(R) 94 system (copyright 1995, Gaussian, Inc.),
 the Gaussian 92(TM) system (copyright 1992, Gaussian, Inc.),
 the Gaussian 90(TM) system (copyright 1990, Gaussian, Inc.),
 the Gaussian 88(TM) system (copyright 1988, Gaussian, Inc.),
 the Gaussian 86(TM) system (copyright 1986, Carnegie Mellon
 University), and the Gaussian 82(TM) system (copyright 1983,
 Carnegie Mellon University). Gaussian is a federally registered
 trademark of Gaussian, Inc.
  
 This software contains proprietary and confidential information,
 including trade secrets, belonging to Gaussian, Inc.
  
 This software is provided under written license and may be
 used, copied, transmitted, or stored only in accord with that
 written license.
  
 The following legend is applicable only to US Government
 contracts under FAR:
  
                    RESTRICTED RIGHTS LEGEND
  
 Use, reproduction and disclosure by the US Government is
 subject to restrictions as set forth in subparagraphs (a)
 and (c) of the Commercial Computer Software - Restricted
 Rights clause in FAR 52.227-19.
  
 Gaussian, Inc.
 340 Quinnipiac St., Bldg. 40, Wallingford CT 06492
  
  
 ---------------------------------------------------------------
 Warning -- This program may not be used in any manner that
 competes with the business of Gaussian, Inc. or will provide
 assistance to any competitor of Gaussian, Inc.  The licensee
 of this program is prohibited from giving any competitor of
 Gaussian, Inc. access to this program.  By using this program,
 the user acknowledges that Gaussian, Inc. is engaged in the
 business of creating and licensing software in the field of
 computational chemistry and represents and warrants to the
 licensee that it is not a competitor of Gaussian, Inc. and that
 it will not use this program in any manner prohibited above.
 ---------------------------------------------------------------
  

 Cite this work as:
 Gaussian 16, Revision C.01,
 M. J. Frisch, G. W. Trucks, H. B. Schlegel, G. E. Scuseria, 
 M. A. Robb, J. R. Cheeseman, G. Scalmani, V. Barone, 
 G. A. Petersson, H. Nakatsuji, X. Li, M. Caricato, A. V. Marenich, 
 J. Bloino, B. G. Janesko, R. Gomperts, B. Mennucci, H. P. Hratchian, 
 J. V. Ortiz, A. F. Izmaylov, J. L. Sonnenberg, D. Williams-Young, 
 F. Ding, F. Lipparini, F. Egidi, J. Goings, B. Peng, A. Petrone, 
 T. Henderson, D. Ranasinghe, V. G. Zakrzewski, J. Gao, N. Rega, 
 G. Zheng, W. Liang, M. Hada, M. Ehara, K. Toyota, R. Fukuda, 
 J. Hasegawa, M. Ishida, T. Nakajima, Y. Honda, O. Kitao, H. Nakai, 
 T. Vreven, K. Throssell, J. A. Montgomery, Jr., J. E. Peralta, 
 F. Ogliaro, M. J. Bearpark, J. J. Heyd, E. N. Brothers, K. N. Kudin, 
 V. N. Staroverov, T. A. Keith, R. Kobayashi, J. Normand, 
 K. Raghavachari, A. P. Rendell, J. C. Burant, S. S. Iyengar, 
 J. Tomasi, M. Cossi, J. M. Millam, M. Klene, C. Adamo, R. Cammi, 
 J. W. Ochterski, R. L. Martin, K. Morokuma, O. Farkas, 
 J. B. Foresman, and D. J. Fox, Gaussian, Inc., Wallingford CT, 2019.
 
 ******************************************
 Gaussian 16:  EM64L-G16RevC.01  3-Jul-2019
                21-Mar-2022 
 ******************************************
 %mem=64gb
 %nproc=8
 Will use up to    8 processors via shared memory.
 ----------------------------------------------------------------------
 #P TD(Nstates=10000) pbe1pbe/Gen SCF(maxcycles=100) Int(Grid=ultrafine
 )
 ----------------------------------------------------------------------
 1/38=1,172=1/1;
 2/12=2,17=6,18=5,40=1/2;
 3/5=7,11=9,25=1,30=1,74=-13,75=-5/1,2,3,8;
 4//1;
 5/5=2,7=100,38=5/2;
 8/6=1,10=1,108=10000/1;
 9/41=10000,42=1,70=2/14;
 6/7=2,8=2,9=2,10=2/1;
 99/5=1,9=1/99;
 Leave Link    1 at Mon Mar 21 20:20:51 2022, MaxMem=  8589934592 cpu:               0.4 elap:               0.1
 (Enter /home/sabyasachi/g16/l101.exe)
 ---------------------
 xGDB7_00001_tier4.com
 ---------------------
 Symbolic Z-matrix:
 Charge =  0 Multiplicity = 1
 6                    -0.63015  0.         0. 
 9                     0.74851   0.       0. 
 1                    -0.98525   0.89968   0.50542 
 1                    -0.98522  -0.88756   0.52642 
 1                    -0.98525  -0.01213  -1.03184 
 
 ITRead=  0  0  0  0  0
 MicOpt= -1 -1 -1 -1 -1
 NAtoms=      5 NQM=        5 NQMF=       0 NMMI=      0 NMMIF=      0
                NMic=       0 NMicF=      0.
                    Isotopes and Nuclear Properties:
 (Nuclear quadrupole moments (NQMom) in fm**2, nuclear magnetic moments (NMagM)
  in nuclear magnetons)

  Atom         1           2           3           4           5
 IAtWgt=          12          19           1           1           1
 AtmWgt=  12.0000000  18.9984033   1.0078250   1.0078250   1.0078250
 NucSpn=           0           1           1           1           1
 AtZEff=  -0.0000000  -0.0000000  -0.0000000  -0.0000000  -0.0000000
 NQMom=    0.0000000   0.0000000   0.0000000   0.0000000   0.0000000
 NMagM=    0.0000000   2.6288670   2.7928460   2.7928460   2.7928460
 AtZNuc=   6.0000000   9.0000000   1.0000000   1.0000000   1.0000000
 Leave Link  101 at Mon Mar 21 20:20:52 2022, MaxMem=  8589934592 cpu:               0.6 elap:               0.1
 (Enter /home/sabyasachi/g16/l202.exe)
                          Input orientation:                          
 ---------------------------------------------------------------------
 Center     Atomic      Atomic             Coordinates (Angstroms)
 Number     Number       Type             X           Y           Z
 ---------------------------------------------------------------------
      1          6           0       -0.630149   -0.000001    0.000003
      2          9           0        0.748512    0.000002   -0.000001
      3          1           0       -0.985250    0.899676    0.505416
      4          1           0       -0.985222   -0.887557    0.526417
      5          1           0       -0.985245   -0.012128   -1.031840
 ---------------------------------------------------------------------
                    Distance matrix (angstroms):
                    1          2          3          4          5
     1  C    0.000000
     2  F    1.378661   0.000000
     3  H    1.091310   2.017620   0.000000
     4  H    1.091304   2.017600   1.787356   0.000000
     5  H    1.091302   2.017611   1.787328   1.787328   0.000000
 Stoichiometry    CH3F
 Framework group  C1[X(CH3F)]
 Deg. of freedom     9
 Full point group                 C1      NOp   1
 Largest Abelian subgroup         C1      NOp   1
 Largest concise Abelian subgroup C1      NOp   1
                         Standard orientation:                         
 ---------------------------------------------------------------------
 Center     Atomic      Atomic             Coordinates (Angstroms)
 Number     Number       Type             X           Y           Z
 ---------------------------------------------------------------------
      1          6           0        0.630149   -0.000001   -0.000003
      2          9           0       -0.748512    0.000002    0.000001
      3          1           0        0.985250    0.897475   -0.509314
      4          1           0        0.985222   -0.889832   -0.522562
      5          1           0        0.985245   -0.007652    1.031883
 ---------------------------------------------------------------------
 Rotational constants (GHZ):         156.9708152          25.8428001          25.8427103
 Leave Link  202 at Mon Mar 21 20:20:52 2022, MaxMem=  8589934592 cpu:               0.1 elap:               0.0
 (Enter /home/sabyasachi/g16/l301.exe)
 General basis read from cards:  (5D, 7F)
 Centers:       3      4      5
 S 3 1.00
     Exponent=  1.3010701000D+01 Coefficients=  1.9682158000D-02
     Exponent=  1.9622572000D+00 Coefficients=  1.3796524000D-01
     Exponent=  4.4453796000D-01 Coefficients=  4.7831935000D-01
 S 1 1.00
     Exponent=  1.2194962000D-01 Coefficients=  1.0000000000D+00
 P 1 1.00
     Exponent=  8.0000000000D-01 Coefficients=  1.0000000000D+00
 P 1 1.00
     Exponent=  1.1704099050D-01 Coefficients=  1.0000000000D+00
 ****
 Centers:       1
 S 5 1.00
     Exponent=  1.2384016938D+03 Coefficients=  5.4568832082D-03
     Exponent=  1.8629004992D+02 Coefficients=  4.0638409211D-02
     Exponent=  4.2251176346D+01 Coefficients=  1.8025593888D-01
     Exponent=  1.1676557932D+01 Coefficients=  4.6315121755D-01
     Exponent=  3.5930506482D+00 Coefficients=  4.4087173314D-01
 S 1 1.00
     Exponent=  4.0245147363D-01 Coefficients=  1.0000000000D+00
 S 1 1.00
     Exponent=  1.3090182668D-01 Coefficients=  1.0000000000D+00
 S 1 1.00
     Exponent=  6.7053540256D-02 Coefficients=  1.0000000000D+00
 P 3 1.00
     Exponent=  9.4680970621D+00 Coefficients=  3.8387871728D-02
     Exponent=  2.0103545142D+00 Coefficients=  2.1117025112D-01
     Exponent=  5.4771004707D-01 Coefficients=  5.1328172114D-01
 P 1 1.00
     Exponent=  1.5268613795D-01 Coefficients=  1.0000000000D+00
 D 1 1.00
     Exponent=  8.0000000000D-01 Coefficients=  1.0000000000D+00
 D 1 1.00
     Exponent=  1.1713185140D-01 Coefficients=  1.0000000000D+00
 ****
 Centers:       2
 S 5 1.00
     Exponent=  2.8948325990D+03 Coefficients= -5.3408255515D-03
     Exponent=  4.3541939120D+02 Coefficients= -3.9904258866D-02
     Exponent=  9.8843328866D+01 Coefficients= -1.7912768038D-01
     Exponent=  2.7485198001D+01 Coefficients= -4.6758090825D-01
     Exponent=  8.5405498171D+00 Coefficients= -4.4653131020D-01
 S 1 1.00
     Exponent=  1.0654578038D+00 Coefficients=  1.0000000000D+00
 S 1 1.00
     Exponent=  3.3247346748D-01 Coefficients=  1.0000000000D+00
 S 1 1.00
     Exponent=  9.8097752264D-02 Coefficients=  1.0000000000D+00
 P 3 1.00
     Exponent=  2.2696633924D+01 Coefficients= -4.5212874436D-02
     Exponent=  4.9872339257D+00 Coefficients= -2.3754317067D-01
     Exponent=  1.3491613954D+00 Coefficients= -5.1287353587D-01
 P 1 1.00
     Exponent=  3.4829881977D-01 Coefficients=  1.0000000000D+00
 P 1 1.00
     Exponent=  8.3372148304D-02 Coefficients=  1.0000000000D+00
 D 1 1.00
     Exponent=  1.4000000000D+00 Coefficients=  1.0000000000D+00
 D 1 1.00
     Exponent=  2.2301361948D-01 Coefficients=  1.0000000000D+00
 ****
 Ernie: Thresh=  0.10000D-02 Tol=  0.10000D-05 Strict=F.
 There are    71 symmetry adapted cartesian basis functions of A   symmetry.
 There are    67 symmetry adapted basis functions of A   symmetry.
    67 basis functions,    97 primitive gaussians,    71 cartesian basis functions
     9 alpha electrons        9 beta electrons
       nuclear repulsion energy        37.4250480537 Hartrees.
 IExCor= 1009 DFT=T Ex+Corr=PBE1PBE ExCW=0 ScaHFX=  0.250000
 ScaDFX=  0.750000  0.750000  1.000000  1.000000 ScalE2=  1.000000  1.000000
 IRadAn=      5 IRanWt=     -1 IRanGd=            0 ICorTp=0 IEmpDi=  4
 NAtoms=    5 NActive=    5 NUniq=    5 SFac= 1.00D+00 NAtFMM=   60 NAOKFM=F Big=F
 Integral buffers will be    131072 words long.
 Regular integral format.
 Two-electron integral symmetry is turned on.
 Leave Link  301 at Mon Mar 21 20:20:52 2022, MaxMem=  8589934592 cpu:               0.5 elap:               0.1
 (Enter /home/sabyasachi/g16/l302.exe)
 NPDir=0 NMtPBC=     1 NCelOv=     1 NCel=       1 NClECP=     1 NCelD=      1
         NCelK=      1 NCelE2=     1 NClLst=     1 CellRange=     0.0.
 One-electron integrals computed using PRISM.
 One-electron integral symmetry used in STVInt
 NBasis=    67 RedAO= T EigKep=  6.61D-04  NBF=    67
 NBsUse=    67 1.00D-06 EigRej= -1.00D+00 NBFU=    67
 Precomputing XC quadrature grid using
 IXCGrd= 4 IRadAn=           5 IRanWt=          -1 IRanGd=           0 AccXCQ= 0.00D+00.
 Generated NRdTot=       0 NPtTot=           0 NUsed=           0 NTot=          32
 NSgBfM=    71    71    71    71    71 MxSgAt=     5 MxSgA2=     5.
 Leave Link  302 at Mon Mar 21 20:20:52 2022, MaxMem=  8589934592 cpu:               0.9 elap:               0.1
 (Enter /home/sabyasachi/g16/l303.exe)
 DipDrv:  MaxL=1.
 Leave Link  303 at Mon Mar 21 20:20:52 2022, MaxMem=  8589934592 cpu:               0.2 elap:               0.0
 (Enter /home/sabyasachi/g16/l308.exe)
 Leave Link  308 at Mon Mar 21 20:20:52 2022, MaxMem=  8589934592 cpu:               0.2 elap:               0.0
 (Enter /home/sabyasachi/g16/l401.exe)
 ExpMin= 6.71D-02 ExpMax= 2.89D+03 ExpMxC= 4.35D+02 IAcc=3 IRadAn=         5 AccDes= 0.00D+00
 Harris functional with IExCor= 1009 and IRadAn=       5 diagonalized for initial guess.
 HarFok:  IExCor= 1009 AccDes= 0.00D+00 IRadAn=         5 IDoV= 1 UseB2=F ITyADJ=14
 ICtDFT=  3500011 ScaDFX=  1.000000  1.000000  1.000000  1.000000
 FoFCou: FMM=F IPFlag=           0 FMFlag=      100000 FMFlg1=           0
         NFxFlg=           0 DoJE=T BraDBF=F KetDBF=T FulRan=T
         wScrn=  0.000000 ICntrl=       500 IOpCl=  0 I1Cent=   200000004 NGrid=           0
         NMat0=    1 NMatS0=      1 NMatT0=    0 NMatD0=    1 NMtDS0=    0 NMtDT0=    0
 Petite list used in FoFCou.
 Harris En= -139.515084539243    
 JPrj=0 DoOrth=F DoCkMO=F.
 Leave Link  401 at Mon Mar 21 20:20:52 2022, MaxMem=  8589934592 cpu:               1.9 elap:               0.3
 (Enter /home/sabyasachi/g16/l502.exe)
 Keep R1 ints in memory in canonical form, NReq=9744729.
 FoFCou: FMM=F IPFlag=           0 FMFlag=           0 FMFlg1=           0
         NFxFlg=           0 DoJE=F BraDBF=F KetDBF=F FulRan=T
         wScrn=  0.000000 ICntrl=       600 IOpCl=  0 I1Cent=           0 NGrid=           0
         NMat0=    1 NMatS0=   2278 NMatT0=    0 NMatD0=    1 NMtDS0=    0 NMtDT0=    0
 Symmetry not used in FoFCou.
 Two-electron integral symmetry not used.
 Closed shell SCF:
 Using DIIS extrapolation, IDIIS=  1040.
 NGot=  8589934592 LenX=  8587327203 LenY=  8587321721
 Requested convergence on RMS density matrix=1.00D-08 within 100 cycles.
 Requested convergence on MAX density matrix=1.00D-06.
 Requested convergence on             energy=1.00D-06.
 No special actions if energy rises.
 Integral accuracy reduced to 1.0D-05 until final iterations.

 Cycle   1  Pass 0  IDiag  1:
 E= -139.473347143208    
 DIIS: error= 1.61D-02 at cycle   1 NSaved=   1.
 NSaved= 1 IEnMin= 1 EnMin= -139.473347143208     IErMin= 1 ErrMin= 1.61D-02
 ErrMax= 1.61D-02  0.00D+00 EMaxC= 1.00D-01 BMatC= 2.46D-02 BMatP= 2.46D-02
 IDIUse=3 WtCom= 8.39D-01 WtEn= 1.61D-01
 Coeff-Com:  0.100D+01
 Coeff-En:   0.100D+01
 Coeff:      0.100D+01
 Gap=     0.411 Goal=   None    Shift=    0.000
 GapD=    0.411 DampG=2.000 DampE=0.500 DampFc=1.0000 IDamp=-1.
 RMSDP=3.98D-03 MaxDP=9.05D-02              OVMax= 7.45D-02

 Cycle   2  Pass 0  IDiag  1:
 E= -139.480061878838     Delta-E=       -0.006714735630 Rises=F Damp=F
 DIIS: error= 1.58D-02 at cycle   2 NSaved=   2.
 NSaved= 2 IEnMin= 2 EnMin= -139.480061878838     IErMin= 2 ErrMin= 1.58D-02
 ErrMax= 1.58D-02  0.00D+00 EMaxC= 1.00D-01 BMatC= 1.83D-02 BMatP= 2.46D-02
 IDIUse=3 WtCom= 8.42D-01 WtEn= 1.58D-01
 Coeff-Com:  0.461D+00 0.539D+00
 Coeff-En:   0.408D+00 0.592D+00
 Coeff:      0.452D+00 0.548D+00
 Gap=     0.401 Goal=   None    Shift=    0.000
 RMSDP=1.95D-03 MaxDP=4.82D-02 DE=-6.71D-03 OVMax= 3.73D-02

 Cycle   3  Pass 0  IDiag  1:
 E= -139.497601708968     Delta-E=       -0.017539830130 Rises=F Damp=F
 DIIS: error= 1.65D-03 at cycle   3 NSaved=   3.
 NSaved= 3 IEnMin= 3 EnMin= -139.497601708968     IErMin= 3 ErrMin= 1.65D-03
 ErrMax= 1.65D-03  0.00D+00 EMaxC= 1.00D-01 BMatC= 2.89D-04 BMatP= 1.83D-02
 IDIUse=3 WtCom= 9.84D-01 WtEn= 1.65D-02
 Coeff-Com:  0.823D-01 0.152D+00 0.766D+00
 Coeff-En:   0.000D+00 0.000D+00 0.100D+01
 Coeff:      0.809D-01 0.150D+00 0.769D+00
 Gap=     0.397 Goal=   None    Shift=    0.000
 RMSDP=2.30D-04 MaxDP=2.98D-03 DE=-1.75D-02 OVMax= 4.55D-03

 Cycle   4  Pass 0  IDiag  1:
 E= -139.497797177201     Delta-E=       -0.000195468233 Rises=F Damp=F
 DIIS: error= 6.78D-04 at cycle   4 NSaved=   4.
 NSaved= 4 IEnMin= 4 EnMin= -139.497797177201     IErMin= 4 ErrMin= 6.78D-04
 ErrMax= 6.78D-04  0.00D+00 EMaxC= 1.00D-01 BMatC= 3.97D-05 BMatP= 2.89D-04
 IDIUse=3 WtCom= 9.93D-01 WtEn= 6.78D-03
 Coeff-Com:  0.230D-01 0.471D-01 0.341D+00 0.589D+00
 Coeff-En:   0.000D+00 0.000D+00 0.000D+00 0.100D+01
 Coeff:      0.228D-01 0.467D-01 0.339D+00 0.591D+00
 Gap=     0.398 Goal=   None    Shift=    0.000
 RMSDP=7.77D-05 MaxDP=1.62D-03 DE=-1.95D-04 OVMax= 2.16D-03

 Cycle   5  Pass 0  IDiag  1:
 E= -139.497819367523     Delta-E=       -0.000022190322 Rises=F Damp=F
 DIIS: error= 2.87D-04 at cycle   5 NSaved=   5.
 NSaved= 5 IEnMin= 5 EnMin= -139.497819367523     IErMin= 5 ErrMin= 2.87D-04
 ErrMax= 2.87D-04  0.00D+00 EMaxC= 1.00D-01 BMatC= 6.82D-06 BMatP= 3.97D-05
 IDIUse=3 WtCom= 9.97D-01 WtEn= 2.87D-03
 Coeff-Com: -0.474D-03 0.284D-02 0.826D-01 0.326D+00 0.589D+00
 Coeff-En:   0.000D+00 0.000D+00 0.000D+00 0.117D+00 0.883D+00
 Coeff:     -0.473D-03 0.283D-02 0.824D-01 0.325D+00 0.590D+00
 Gap=     0.398 Goal=   None    Shift=    0.000
 RMSDP=2.71D-05 MaxDP=4.95D-04 DE=-2.22D-05 OVMax= 5.77D-04

 Cycle   6  Pass 0  IDiag  1:
 E= -139.497823899404     Delta-E=       -0.000004531881 Rises=F Damp=F
 DIIS: error= 5.08D-06 at cycle   6 NSaved=   6.
 NSaved= 6 IEnMin= 6 EnMin= -139.497823899404     IErMin= 6 ErrMin= 5.08D-06
 ErrMax= 5.08D-06  0.00D+00 EMaxC= 1.00D-01 BMatC= 1.21D-09 BMatP= 6.82D-06
 IDIUse=1 WtCom= 1.00D+00 WtEn= 0.00D+00
 Coeff-Com: -0.103D-03-0.370D-03-0.124D-02 0.223D-02 0.567D-02 0.994D+00
 Coeff:     -0.103D-03-0.370D-03-0.124D-02 0.223D-02 0.567D-02 0.994D+00
 Gap=     0.398 Goal=   None    Shift=    0.000
 RMSDP=8.36D-07 MaxDP=1.64D-05 DE=-4.53D-06 OVMax= 1.13D-05

 Initial convergence to 1.0D-05 achieved.  Increase integral accuracy.
 Cycle   7  Pass 1  IDiag  1:
 E= -139.497822582777     Delta-E=        0.000001316627 Rises=F Damp=F
 DIIS: error= 1.21D-06 at cycle   1 NSaved=   1.
 NSaved= 1 IEnMin= 1 EnMin= -139.497822582777     IErMin= 1 ErrMin= 1.21D-06
 ErrMax= 1.21D-06  0.00D+00 EMaxC= 1.00D-01 BMatC= 1.44D-10 BMatP= 1.44D-10
 IDIUse=1 WtCom= 1.00D+00 WtEn= 0.00D+00
 Coeff-Com:  0.100D+01
 Coeff:      0.100D+01
 Gap=     0.398 Goal=   None    Shift=    0.000
 RMSDP=8.36D-07 MaxDP=1.64D-05 DE= 1.32D-06 OVMax= 4.53D-06

 Cycle   8  Pass 1  IDiag  1:
 E= -139.497822582874     Delta-E=       -0.000000000097 Rises=F Damp=F
 DIIS: error= 9.40D-07 at cycle   2 NSaved=   2.
 NSaved= 2 IEnMin= 2 EnMin= -139.497822582874     IErMin= 2 ErrMin= 9.40D-07
 ErrMax= 9.40D-07  0.00D+00 EMaxC= 1.00D-01 BMatC= 8.18D-11 BMatP= 1.44D-10
 IDIUse=1 WtCom= 1.00D+00 WtEn= 0.00D+00
 Coeff-Com:  0.414D+00 0.586D+00
 Coeff:      0.414D+00 0.586D+00
 Gap=     0.398 Goal=   None    Shift=    0.000
 RMSDP=1.47D-07 MaxDP=2.99D-06 DE=-9.67D-11 OVMax= 2.98D-06

 Cycle   9  Pass 1  IDiag  1:
 E= -139.497822582933     Delta-E=       -0.000000000059 Rises=F Damp=F
 DIIS: error= 3.52D-07 at cycle   3 NSaved=   3.
 NSaved= 3 IEnMin= 3 EnMin= -139.497822582933     IErMin= 3 ErrMin= 3.52D-07
 ErrMax= 3.52D-07  0.00D+00 EMaxC= 1.00D-01 BMatC= 1.19D-11 BMatP= 8.18D-11
 IDIUse=1 WtCom= 1.00D+00 WtEn= 0.00D+00
 Coeff-Com:  0.195D-01 0.273D+00 0.707D+00
 Coeff:      0.195D-01 0.273D+00 0.707D+00
 Gap=     0.398 Goal=   None    Shift=    0.000
 RMSDP=4.38D-08 MaxDP=7.26D-07 DE=-5.91D-11 OVMax= 9.43D-07

 Cycle  10  Pass 1  IDiag  1:
 E= -139.497822582939     Delta-E=       -0.000000000007 Rises=F Damp=F
 DIIS: error= 1.04D-07 at cycle   4 NSaved=   4.
 NSaved= 4 IEnMin= 4 EnMin= -139.497822582939     IErMin= 4 ErrMin= 1.04D-07
 ErrMax= 1.04D-07  0.00D+00 EMaxC= 1.00D-01 BMatC= 1.15D-12 BMatP= 1.19D-11
 IDIUse=1 WtCom= 1.00D+00 WtEn= 0.00D+00
 Coeff-Com: -0.121D-01 0.112D+00 0.367D+00 0.534D+00
 Coeff:     -0.121D-01 0.112D+00 0.367D+00 0.534D+00
 Gap=     0.398 Goal=   None    Shift=    0.000
 RMSDP=1.38D-08 MaxDP=2.50D-07 DE=-6.59D-12 OVMax= 2.64D-07

 Cycle  11  Pass 1  IDiag  1:
 E= -139.497822582941     Delta-E=       -0.000000000002 Rises=F Damp=F
 DIIS: error= 9.77D-09 at cycle   5 NSaved=   5.
 NSaved= 5 IEnMin= 5 EnMin= -139.497822582941     IErMin= 5 ErrMin= 9.77D-09
 ErrMax= 9.77D-09  0.00D+00 EMaxC= 1.00D-01 BMatC= 8.32D-15 BMatP= 1.15D-12
 IDIUse=1 WtCom= 1.00D+00 WtEn= 0.00D+00
 Coeff-Com: -0.498D-02 0.163D-01 0.622D-01 0.129D+00 0.798D+00
 Coeff:     -0.498D-02 0.163D-01 0.622D-01 0.129D+00 0.798D+00
 Gap=     0.398 Goal=   None    Shift=    0.000
 RMSDP=1.38D-09 MaxDP=1.97D-08 DE=-1.51D-12 OVMax= 2.65D-08

 SCF Done:  E(RPBE1PBE) =  -139.497822583     A.U. after   11 cycles
            NFock= 11  Conv=0.14D-08     -V/T= 2.0076
 KE= 1.384429695899D+02 PE=-4.046768852371D+02 EE= 8.931104501055D+01
 Leave Link  502 at Mon Mar 21 20:20:53 2022, MaxMem=  8589934592 cpu:               7.5 elap:               1.0
 (Enter /home/sabyasachi/g16/l801.exe)
 DoSCS=F DFT=T ScalE2(SS,OS)=  1.000000  1.000000
 ExpMin= 6.71D-02 ExpMax= 2.89D+03 ExpMxC= 4.35D+02 IAcc=3 IRadAn=         5 AccDes= 0.00D+00
 HarFok:  IExCor=  205 AccDes= 0.00D+00 IRadAn=         5 IDoV=-2 UseB2=F ITyADJ=14
 ICtDFT= 12500011 ScaDFX=  1.000000  1.000000  1.000000  1.000000
 Largest valence mixing into a core orbital is  7.45D-05
 Largest core mixing into a valence orbital is  2.01D-05
 Range of M.O.s used for correlation:     3    67
 NBasis=    67 NAE=     9 NBE=     9 NFC=     2 NFV=     0
 NROrb=     65 NOA=     7 NOB=     7 NVA=    58 NVB=    58

 **** Warning!!: The largest alpha MO coefficient is  0.21732373D+02

 Leave Link  801 at Mon Mar 21 20:20:53 2022, MaxMem=  8589934592 cpu:               0.4 elap:               0.1
 (Enter /home/sabyasachi/g16/l914.exe)
 RHF ground state
 Keep R1, R2, and R3 ints in memory in canonical form, NReq=199477263.
 FoFCou: FMM=F IPFlag=           0 FMFlag=           0 FMFlg1=           0
         NFxFlg=           0 DoJE=F BraDBF=F KetDBF=F FulRan=T
         wScrn=  0.000000 ICntrl=       600 IOpCl=  0 I1Cent=           0 NGrid=           0
         NMat0=    1 NMatS0=   2278 NMatT0=    0 NMatD0=    1 NMtDS0=    0 NMtDT0=    0
 Symmetry not used in FoFCou.
 Two-electron integral symmetry not used.
 MDV=  8589934592 DFT=T DoStab=F Mixed=T DoRPA=T DoScal=F NonHer=T
 Making orbital integer symmetry assigments:
 Orbital symmetries:
       Occupied  (A) (A) (A) (A) (A) (A) (A) (A) (A)
       Virtual   (A) (A) (A) (A) (A) (A) (A) (A) (A) (A) (A) (A)
                 (A) (A) (A) (A) (A) (A) (A) (A) (A) (A) (A) (A)
                 (A) (A) (A) (A) (A) (A) (A) (A) (A) (A) (A) (A)
                 (A) (A) (A) (A) (A) (A) (A) (A) (A) (A) (A) (A)
                 (A) (A) (A) (A) (A) (A) (A) (A) (A) (A)
   406 initial guesses have been made.
 Convergence on wavefunction:    0.001000000000000
 Davidson Disk Diagonalization:  ConvIn= 1.00D-03 SkipCon=T Conv= 1.00D-03.
 Max sub-space:  2436 roots to seek:   812 dimension of matrix:          812
 *** WARNING: Number of orthogonal guesses is          406
 Iteration     1 Dimension   406 NMult     0 NNew    406
 CISAX will form   406 AO SS matrices at one time.
 NMat=   406 NSing=   406 JSym2X= 0.
 New state      7 was old state      8
 New state      8 was old state      7
 New state      9 was old state     12
 New state     10 was old state      9
 New state     11 was old state     10
 New state     12 was old state     11
 New state     17 was old state     20
 New state     19 was old state     21
 New state     20 was old state     17
 New state     21 was old state     22
 New state     22 was old state     23
 New state     23 was old state     19
 New state     25 was old state     31
 New state     26 was old state     32
 New state     27 was old state     25
 New state     28 was old state     26
 New state     29 was old state     28
 New state     30 was old state     29
 New state     31 was old state     30
 New state     32 was old state     27
 New state     35 was old state     39
 New state     36 was old state     37
 New state     37 was old state     35
 New state     38 was old state     36
 New state     39 was old state     42
 New state     40 was old state     43
 New state     41 was old state     38
 New state     42 was old state     40
 New state     43 was old state     41
 New state     44 was old state     45
 New state     45 was old state     44
 New state     46 was old state     47
 New state     47 was old state     46
 New state     49 was old state     52
 New state     50 was old state     53
 New state     51 was old state     50
 New state     52 was old state     51
 New state     53 was old state     54
 New state     54 was old state     55
 New state     55 was old state     49
 New state     58 was old state     59
 New state     59 was old state     58
 New state     62 was old state     63
 New state     63 was old state     64
 New state     64 was old state     62
 New state     65 was old state     67
 New state     67 was old state     69
 New state     69 was old state     70
 New state     70 was old state     71
 New state     71 was old state     72
 New state     72 was old state     73
 New state     73 was old state     74
 New state     74 was old state     75
 New state     75 was old state     65
 New state     76 was old state     77
 New state     77 was old state     76
 New state     80 was old state     84
 New state     81 was old state     85
 New state     82 was old state     80
 New state     83 was old state     81
 New state     84 was old state     82
 New state     85 was old state     83
 New state     91 was old state     94
 New state     92 was old state    102
 New state     93 was old state    101
 New state     94 was old state    104
 New state     95 was old state     97
 New state     96 was old state     98
 New state     97 was old state     91
 New state     98 was old state     99
 New state     99 was old state    100
 New state    100 was old state     92
 New state    101 was old state     95
 New state    102 was old state     93
 New state    103 was old state     96
 New state    104 was old state    105
 New state    105 was old state    106
 New state    106 was old state    107
 New state    107 was old state    103
 New state    108 was old state    109
 New state    109 was old state    110
 New state    110 was old state    111
 New state    111 was old state    112
 New state    112 was old state    113
 New state    113 was old state    114
 New state    114 was old state    115
 New state    115 was old state    108
 New state    118 was old state    119
 New state    119 was old state    118
 New state    120 was old state    122
 New state    121 was old state    124
 New state    122 was old state    123
 New state    123 was old state    120
 New state    124 was old state    129
 New state    125 was old state    130
 New state    126 was old state    125
 New state    127 was old state    126
 New state    128 was old state    127
 New state    129 was old state    128
 New state    130 was old state    121
 New state    131 was old state    133
 New state    132 was old state    131
 New state    133 was old state    135
 New state    135 was old state    136
 New state    136 was old state    132
 New state    139 was old state    140
 New state    140 was old state    139
 New state    149 was old state    151
 New state    150 was old state    149
 New state    151 was old state    150
 New state    153 was old state    154
 New state    154 was old state    155
 New state    155 was old state    153
 New state    156 was old state    158
 New state    157 was old state    159
 New state    158 was old state    156
 New state    159 was old state    157
 New state    161 was old state    162
 New state    162 was old state    164
 New state    164 was old state    166
 New state    166 was old state    167
 New state    167 was old state    169
 New state    169 was old state    172
 New state    170 was old state    173
 New state    172 was old state    170
 New state    173 was old state    199
 New state    176 was old state    177
 New state    177 was old state    176
 New state    178 was old state    179
 New state    179 was old state    180
 New state    180 was old state    186
 New state    181 was old state    183
 New state    182 was old state    184
 New state    183 was old state    181
 New state    184 was old state    182
 New state    186 was old state    178
 New state    191 was old state    192
 New state    192 was old state    197
 New state    193 was old state    198
 New state    194 was old state    191
 New state    197 was old state    193
 New state    198 was old state    194
 New state    199 was old state    200
 New state    200 was old state    201
 New state    201 was old state    202
 New state    202 was old state    205
 New state    203 was old state    207
 New state    204 was old state    208
 New state    205 was old state    209
 New state    206 was old state    210
 New state    207 was old state    206
 New state    208 was old state    204
 New state    209 was old state    203
 New state    210 was old state    211
 New state    211 was old state    212
 New state    212 was old state    213
 New state    213 was old state    218
 New state    216 was old state    219
 New state    217 was old state    220
 New state    218 was old state    216
 New state    219 was old state    217
 New state    220 was old state    221
 New state    221 was old state    224
 New state    224 was old state    225
 New state    225 was old state    226
 New state    226 was old state    227
 No map to state    227
 New state    234 was old state    236
 New state    236 was old state    237
 New state    237 was old state    234
 New state    238 was old state    239
 New state    239 was old state    240
 New state    240 was old state    238
 New state    243 was old state    246
 New state    244 was old state    245
 New state    245 was old state    247
 New state    246 was old state    243
 New state    247 was old state    244
 New state    248 was old state    250
 New state    249 was old state    253
 New state    250 was old state    254
 New state    251 was old state    249
 New state    253 was old state    251
 New state    254 was old state    255
 New state    255 was old state    248
 New state    260 was old state    265
 New state    261 was old state    268
 New state    262 was old state    269
 New state    263 was old state    266
 New state    264 was old state    267
 New state    265 was old state    262
 New state    266 was old state    260
 New state    267 was old state    261
 New state    268 was old state    263
 New state    269 was old state    264
 New state    278 was old state    279
 New state    279 was old state    280
 New state    280 was old state    281
 New state    281 was old state    282
 New state    282 was old state    283
 New state    283 was old state    278
 New state    287 was old state    288
 New state    288 was old state    287
 New state    296 was old state    298
 New state    298 was old state    299
 New state    299 was old state    296
 New state    300 was old state    303
 New state    303 was old state    306
 New state    306 was old state    307
 New state    307 was old state    308
 New state    308 was old state    310
 New state    310 was old state    313
 New state    313 was old state    332
 New state    324 was old state    326
 New state    325 was old state    329
 New state    326 was old state    330
 New state    327 was old state    325
 New state    328 was old state    327
 New state    329 was old state    328
 New state    330 was old state    324
 New state    332 was old state    334
 New state    334 was old state    335
 New state    335 was old state    336
 New state    336 was old state    339
 New state    339 was old state    344
 New state    342 was old state    343
 New state    343 was old state    342
 No map to state    344
 New state    354 was old state    355
 New state    355 was old state    354
 New state    358 was old state    359
 New state    359 was old state    360
 New state    360 was old state    362
 New state    362 was old state    363
 New state    363 was old state    364
 New state    364 was old state    358
 New state    367 was old state    369
 New state    368 was old state    370
 New state    369 was old state    367
 New state    370 was old state    368
 New state    371 was old state    373
 New state    372 was old state    374
 New state    373 was old state    375
 New state    374 was old state    371
 New state    375 was old state    376
 New state    376 was old state    381
 New state    377 was old state    382
 New state    378 was old state    377
 New state    379 was old state    378
 New state    380 was old state    388
 New state    381 was old state    389
 New state    382 was old state    384
 New state    383 was old state    387
 New state    384 was old state    385
 New state    385 was old state    386
 New state    386 was old state    383
 New state    387 was old state    400
 New state    388 was old state    396
 New state    389 was old state    397
 New state    396 was old state    398
 New state    397 was old state    399
 No map to state    398
 No map to state    399
 New state    400 was old state    401
 New state    401 was old state    402
 New state    402 was old state    403
 No map to state    403
 Excitation Energies [eV] at current iteration:
 Root      1 :     9.358043738819823
 Root      2 :     9.358097552539864
 Root      3 :     9.936947137702955
 Root      4 :     9.936999653125795
 Root      5 :    11.376788962488740
 Root      6 :    11.376790946264530
 Root      7 :    11.381163447078500
 Root      8 :    11.627944981932030
 Root      9 :    12.428202530189440
 Root     10 :    12.551931044698170
 Root     11 :    12.551996072950170
 Root     12 :    12.745133336467280
 Root     13 :    12.826980786013990
 Root     14 :    12.826988600228660
 Root     15 :    13.194309893267920
 Root     16 :    13.194378771539360
 Root     17 :    13.444470681531530
 Root     18 :    13.444471194540310
 Root     19 :    13.453441916404850
 Root     20 :    13.542557013253450
 Root     21 :    13.781441625644130
 Root     22 :    13.781514630487800
 Root     23 :    13.810293794134140
 Root     24 :    14.671569912341000
 Root     25 :    15.036273819380320
 Root     26 :    15.036310010476670
 Root     27 :    15.117259956649590
 Root     28 :    15.182349490678740
 Root     29 :    15.182357496515640
 Root     30 :    15.386658395725650
 Root     31 :    15.386672935716710
 Root     32 :    15.763948574259550
 Root     33 :    16.141282110956000
 Root     34 :    16.141338938571490
 Root     35 :    16.222049474592790
 Root     36 :    16.393935243943660
 Root     37 :    16.494021302600620
 Root     38 :    16.494096914305780
 Root     39 :    16.561924968201200
 Root     40 :    16.561983407892420
 Root     41 :    16.737942082161280
 Root     42 :    16.737967931756940
 Root     43 :    16.854773348303060
 Root     44 :    16.879929651128250
 Root     45 :    16.879932004941430
 Root     46 :    16.966672705432870
 Root     47 :    17.082473025837140
 Root     48 :    17.312544600595460
 Root     49 :    17.351408416803750
 Root     50 :    17.351440772334730
 Root     51 :    17.371115724949090
 Root     52 :    17.371132792672310
 Root     53 :    17.462097491449860
 Root     54 :    17.462138128567830
 Root     55 :    17.574400344667000
 Root     56 :    18.102813050272710
 Root     57 :    18.102868422243840
 Root     58 :    18.253823401260290
 Root     59 :    18.426414600319780
 Root     60 :    18.426418173717810
 Root     61 :    18.538683175980260
 Root     62 :    18.852291677325360
 Root     63 :    18.852358039917710
 Root     64 :    19.137527847842570
 Root     65 :    19.578737221462510
 Root     66 :    19.616437851244210
 Root     67 :    19.698869441572450
 Root     68 :    19.698872270133770
 Root     69 :    19.871822500045540
 Root     70 :    19.937091283225130
 Root     71 :    19.937172708961150
 Root     72 :    20.061012745127120
 Root     73 :    20.061059366819490
 Root     74 :    20.219965636871580
 Root     75 :    20.645744644011040
 Root     76 :    20.698328763573890
 Root     77 :    20.698334491768110
 Root     78 :    20.759648914917830
 Root     79 :    20.798351643374720
 Root     80 :    20.928890939057840
 Root     81 :    20.928930870972240
 Root     82 :    20.991516561675360
 Root     83 :    20.991531952010390
 Root     84 :    21.091337420684430
 Root     85 :    21.091342357528780
 Root     86 :    21.291134122909060
 Root     87 :    21.291186046034470
 Root     88 :    21.588149303046620
 Root     89 :    21.867308937471410
 Root     90 :    21.867365696885560
 Root     91 :    21.962423198889040
 Root     92 :    22.072727597368190
 Root     93 :    22.072731318555220
 Root     94 :    22.125899959284830
 Root     95 :    22.164040830628060
 Root     96 :    22.164071060081540
 Root     97 :    22.202421536673810
 Root     98 :    22.374739990808300
 Root     99 :    22.374779488965830
 Root    100 :    22.396864773571550
 Root    101 :    22.484347799919650
 Root    102 :    22.484361278435940
 Root    103 :    22.594007680646110
 Root    104 :    23.162326015349180
 Root    105 :    23.162374481587370
 Root    106 :    23.363824209692010
 Root    107 :    23.471264619257300
 Root    108 :    23.498850201156020
 Root    109 :    23.498858672488070
 Root    110 :    23.689193473028890
 Root    111 :    23.689243984431760
 Root    112 :    23.804436666701910
 Root    113 :    23.804490731845420
 Root    114 :    23.923121710140560
 Root    115 :    24.216062624728460
 Root    116 :    24.803636434521560
 Root    117 :    24.803707999651730
 Root    118 :    25.080496106262320
 Root    119 :    25.366528031035650
 Root    120 :    25.876737060962710
 Root    121 :    25.927635263045080
 Root    122 :    25.927649815295320
 Root    123 :    25.941625019181340
 Root    124 :    26.092023530769220
 Root    125 :    26.092047275336250
 Root    126 :    26.212829054919180
 Root    127 :    26.212859158332450
 Root    128 :    26.592098249537440
 Root    129 :    26.592119320003340
 Root    130 :    26.765540441253660
 Root    131 :    27.001216887315800
 Root    132 :    27.355707692381700
 Root    133 :    27.468117695076290
 Root    134 :    27.468145169166650
 Root    135 :    27.645684903060620
 Root    136 :    27.698033728063870
 Root    137 :    27.991398331888780
 Root    138 :    27.991437403141420
 Root    139 :    28.680942702506170
 Root    140 :    28.910859269521460
 Root    141 :    28.910877824964910
 Root    142 :    29.019453382884500
 Root    143 :    29.325456375615860
 Root    144 :    29.325507650551780
 Root    145 :    29.546770555153950
 Root    146 :    29.936353278117000
 Root    147 :    29.936417685225280
 Root    148 :    30.446615726964750
 Root    149 :    30.736602911958940
 Root    150 :    30.844690381403180
 Root    151 :    31.066134389082030
 Root    152 :    31.066143701893910
 Root    153 :    31.141668310241180
 Root    154 :    31.141774490369660
 Root    155 :    31.208897725778670
 Root    156 :    31.840493482147650
 Root    157 :    31.840521409025690
 Root    158 :    32.105418452678020
 Root    159 :    32.105444161356930
 Root    160 :    32.430098983951810
 Root    161 :    32.538207601147210
 Root    162 :    32.635169120238670
 Root    163 :    32.635186674583960
 Root    164 :    32.821258414984630
 Root    165 :    32.821273190669470
 Root    166 :    33.043235759884010
 Root    167 :    33.121558393495410
 Root    168 :    33.206979247032310
 Root    169 :    33.317520979043760
 Root    170 :    33.317561446317580
 Root    171 :    33.615284922160430
 Root    172 :    33.615301675969390
 Root    173 :    34.321832068353040
 Root    174 :    34.432993896232970
 Root    175 :    34.433011361162350
 Root    176 :    34.502563992790570
 Root    177 :    34.502568148039980
 Root    178 :    34.552341114600850
 Root    179 :    35.381154125534420
 Root    180 :    35.573285668897730
 Root    181 :    35.584842160941470
 Root    182 :    35.584903303144470
 Root    183 :    35.646337859184190
 Root    184 :    35.646381610537150
 Root    185 :    35.866279611055430
 Root    186 :    36.187121778588650
 Root    187 :    36.578429048101260
 Root    188 :    36.578472647824810
 Root    189 :    36.794472864397360
 Root    190 :    36.794544903255960
 Root    191 :    36.847044301987300
 Root    192 :    36.972853956330770
 Root    193 :    36.972943698397700
 Root    194 :    37.128062096807550
 Root    195 :    37.177959906707040
 Root    196 :    37.178080409358190
 Root    197 :    37.549555463465320
 Root    198 :    37.549598524035880
 Root    199 :    37.717813629884740
 Root    200 :    37.717853169678970
 Root    201 :    37.892992200183110
 Root    202 :    38.159895394687210
 Root    203 :    38.159898400912770
 Root    204 :    38.215062066976440
 Root    205 :    38.435829433929690
 Root    206 :    38.435855822956530
 Root    207 :    38.467209931757050
 Root    208 :    38.748015075076070
 Root    209 :    38.748035326041150
 Root    210 :    39.235068817557670
 Root    211 :    39.995267450205570
 Root    212 :    39.995290482679320
 Root    213 :    40.376727959504520
 Root    214 :    40.554367913155700
 Root    215 :    41.256772293443110
 Root    216 :    41.266957654991210
 Root    217 :    41.267020116815060
 Root    218 :    41.371326967155330
 Root    219 :    41.371364867854890
 Root    220 :    41.549845711949890
 Root    221 :    42.281367409377130
 Root    222 :    42.696489596752090
 Root    223 :    42.696542068582380
 Root    224 :    42.969902096363400
 Root    225 :    42.970068391980670
 Root    226 :    43.140435876665270
 Root    227 :    43.400140579246720
 Root    228 :    44.051952567050120
 Root    229 :    44.093749387258790
 Root    230 :    44.093815706467860
 Root    231 :    45.261935371611560
 Root    232 :    45.261976617634610
 Root    233 :    47.707888384858340
 Root    234 :    48.968641912536210
 Root    235 :    49.115753975006080
 Root    236 :    49.115760174072800
 Root    237 :    49.256471634725830
 Root    238 :    50.018738595500780
 Root    239 :    50.018823925701120
 Root    240 :    50.025534385661510
 Root    241 :    51.601135255573990
 Root    242 :    51.601137779629380
 Root    243 :    52.177480929807170
 Root    244 :    52.272430213948300
 Root    245 :    52.272434596511960
 Root    246 :    52.857909571214950
 Root    247 :    52.857979601708810
 Root    248 :    52.878455651173800
 Root    249 :    52.881747723468980
 Root    250 :    52.881806791847960
 Root    251 :    53.139158062708880
 Root    252 :    53.403132682132160
 Root    253 :    53.403254241682500
 Root    254 :    54.391243084844970
 Root    255 :    54.891103999062150
 Root    256 :    55.299347344975320
 Root    257 :    55.299386531068070
 Root    258 :    56.097818013888980
 Root    259 :    56.097943546068480
 Root    260 :    56.277467335605350
 Root    261 :    56.281737484039650
 Root    262 :    56.281828310155180
 Root    263 :    56.316660277317810
 Root    264 :    56.316681990061880
 Root    265 :    56.427720287990820
 Root    266 :    56.579212491099520
 Root    267 :    56.579258154021170
 Root    268 :    56.756077469965130
 Root    269 :    57.527046676422000
 Root    270 :    57.533944835859540
 Root    271 :    57.534006837006760
 Root    272 :    58.806511740829520
 Root    273 :    58.806656231198520
 Root    274 :    59.281918085201380
 Root    275 :    59.282013994943040
 Root    276 :    59.483136493457090
 Root    277 :    59.804269112475150
 Root    278 :    59.841813580714850
 Root    279 :    59.841834074608090
 Root    280 :    60.585384948983480
 Root    281 :    60.762621222921100
 Root    282 :    60.762645602459270
 Root    283 :    61.446503099676180
 Root    284 :    62.062938300505390
 Root    285 :    62.265808448091330
 Root    286 :    62.265910512984160
 Root    287 :    63.438082136238980
 Root    288 :    63.483603351043440
 Root    289 :    63.503437996860650
 Root    290 :    63.503500202026580
 Root    291 :    63.842004066148370
 Root    292 :    63.842268608929930
 Root    293 :    64.396185560833220
 Root    294 :    64.396246681844640
 Root    295 :    65.114514960263010
 Root    296 :    65.201372543947950
 Root    297 :    65.201378582769350
 Root    298 :    65.210609170892540
 Root    299 :    65.590692642592330
 Root    300 :    67.910107330908250
 Root    301 :    68.193223321478900
 Root    302 :    68.193270090976630
 Root    303 :    68.888907849849640
 Root    304 :    68.888927151020350
 Root    305 :    68.892373596529320
 Root    306 :    69.111643923729320
 Root    307 :    69.111773022085250
 Root    308 :    69.340170408433440
 Root    309 :    69.340222642660580
 Root    310 :    69.706382510748600
 Root    311 :    69.954415867978200
 Root    312 :    69.954492706779660
 Root    313 :    71.142409455240540
 Root    314 :    72.024476991544390
 Root    315 :    72.024595192396620
 Root    316 :    72.178220600758070
 Root    317 :    72.178319077857570
 Root    318 :    73.090255799468520
 Root    319 :    73.670321670372400
 Root    320 :    73.670387667907560
 Root    321 :    74.275109055405080
 Root    322 :    74.723667755366110
 Root    323 :    74.723887928948400
 Root    324 :    75.254105727532280
 Root    325 :    75.274690246356870
 Root    326 :    75.274794350921450
 Root    327 :    75.629457442341280
 Root    328 :    75.629472401103670
 Root    329 :    75.670689507206010
 Root    330 :    75.945586590396390
 Root    331 :    77.913163571293370
 Root    332 :    79.021115092305050
 Root    333 :    79.297582622956040
 Root    334 :    79.297662972450330
 Root    335 :    79.359409726394150
 Root    336 :    79.552486168385220
 Root    337 :    79.692052075247590
 Root    338 :    79.692435421577040
 Root    339 :    80.349353234597190
 Root    340 :    82.748483989317360
 Root    341 :    82.748673578154770
 Root    342 :    82.900889007952590
 Root    343 :    82.901030643181540
 Root    344 :    83.783793347249560
 Root    345 :    84.829731176176450
 Root    346 :    84.830201671519150
 Root    347 :    86.597777926688140
 Root    348 :    86.597845736151850
 Root    349 :    87.153137088220620
 Root    350 :    88.247851914618120
 Root    351 :    88.248079600289860
 Root    352 :    89.539060587768090
 Root    353 :    89.539068557273960
 Root    354 :    89.579342155305710
 Root    355 :    89.675458987379300
 Root    356 :    91.773398943432470
 Root    357 :    92.413609779867880
 Root    358 :    93.241584946144370
 Root    359 :    93.326894669537990
 Root    360 :    93.452223196719640
 Root    361 :    93.452242219658760
 Root    362 :    93.502167303970000
 Root    363 :    93.502654932165460
 Root    364 :    94.079912868179930
 Root    365 :    98.672922729592640
 Root    366 :    98.673197668125080
 Root    367 :    98.694807175639980
 Root    368 :    98.697294964145370
 Root    369 :    98.785276865439700
 Root    370 :    98.785574018292350
 Root    371 :   101.258025561813500
 Root    372 :   101.258034948962500
 Root    373 :   101.330013109096300
 Root    374 :   101.394069956947100
 Root    375 :   101.394085755167700
 Root    376 :   102.588913522332900
 Root    377 :   102.588939181964000
 Root    378 :   103.474274121884500
 Root    379 :   103.480577402513300
 Root    380 :   104.038346105156400
 Root    381 :   104.038378777052900
 Root    382 :   104.368508079336700
 Root    383 :   105.982380153183800
 Root    384 :   105.982382022351300
 Root    385 :   106.040987376681700
 Root    386 :   106.227707197946000
 Root    387 :   107.880630196168300
 Root    388 :   108.780940634612200
 Root    389 :   108.780978775754800
 Root    390 :   109.837927084300800
 Root    391 :   109.837941703040300
 Root    392 :   112.185089076689400
 Root    393 :   112.185173970468100
 Root    394 :   112.773797249510700
 Root    395 :   112.774301850481400
 Root    396 :   114.042419095657400
 Root    397 :   114.042492117022300
 Root    398 :   116.671579934825500
 Root    399 :   116.671648410838600
 Root    400 :   118.622512535049100
 Root    401 :   122.437687042545900
 Root    402 :   122.437707366872800
 Root    403 :   122.826717044743400
 Root    404 :   125.120397754422000
 Root    405 :   125.120502610670900
 Root    406 :   135.149045354785200
 Convergence achieved for final wavefunctions.
 ***********************************************************************
 Excited states from <AA,BB:AA,BB> singles matrix:
 ***********************************************************************
 
 1PDM for each excited state written to RWF  633
 Ground to excited state transition densities written to RWF  633
 Ground to excited state transition electric dipole moments (Au):
       state          X           Y           Z        Dip. S.      Osc.
         1        -0.0000      0.0197     -0.3353      0.1128      0.0259
         2        -0.0000     -0.3353     -0.0197      0.1128      0.0259
         3         0.0000      0.0202     -0.2910      0.0851      0.0207
         4        -0.0000     -0.2910     -0.0202      0.0851      0.0207
         5        -0.0000     -0.2966     -0.2417      0.1464      0.0408
         6         0.0000     -0.2417      0.2966      0.1464      0.0408
         7        -0.0000     -0.0033     -0.0001      0.0000      0.0000
         8         0.6371     -0.0000     -0.0000      0.4059      0.1156
         9         0.0000      0.0000     -0.0000      0.0000      0.0000
        10        -0.0000      0.0165     -0.2799      0.0786      0.0242
        11         0.0000     -0.2799     -0.0165      0.0786      0.0242
        12         0.1448     -0.0000     -0.0003      0.0210      0.0065
        13        -0.0000     -0.5063     -0.1496      0.2787      0.0876
        14        -0.0001      0.1496     -0.5063      0.2787      0.0876
        15         0.0000     -0.1487      0.6499      0.4445      0.1437
        16         0.0000      0.6499      0.1487      0.4445      0.1437
        17         0.0000     -0.0006     -0.1028      0.0106      0.0035
        18        -0.0000      0.1028     -0.0006      0.0106      0.0035
        19         0.0000      0.0006     -0.0001      0.0000      0.0000
        20         0.0214     -0.0000     -0.0000      0.0005      0.0002
        21        -0.0001      0.0473     -0.1666      0.0300      0.0101
        22        -0.0000     -0.1666     -0.0473      0.0300      0.0101
        23        -0.1124     -0.0000      0.0001      0.0126      0.0043
        24        -1.1652     -0.0000     -0.0000      1.3576      0.4880
        25         0.0000      0.0094     -0.1303      0.0171      0.0063
        26         0.0000     -0.1304     -0.0094      0.0171      0.0063
        27         0.0000      0.0002     -0.0000      0.0000      0.0000
        28         0.0000     -0.0150     -0.3631      0.1321      0.0491
        29        -0.0000      0.3631     -0.0150      0.1321      0.0491
        30        -0.0000      0.3011     -0.1146      0.1038      0.0391
        31        -0.0000      0.1146      0.3011      0.1038      0.0391
        32        -0.0215     -0.0000     -0.0000      0.0005      0.0002
        33         0.0000     -0.0135      0.2778      0.0773      0.0306
        34         0.0000      0.2778      0.0135      0.0773      0.0306
        35        -0.0000      0.0000     -0.0000      0.0000      0.0000
        36        -0.0651      0.0000      0.0002      0.0042      0.0017
        37         0.0000      0.0312     -0.1681      0.0292      0.0118
        38        -0.0000     -0.1679     -0.0312      0.0292      0.0118
        39         0.0000     -0.0512      0.3725      0.1414      0.0574
        40        -0.0000     -0.3724     -0.0512      0.1413      0.0573
        41         0.0000      0.7678      0.1310      0.6066      0.2488
        42        -0.0000     -0.1310      0.7677      0.6066      0.2487
        43        -0.0671     -0.0000     -0.0000      0.0045      0.0019
        44        -0.0000      0.1306     -0.1844      0.0511      0.0211
        45         0.0001      0.1843      0.1306      0.0510      0.0211
        46         0.0000      0.0001      0.0000      0.0000      0.0000
        47        -0.9769      0.0000      0.0000      0.9543      0.3994
        48         0.0000     -0.0004      0.0001      0.0000      0.0000
        49         0.0000      0.0045     -0.2139      0.0458      0.0195
        50        -0.0000     -0.2143     -0.0045      0.0460      0.0195
        51        -0.0000     -0.0579      0.3373      0.1171      0.0498
        52        -0.0000      0.3369      0.0579      0.1169      0.0497
        53        -0.0000      0.1770      0.0055      0.0314      0.0134
        54         0.0000     -0.0055      0.1768      0.0313      0.0134
        55        -0.1731     -0.0000     -0.0000      0.0300      0.0129
        56         0.0000     -0.0870     -0.0071      0.0076      0.0034
        57         0.0000     -0.0071      0.0870      0.0076      0.0034
        58        -0.0000     -0.0000     -0.0000      0.0000      0.0000
        59        -0.0001      0.0952     -0.2391      0.0662      0.0299
        60         0.0001      0.2391      0.0952      0.0662      0.0299
        61         0.2893     -0.0000     -0.0001      0.0837      0.0380
        62        -0.0000     -0.0193      0.0849      0.0076      0.0035
        63        -0.0000      0.0849      0.0193      0.0076      0.0035
        64        -0.1728     -0.0000     -0.0000      0.0299      0.0140
        65         0.1639     -0.0001      0.0000      0.0269      0.0129
        66         0.0000     -0.0002      0.0001      0.0000      0.0000
        67         0.0000      0.3578      0.0369      0.1294      0.0624
        68        -0.0000      0.0369     -0.3577      0.1293      0.0624
        69        -0.5753      0.0000      0.0000      0.3310      0.1611
        70         0.0001      0.0133     -0.0842      0.0073      0.0035
        71        -0.0000     -0.0842     -0.0132      0.0073      0.0035
        72         0.0000     -0.0530      0.3382      0.1172      0.0576
        73         0.0000      0.3381      0.0530      0.1171      0.0576
        74         0.1113      0.0000      0.0000      0.0124      0.0061
        75         0.2638      0.0000     -0.0000      0.0696      0.0352
        76         0.0000     -0.0059      0.0140      0.0002      0.0001
        77        -0.0001     -0.0141     -0.0059      0.0002      0.0001
        78         0.0000     -0.0000      0.0000      0.0000      0.0000
        79         0.2674      0.0000     -0.0000      0.0715      0.0364
        80         0.0000     -0.0254      0.1355      0.0190      0.0098
        81         0.0000      0.1354      0.0255      0.0190      0.0097
        82         0.0000     -0.3462      0.2673      0.1913      0.0984
        83        -0.0000     -0.2673     -0.3462      0.1913      0.0984
        84         0.0000      0.1155     -0.0646      0.0175      0.0091
        85         0.0000      0.0646      0.1155      0.0175      0.0091
        86         0.0000      0.0590     -0.2424      0.0623      0.0325
        87         0.0000     -0.2424     -0.0590      0.0623      0.0325
        88         0.1188      0.0000      0.0000      0.0141      0.0075
        89         0.0000      0.0549      0.0150      0.0032      0.0017
        90        -0.0000      0.0150     -0.0549      0.0032      0.0017
        91         0.0000      0.0000     -0.0000      0.0000      0.0000
        92        -0.0000      0.0844     -0.1356      0.0255      0.0138
        93         0.0000      0.1356      0.0844      0.0255      0.0138
        94         0.0000      0.0001      0.0000      0.0000      0.0000
        95        -0.0000     -0.0019      0.0222      0.0005      0.0003
        96         0.0000     -0.0221     -0.0019      0.0005      0.0003
        97         0.0000     -0.0000     -0.0000      0.0000      0.0000
        98        -0.0001      0.0046     -0.0259      0.0007      0.0004
        99        -0.0000      0.0259      0.0046      0.0007      0.0004
       100         0.3009      0.0000      0.0001      0.0905      0.0497
       101         0.0000     -0.5071     -0.1313      0.2744      0.1512
       102        -0.0001     -0.1313      0.5071      0.2744      0.1512
       103         0.1113      0.0000      0.0001      0.0124      0.0069
       104         0.0000      0.1241     -0.0014      0.0154      0.0087
       105         0.0000      0.0014      0.1241      0.0154      0.0087
       106         0.0000     -0.0001      0.0001      0.0000      0.0000
       107        -0.8902     -0.0000     -0.0001      0.7924      0.4557
       108         0.0005     -0.0352     -0.2683      0.0732      0.0422
       109         0.0000      0.2683     -0.0352      0.0732      0.0422
       110        -0.0001      0.0652      0.0312      0.0052      0.0030
       111         0.0001      0.0312     -0.0651      0.0052      0.0030
       112         0.0001     -0.0125      0.0507      0.0027      0.0016
       113         0.0000      0.0507      0.0125      0.0027      0.0016
       114         0.3396     -0.0000      0.0000      0.1153      0.0676
       115        -0.2018      0.0000      0.0000      0.0407      0.0242
       116        -0.0000     -0.0073      0.0291      0.0009      0.0005
       117        -0.0000      0.0291      0.0073      0.0009      0.0005
       118         0.1836     -0.0000     -0.0000      0.0337      0.0207
       119        -0.2648      0.0000      0.0000      0.0701      0.0436
       120         0.0000      0.0001     -0.0000      0.0000      0.0000
       121         0.0000      0.1045      0.0244      0.0115      0.0073
       122         0.0000     -0.0244      0.1045      0.0115      0.0073
       123         0.0780     -0.0000     -0.0000      0.0061      0.0039
       124         0.0000     -0.0134      0.1876      0.0354      0.0226
       125        -0.0000      0.1875      0.0134      0.0353      0.0226
       126        -0.0000     -0.1745      0.1875      0.0656      0.0421
       127        -0.0000     -0.1876     -0.1744      0.0656      0.0421
       128         0.0000      0.1393     -0.0872      0.0270      0.0176
       129         0.0000      0.0872      0.1393      0.0270      0.0176
       130         0.1461      0.0000      0.0000      0.0214      0.0140
       131         0.0000     -0.0000      0.0000      0.0000      0.0000
       132         0.4695      0.0001      0.0002      0.2204      0.1477
       133        -0.0001     -0.0062      0.5434      0.2953      0.1988
       134        -0.0001      0.5434      0.0063      0.2954      0.1988
       135         0.0000      0.0000      0.0000      0.0000      0.0000
       136        -0.2354      0.0000      0.0001      0.0554      0.0376
       137         0.0000      0.0178     -0.1053      0.0114      0.0078
       138         0.0000      0.1053      0.0178      0.0114      0.0078
       139        -0.0000     -0.0000      0.0000      0.0000      0.0000
       140        -0.0002      0.0002      0.5291      0.2799      0.1983
       141        -0.0000     -0.5291      0.0002      0.2799      0.1983
       142        -0.5507      0.0000     -0.0001      0.3032      0.2156
       143         0.0000      0.0329      0.0150      0.0013      0.0009
       144         0.0000      0.0150     -0.0329      0.0013      0.0009
       145         0.0221      0.0000      0.0000      0.0005      0.0004
       146        -0.0000     -0.0889      0.3452      0.1271      0.0932
       147        -0.0000      0.3452      0.0889      0.1270      0.0932
       148        -0.3189      0.0000      0.0000      0.1017      0.0758
       149         0.0000     -0.0000      0.0000      0.0000      0.0000
       150         0.0429     -0.0000     -0.0000      0.0018      0.0014
       151         0.0000      0.0260      0.0271      0.0014      0.0011
       152        -0.0000      0.0271     -0.0261      0.0014      0.0011
       153         0.0000     -0.0830      0.3238      0.1117      0.0852
       154        -0.0000     -0.3238     -0.0830      0.1117      0.0852
       155        -0.0706      0.0001      0.0001      0.0050      0.0038
       156        -0.0000     -0.1522      0.0848      0.0304      0.0237
       157        -0.0000     -0.0848     -0.1522      0.0304      0.0237
       158         0.0000      0.0371     -0.2982      0.0903      0.0710
       159         0.0000     -0.2982     -0.0371      0.0903      0.0710
       160        -0.0415     -0.0000      0.0000      0.0017      0.0014
       161         0.0000     -0.0000      0.0000      0.0000      0.0000
       162         0.0000     -0.0124      0.0723      0.0054      0.0043
       163         0.0000      0.0722      0.0123      0.0054      0.0043
       164        -0.0000     -0.4812      0.0666      0.2360      0.1897
       165        -0.0000     -0.0666     -0.4812      0.2360      0.1897
       166         0.1197     -0.0000     -0.0000      0.0143      0.0116
       167         0.0000     -0.0001     -0.0000      0.0000      0.0000
       168        -0.0860      0.0000      0.0000      0.0074      0.0060
       169         0.0000      0.0202      0.1326      0.0180      0.0147
       170         0.0000      0.1326     -0.0203      0.0180      0.0147
       171         0.0000      0.0909     -0.1285      0.0248      0.0204
       172         0.0000     -0.1285     -0.0909      0.0248      0.0204
       173         0.2275     -0.0000      0.0000      0.0518      0.0435
       174         0.0000      0.0051     -0.0008      0.0000      0.0000
       175         0.0000      0.0008      0.0051      0.0000      0.0000
       176         0.0001      0.0138     -0.0403      0.0018      0.0015
       177         0.0000     -0.0403     -0.0138      0.0018      0.0015
       178         0.0000      0.0001     -0.0000      0.0000      0.0000
       179        -0.3677      0.0000      0.0000      0.1352      0.1172
       180        -0.0409     -0.0001     -0.0001      0.0017      0.0015
       181        -0.0000     -0.0451      0.1546      0.0259      0.0226
       182        -0.0000      0.1546      0.0451      0.0259      0.0226
       183        -0.0001     -0.0025      0.0346      0.0012      0.0011
       184         0.0000     -0.0346     -0.0025      0.0012      0.0011
       185         0.2868     -0.0000      0.0000      0.0823      0.0723
       186         0.3441      0.0000     -0.0000      0.1184      0.1050
       187        -0.0000     -0.0729      0.0001      0.0053      0.0048
       188        -0.0000     -0.0001     -0.0729      0.0053      0.0048
       189        -0.0000      0.0075     -0.0431      0.0019      0.0017
       190        -0.0000      0.0431      0.0075      0.0019      0.0017
       191        -0.0000     -0.0000     -0.0001      0.0000      0.0000
       192         0.0000     -0.0229      0.1385      0.0197      0.0179
       193         0.0000      0.1385      0.0229      0.0197      0.0179
       194         0.0961     -0.0001      0.0001      0.0092      0.0084
       195        -0.0001      0.0123      0.1026      0.0107      0.0097
       196         0.0000      0.1027     -0.0124      0.0107      0.0097
       197        -0.0000     -0.3411     -0.2133      0.1618      0.1489
       198         0.0000      0.2133     -0.3411      0.1618      0.1489
       199        -0.0000     -0.0455      0.1629      0.0286      0.0264
       200        -0.0000      0.1628      0.0456      0.0286      0.0264
       201        -0.0944     -0.0000      0.0001      0.0089      0.0083
       202         0.0000     -0.0735      0.0393      0.0069      0.0065
       203        -0.0000     -0.0392     -0.0735      0.0069      0.0065
       204        -0.0000      0.0001     -0.0000      0.0000      0.0000
       205         0.0000      0.1347      0.0091      0.0182      0.0172
       206        -0.0000      0.0091     -0.1346      0.0182      0.0171
       207         0.1120     -0.0000     -0.0000      0.0125      0.0118
       208        -0.0000     -0.1015     -0.0086      0.0104      0.0098
       209        -0.0000      0.0086     -0.1015      0.0104      0.0098
       210        -0.0493      0.0000     -0.0000      0.0024      0.0023
       211         0.0000      0.0525     -0.0321      0.0038      0.0037
       212         0.0000      0.0321      0.0525      0.0038      0.0037
       213        -0.0743      0.0000      0.0000      0.0055      0.0055
       214        -0.0064      0.0000      0.0000      0.0000      0.0000
       215        -0.0000     -0.0000     -0.0000      0.0000      0.0000
       216        -0.0000     -0.0215      0.0803      0.0069      0.0070
       217        -0.0000      0.0803      0.0215      0.0069      0.0070
       218         0.0000      0.0006     -0.0031      0.0000      0.0000
       219         0.0000      0.0031      0.0006      0.0000      0.0000
       220        -0.0272     -0.0000     -0.0000      0.0007      0.0008
       221        -0.0246      0.0000     -0.0000      0.0006      0.0006
       222         0.0000      0.0348      0.0173      0.0015      0.0016
       223        -0.0000      0.0173     -0.0348      0.0015      0.0016
       224        -0.0000      0.0145      0.0488      0.0026      0.0027
       225        -0.0000      0.0487     -0.0145      0.0026      0.0027
       226        -0.1579     -0.0000     -0.0000      0.0249      0.0263
       227        -0.0505     -0.0000      0.0000      0.0026      0.0027
       228         0.0404     -0.0000     -0.0000      0.0016      0.0018
       229        -0.0000     -0.3221     -0.0056      0.1038      0.1121
       230         0.0000     -0.0056      0.3221      0.1038      0.1121
       231        -0.0000      0.0822     -0.0332      0.0079      0.0087
       232         0.0000      0.0332      0.0822      0.0079      0.0087
       233        -0.0890      0.0000      0.0000      0.0079      0.0093
       234         0.0000     -0.0000      0.0000      0.0000      0.0000
       235        -0.0000      0.1629      0.0988      0.0363      0.0437
       236         0.0000      0.0988     -0.1629      0.0363      0.0437
       237        -0.0108     -0.0000     -0.0000      0.0001      0.0001
       238        -0.0001      0.0156     -0.0508      0.0028      0.0035
       239        -0.0002      0.0508      0.0156      0.0028      0.0035
       240         0.4323      0.0000      0.0000      0.1869      0.2290
       241         0.0000     -0.0176     -0.0397      0.0019      0.0024
       242        -0.0000     -0.0397      0.0176      0.0019      0.0024
       243         0.0000     -0.0000      0.0000      0.0000      0.0000
       244         0.0000      0.0864      0.0051      0.0075      0.0096
       245        -0.0000     -0.0051      0.0863      0.0075      0.0096
       246        -0.0000     -0.0830     -0.0064      0.0069      0.0090
       247         0.0000     -0.0064      0.0831      0.0069      0.0090
       248         0.0000      0.0000     -0.0003      0.0000      0.0000
       249        -0.0000     -0.0148      0.0673      0.0048      0.0062
       250         0.0000     -0.0674     -0.0148      0.0048      0.0062
       251         0.2715     -0.0000     -0.0001      0.0737      0.0960
       252        -0.0001      0.0624     -0.2824      0.0836      0.1094
       253         0.0001      0.2823      0.0624      0.0836      0.1094
       254         0.2181     -0.0000      0.0000      0.0476      0.0634
       255        -0.0947      0.0000     -0.0000      0.0090      0.0121
       256        -0.0000     -0.0192     -0.1737      0.0306      0.0414
       257        -0.0000     -0.1737      0.0192      0.0306      0.0414
       258        -0.0000      0.0184      0.0714      0.0054      0.0075
       259        -0.0000      0.0713     -0.0183      0.0054      0.0075
       260        -0.0000      0.0001      0.0004      0.0000      0.0000
       261        -0.0000     -0.0387      0.0606      0.0052      0.0071
       262        -0.0000      0.0606      0.0388      0.0052      0.0071
       263        -0.0000      0.0969     -0.0285      0.0102      0.0141
       264         0.0000     -0.0283     -0.0968      0.0102      0.0140
       265        -0.1086     -0.0000     -0.0000      0.0118      0.0163
       266        -0.0000      0.1269      0.0430      0.0180      0.0249
       267         0.0000      0.0430     -0.1269      0.0180      0.0249
       268         0.0000     -0.0000      0.0000      0.0000      0.0000
       269         0.2205      0.0000      0.0000      0.0486      0.0685
       270         0.0001     -0.0786     -0.0034      0.0062      0.0087
       271        -0.0000     -0.0034      0.0786      0.0062      0.0087
       272        -0.0000      0.0205     -0.0777      0.0065      0.0093
       273        -0.0000      0.0777      0.0205      0.0064      0.0093
       274        -0.0000      0.0016     -0.0403      0.0016      0.0024
       275         0.0000     -0.0403     -0.0016      0.0016      0.0024
       276        -0.1153     -0.0000      0.0000      0.0133      0.0194
       277        -0.0000     -0.0002     -0.0003      0.0000      0.0000
       278        -0.0000     -0.0028     -0.0822      0.0068      0.0099
       279        -0.0000      0.0822     -0.0028      0.0068      0.0099
       280         0.0597     -0.0000     -0.0000      0.0036      0.0053
       281         0.0000      0.0206     -0.0264      0.0011      0.0017
       282        -0.0000     -0.0264     -0.0207      0.0011      0.0017
       283         0.1745     -0.0000      0.0000      0.0305      0.0458
       284        -0.0000      0.0000     -0.0000      0.0000      0.0000
       285        -0.0000     -0.0923      0.0914      0.0169      0.0257
       286        -0.0000      0.0914      0.0923      0.0169      0.0257
       287        -0.0000      0.0001      0.0001      0.0000      0.0000
       288        -0.0673      0.0002     -0.0000      0.0045      0.0070
       289        -0.0002     -0.0164      0.0306      0.0012      0.0019
       290        -0.0003     -0.0306     -0.0164      0.0012      0.0019
       291         0.0000      0.0757     -0.0401      0.0073      0.0115
       292         0.0000     -0.0401     -0.0756      0.0073      0.0115
       293        -0.0000     -0.0473      0.0580      0.0056      0.0088
       294         0.0000      0.0580      0.0473      0.0056      0.0088
       295        -0.0329     -0.0000      0.0000      0.0011      0.0017
       296         0.0000     -0.0482     -0.0039      0.0023      0.0037
       297         0.0000     -0.0039      0.0482      0.0023      0.0037
       298        -0.0000     -0.0003     -0.0004      0.0000      0.0000
       299         0.0866      0.0000     -0.0000      0.0075      0.0120
       300         0.0969     -0.0000     -0.0000      0.0094      0.0156
       301        -0.0000      0.0092     -0.1347      0.0182      0.0305
       302        -0.0000     -0.1347     -0.0092      0.0182      0.0305
       303        -0.0000     -0.0078     -0.0538      0.0030      0.0050
       304        -0.0000      0.0538     -0.0079      0.0030      0.0050
       305         0.0000      0.0009      0.0015      0.0000      0.0000
       306         0.0000      0.0699     -0.0451      0.0069      0.0117
       307        -0.0000     -0.0452     -0.0700      0.0069      0.0118
       308        -0.0000     -0.0434      0.0772      0.0078      0.0133
       309         0.0000      0.0772      0.0433      0.0078      0.0133
       310         0.0590      0.0000     -0.0000      0.0035      0.0059
       311        -0.0000      0.0082      0.1559      0.0244      0.0418
       312         0.0000      0.1559     -0.0082      0.0244      0.0418
       313        -0.0393     -0.0000      0.0000      0.0015      0.0027
       314         0.0000     -0.0059      0.0256      0.0007      0.0012
       315         0.0000     -0.0255     -0.0059      0.0007      0.0012
       316        -0.0000      0.0393     -0.1950      0.0396      0.0700
       317         0.0000     -0.1950     -0.0393      0.0396      0.0700
       318         0.0592      0.0000      0.0000      0.0035      0.0063
       319        -0.0000     -0.0097      0.0430      0.0019      0.0035
       320        -0.0000      0.0430      0.0097      0.0019      0.0035
       321        -0.0117     -0.0000     -0.0000      0.0001      0.0002
       322        -0.0000      0.0207      0.0545      0.0034      0.0062
       323         0.0000      0.0545     -0.0207      0.0034      0.0062
       324        -0.0000     -0.0004      0.0000      0.0000      0.0000
       325        -0.0000      0.1340     -0.1460      0.0393      0.0724
       326        -0.0000     -0.1460     -0.1340      0.0393      0.0724
       327         0.0007     -0.0301     -0.0455      0.0030      0.0055
       328        -0.0005     -0.0455      0.0301      0.0030      0.0055
       329        -0.1450      0.0000     -0.0003      0.0210      0.0390
       330         0.0000      0.0000     -0.0000      0.0000      0.0000
       331        -0.1042      0.0000      0.0000      0.0109      0.0207
       332         0.0000     -0.0000     -0.0000      0.0000      0.0000
       333         0.0002      0.0000      0.0003      0.0000      0.0000
       334        -0.0000      0.0004     -0.0000      0.0000      0.0000
       335        -0.0621     -0.0000     -0.0001      0.0039      0.0075
       336         0.1832     -0.0000     -0.0000      0.0336      0.0654
       337         0.0000     -0.0053      0.1402      0.0197      0.0384
       338        -0.0000     -0.1402     -0.0053      0.0197      0.0384
       339        -0.1182     -0.0000      0.0000      0.0140      0.0275
       340        -0.0000     -0.0400      0.0269      0.0023      0.0047
       341        -0.0000      0.0269      0.0399      0.0023      0.0047
       342        -0.0000     -0.0767      0.0620      0.0097      0.0198
       343         0.0000      0.0621      0.0768      0.0097      0.0198
       344         0.1060     -0.0000      0.0000      0.0112      0.0230
       345         0.0000      0.0014     -0.0590      0.0035      0.0072
       346        -0.0000      0.0590      0.0014      0.0035      0.0072
       347        -0.0000     -0.0080      0.0382      0.0015      0.0032
       348        -0.0000      0.0382      0.0080      0.0015      0.0032
       349         0.0120     -0.0000     -0.0000      0.0001      0.0003
       350         0.0000     -0.0302     -0.0740      0.0064      0.0138
       351        -0.0000     -0.0740      0.0302      0.0064      0.0138
       352         0.0000     -0.0356     -0.0148      0.0015      0.0033
       353         0.0002      0.0148     -0.0356      0.0015      0.0033
       354        -0.0000     -0.0003     -0.0001      0.0000      0.0000
       355         0.0968     -0.0000      0.0001      0.0094      0.0206
       356         0.0242     -0.0000     -0.0000      0.0006      0.0013
       357         0.0365      0.0000      0.0000      0.0013      0.0030
       358        -0.0000      0.0002      0.0000      0.0000      0.0000
       359        -0.0528     -0.0001      0.0002      0.0028      0.0064
       360        -0.0000      0.1376     -0.0043      0.0190      0.0434
       361        -0.0001     -0.0043     -0.1376      0.0189      0.0434
       362         0.0000      0.0161     -0.0023      0.0003      0.0006
       363        -0.0000      0.0023      0.0163      0.0003      0.0006
       364        -0.0531     -0.0000      0.0000      0.0028      0.0065
       365         0.0000     -0.0032      0.0438      0.0019      0.0047
       366        -0.0000     -0.0440     -0.0031      0.0019      0.0047
       367         0.0000     -0.0000     -0.0000      0.0000      0.0000
       368         0.0029     -0.0000      0.0000      0.0000      0.0000
       369         0.0000     -0.0668      0.0124      0.0046      0.0112
       370         0.0000     -0.0124     -0.0670      0.0046      0.0112
       371         0.0000     -0.1349     -0.1436      0.0388      0.0963
       372        -0.0000     -0.1436      0.1349      0.0388      0.0963
       373         0.0000     -0.0001      0.0001      0.0000      0.0000
       374        -0.0000      0.0763     -0.1244      0.0213      0.0529
       375         0.0000      0.1244      0.0763      0.0213      0.0529
       376        -0.0000     -0.0046      0.0008      0.0000      0.0001
       377        -0.0000      0.0008      0.0046      0.0000      0.0001
       378        -0.0000      0.0000     -0.0000      0.0000      0.0000
       379        -0.0060      0.0000      0.0000      0.0000      0.0001
       380        -0.0000      0.0443     -0.1001      0.0120      0.0306
       381         0.0000      0.1001      0.0443      0.0120      0.0306
       382        -0.1888      0.0000      0.0000      0.0357      0.0912
       383         0.0000     -0.0048     -0.0023      0.0000      0.0001
       384         0.0000      0.0022     -0.0048      0.0000      0.0001
       385        -0.0000     -0.0000      0.0000      0.0000      0.0000
       386         0.0621      0.0000     -0.0000      0.0039      0.0100
       387        -0.3081     -0.0000     -0.0000      0.0949      0.2509
       388        -0.0000     -0.1191      0.3251      0.1199      0.3194
       389         0.0000     -0.3251     -0.1191      0.1199      0.3194
       390        -0.0000      0.0097     -0.0008      0.0001      0.0003
       391        -0.0000     -0.0008     -0.0097      0.0001      0.0003
       392         0.0000     -0.0251      0.0580      0.0040      0.0110
       393        -0.0000     -0.0580     -0.0251      0.0040      0.0110
       394         0.0000     -0.0388      0.0052      0.0015      0.0042
       395        -0.0000     -0.0052     -0.0388      0.0015      0.0042
       396        -0.0000      0.0902     -0.3630      0.1399      0.3909
       397        -0.0000     -0.3630     -0.0902      0.1399      0.3909
       398         0.0000      0.0595     -0.2170      0.0506      0.1447
       399         0.0000     -0.2170     -0.0595      0.0506      0.1447
       400         0.3821     -0.0000      0.0000      0.1460      0.4244
       401         0.0000      0.0017     -0.0002      0.0000      0.0000
       402         0.0000     -0.0002     -0.0017      0.0000      0.0000
       403        -0.0929     -0.0000      0.0000      0.0086      0.0260
       404         0.0000      0.0294     -0.0619      0.0047      0.0144
       405         0.0000      0.0619      0.0294      0.0047      0.0144
       406        -0.0280      0.0000      0.0000      0.0008      0.0026
 Ground to excited state transition velocity dipole moments (Au):
       state          X           Y           Z        Dip. S.      Osc.
         1         0.0000     -0.0070      0.1194      0.0143      0.0278
         2         0.0000      0.1194      0.0070      0.0143      0.0278
         3        -0.0000     -0.0082      0.1181      0.0140      0.0256
         4         0.0000      0.1181      0.0082      0.0140      0.0256
         5         0.0000      0.1249      0.1018      0.0260      0.0414
         6        -0.0000      0.1018     -0.1249      0.0260      0.0414
[...]
      1  -0.136574D+03 -0.136569D+03 -0.136569D+03 -0.136545D+03 -0.136457D+03
      2  -0.183204D+00 -0.230393D-04  0.578091D-05  0.118236D+00  0.124937D-04
      3  -0.656363D-05 -0.586928D-02 -0.140167D+00  0.000000D+00 -0.401548D-01
      4   0.263046D-04 -0.140174D+00  0.587234D-02 -0.124945D-04 -0.267160D-01
      5   0.520147D+00  0.108265D-03 -0.233527D-04 -0.354609D+00 -0.403646D-04
      6   0.174012D-04  0.152749D-01  0.364795D+00  0.000000D+00  0.134861D+00
      7  -0.659382D-04  0.364811D+00 -0.152834D-01  0.352721D-04  0.897417D-01
      8   0.000000D+00  0.000000D+00 -0.336318D-04  0.000000D+00 -0.316272D-05
      9  -0.161188D-05 -0.191863D-01  0.808725D-03  0.000000D+00 -0.183115D+00
     10  -0.192564D-05  0.800541D-03  0.192357D-01  0.000000D+00  0.275039D+00
     11   0.459165D+00  0.436894D-03 -0.501802D-04 -0.244834D+01 -0.151691D-03
     12   0.231851D+00  0.257955D+00 -0.171660D-02 -0.959580D+00 -0.220520D-01
     13   0.231956D+00 -0.257630D+00  0.167587D-02 -0.959616D+00  0.220752D-01
     14   0.000000D+00  0.148982D-02  0.357919D-01  0.280580D-05  0.313646D+00
     15  -0.381029D-04  0.356218D-01 -0.150132D-02 -0.155346D-04  0.208880D+00
     16   0.955174D-05  0.171155D-02  0.257883D+00  0.000000D+00 -0.307066D-01
               341           342           343           344           345 
      1  -0.136457D+03 -0.136451D+03 -0.136451D+03 -0.136419D+03 -0.136380D+03
      2   0.100896D-04  0.134800D-04 -0.213513D-05 -0.105962D+00 -0.158547D-05
      3   0.266920D-01 -0.770142D-01  0.617264D-01 -0.130077D-04  0.162732D-02
      4  -0.400363D-01 -0.617159D-01 -0.770690D-01 -0.118417D-04  0.589651D-01
      5  -0.276227D-04 -0.414731D-04  0.473627D-05  0.327665D+00  0.421922D-05
      6  -0.896754D-01  0.216631D+00 -0.173645D+00  0.408686D-04 -0.433349D-02
      7   0.134530D+00  0.173606D+00  0.216814D+00  0.360203D-04 -0.157036D+00
      8   0.215010D-05  0.570828D-05 -0.321943D-05  0.000000D+00  0.000000D+00
      9  -0.274805D+00 -0.110692D+00 -0.138422D+00 -0.468945D-04  0.138350D+00
     10  -0.183086D+00  0.138013D+00 -0.110771D+00  0.517298D-04 -0.381511D-02
     11  -0.434008D-04 -0.118037D-03 -0.252445D-04  0.934016D+00 -0.861416D-05
     12  -0.307851D-01  0.491797D-01  0.571020D-01 -0.145614D+00  0.175841D+00
     13   0.307913D-01 -0.491569D-01 -0.570911D-01 -0.145616D+00 -0.175820D+00
     14  -0.208909D+00 -0.170506D-01  0.134306D-01  0.463214D-04 -0.721435D-03
     15   0.313656D+00 -0.135276D-01 -0.165995D-01  0.309930D-04 -0.262072D-01
     16   0.220983D-01  0.571506D-01 -0.491669D-01  0.224689D-05 -0.134403D-02
               346           347           348           349           350 
      1  -0.136380D+03 -0.136315D+03 -0.136315D+03 -0.136295D+03 -0.136255D+03
      2   0.000000D+00  0.187347D-05  0.000000D+00 -0.120176D-01  0.000000D+00
      3   0.589634D-01 -0.817045D-02  0.381974D-01 -0.349369D-05 -0.298842D-01
      4  -0.162846D-02 -0.381895D-01 -0.816506D-02  0.725271D-05  0.741409D-01
      5   0.000000D+00 -0.307953D-05 -0.200318D-05  0.604214D-01  0.177923D-05
      6  -0.157031D+00  0.117646D-01 -0.549901D-01  0.950854D-05  0.111741D+00
      7   0.433732D-02  0.549675D-01  0.117501D-01 -0.193772D-04 -0.277222D+00
      8   0.000000D+00  0.144342D-05 -0.453257D-05  0.000000D+00  0.000000D+00
      9  -0.382398D-02  0.647228D-01  0.138383D-01  0.104146D-04  0.405630D+00
     10  -0.138348D+00 -0.138446D-01  0.647256D-01  0.000000D+00  0.163499D+00
     11   0.000000D+00 -0.539992D-04 -0.427883D-04 -0.687882D+00  0.971664D-05
     12   0.134569D-02 -0.107261D+00 -0.190147D-01  0.176860D+00 -0.325136D-01
     13  -0.134639D-02  0.107257D+00  0.190098D-01  0.176879D+00  0.324888D-01
     14  -0.262008D-01 -0.327966D-01  0.153346D+00 -0.116451D-04  0.248903D+00
     15   0.725451D-03 -0.153336D+00 -0.327881D-01 -0.949876D-05 -0.617503D+00
     16   0.175831D+00 -0.190107D-01  0.107256D+00 -0.333124D-05  0.144504D-01
               351           352           353           354           355 
      1  -0.136255D+03 -0.136207D+03 -0.136207D+03 -0.136206D+03 -0.136202D+03
      2   0.370916D-05 -0.408405D-05 -0.161723D-03  0.000000D+00 -0.968139D-01
      3  -0.741419D-01 -0.354958D-01  0.149971D-01 -0.263082D-03 -0.223410D-04
      4  -0.298856D-01  0.149983D-01  0.354966D-01  0.679501D-04 -0.593336D-04
      5  -0.114831D-04  0.993141D-05  0.419576D-03  0.000000D+00  0.251400D+00
      6   0.277226D+00  0.114593D+00 -0.484164D-01  0.851966D-03  0.717123D-04
      7   0.111746D+00 -0.484199D-01 -0.114596D+00 -0.219782D-03  0.191850D-03
      8   0.128289D-05  0.575794D-04 -0.722888D-05 -0.831199D-02  0.000000D+00
      9  -0.163504D+00 -0.199048D+00 -0.471108D+00 -0.905724D-03  0.796781D-03
     10   0.405632D+00 -0.471098D+00  0.199050D+00 -0.352715D-02 -0.298976D-03
     11  -0.356887D-04 -0.475657D-04 -0.906971D-03  0.104669D-05 -0.556717D+00
     12   0.144633D-01 -0.233318D-01 -0.611683D-01 -0.975347D-04 -0.952062D-02
     13  -0.144428D-01  0.233297D-01  0.611297D-01  0.975645D-04 -0.971366D-02
     14   0.617513D+00 -0.260814D+00  0.110198D+00 -0.195346D-02 -0.170375D-03
     15   0.248907D+00  0.110193D+00  0.260803D+00  0.501441D-03 -0.442568D-03
     16   0.324991D-01  0.611373D-01 -0.233296D-01  0.454759D-03  0.333793D-04
               356           357           358           359           360 
      1  -0.136125D+03 -0.136102D+03 -0.136071D+03 -0.136068D+03 -0.136064D+03
      2  -0.242388D-01 -0.365005D-01  0.000000D+00  0.527929D-01  0.410033D-04
      3  -0.229780D-05  0.000000D+00  0.174714D-03 -0.893374D-04  0.137616D+00
      4   0.210241D-05 -0.182554D-05 -0.387283D-04 -0.234298D-03  0.373402D-02
      5   0.134355D+00  0.108199D+00  0.000000D+00 -0.186729D+00 -0.145303D-03
      6   0.710953D-05  0.000000D+00 -0.483060D-03  0.248176D-03 -0.381819D+00
      7  -0.777682D-05  0.492846D-05  0.106358D-03  0.648738D-03 -0.103608D-01
      8   0.000000D+00  0.000000D+00 -0.823997D-02  0.000000D+00  0.117022D-04
      9   0.743171D-05  0.401087D-05  0.445630D-04  0.265176D-03 -0.407777D-02
     10   0.619197D-05  0.260719D-05  0.193541D-03 -0.982415D-04  0.150269D+00
     11   0.493551D+00 -0.362676D+00  0.000000D+00  0.287958D+00  0.149841D-03
     12  -0.672658D+00  0.458354D-01  0.191747D-04  0.204796D+00 -0.376773D-02
     13  -0.672663D+00  0.458438D-01 -0.191294D-04  0.204566D+00  0.410323D-02
     14   0.867831D-05 -0.625118D-05  0.189969D-03 -0.805127D-04  0.160466D+00
     15  -0.159200D-04 -0.501713D-05 -0.393981D-04 -0.276806D-03  0.433952D-02
     16  -0.125698D-05  0.399454D-05 -0.939183D-04  0.540707D-04 -0.628046D-01
               361           362           363           364           365 
      1  -0.136064D+03 -0.136062D+03 -0.136062D+03 -0.136040D+03 -0.135872D+03
      2   0.928758D-04 -0.605123D-05  0.000000D+00  0.531147D-01 -0.154357D-05
      3  -0.373642D-02  0.160682D-01  0.219587D-02 -0.367835D-05 -0.337210D-02
      4   0.137589D+00  0.223328D-02 -0.162934D-01 -0.684674D-05 -0.437885D-01
      5  -0.330771D-03  0.220889D-04 -0.201397D-05 -0.225944D+00  0.503905D-05
      6   0.103661D-01 -0.433963D-01 -0.593001D-02  0.961721D-05  0.119855D-01
      7  -0.381746D+00 -0.603438D-02  0.440216D-01  0.169980D-04  0.156129D+00
      8  -0.223807D-05  0.107117D-05  0.000000D+00  0.000000D+00  0.000000D+00
      9  -0.150230D+00 -0.354259D-02  0.258881D-01  0.214847D-04 -0.496150D-01
     10  -0.407926D-02  0.256337D-01  0.350895D-02 -0.689759D-05  0.357049D-02
     11   0.418321D-03 -0.554337D-04 -0.125186D-04 -0.868118D+00  0.978964D-05
     12  -0.625997D-01  0.193948D-01 -0.112233D+00  0.801903D+00 -0.812954D-01
     13   0.633869D-01 -0.194477D-01  0.112246D+00  0.801895D+00  0.812821D-01
     14  -0.435942D-02  0.267349D+00  0.365926D-01 -0.109229D-04  0.207129D-01
     15   0.160008D+00  0.366274D-01 -0.267617D+00 -0.249752D-04  0.274305D+00
     16   0.392326D-02  0.112341D+00  0.194243D-01  0.000000D+00 -0.337214D-02
               366           367           368           369           370 
      1  -0.135872D+03 -0.135871D+03 -0.135871D+03 -0.135868D+03 -0.135868D+03
      2   0.119284D-05  0.000000D+00 -0.289481D-02  0.000000D+00  0.000000D+00
      3  -0.440268D-01  0.000000D+00  0.000000D+00 -0.668651D-01 -0.120819D-01
      4   0.332815D-02  0.000000D+00  0.000000D+00 -0.120922D-01  0.670156D-01
      5  -0.323763D-05  0.000000D+00 -0.117121D-02  0.123398D-05  0.145169D-05
      6   0.156698D+00  0.000000D+00  0.418111D-05  0.158963D+00  0.287335D-01
      7  -0.118832D-01 -0.341680D-05  0.138907D-05  0.287701D-01 -0.159502D+00
      8   0.000000D+00  0.266824D-02  0.000000D+00 -0.111576D-05  0.130484D-05
      9   0.388036D-02  0.000000D+00  0.269922D-05  0.825129D-01 -0.456942D+00
     10   0.480231D-01 -0.161701D-04  0.745533D-05 -0.457108D+00 -0.825316D-01
     11  -0.607188D-05  0.000000D+00 -0.995963D-01  0.398229D-05  0.840018D-05
     12   0.329467D-02  0.385421D-05  0.209010D-01 -0.209446D-01  0.965572D-01
     13  -0.329580D-02 -0.348200D-05  0.209077D-01  0.209514D-01 -0.965642D-01
     14   0.272716D+00 -0.405736D-05  0.167706D-04 -0.456312D+00 -0.823487D-01
     15  -0.210262D-01 -0.108639D-04  0.288918D-05 -0.822661D-01  0.455361D+00
     16  -0.816304D-01 -0.458051D-05 -0.111819D-05 -0.962761D-01 -0.209387D-01
               371           372           373           374           375 
      1  -0.135777D+03 -0.135777D+03 -0.135774D+03 -0.135772D+03 -0.135772D+03
      2  -0.123621D-05  0.000000D+00  0.000000D+00  0.146186D-05 -0.499055D-05
      3  -0.134257D+00 -0.144156D+00 -0.860408D-04  0.768540D-01  0.124046D+00
      4   0.144155D+00 -0.134266D+00 -0.135487D-03  0.124034D+00 -0.768582D-01
      5   0.434899D-05 -0.299054D-05  0.000000D+00 -0.441703D-05  0.168153D-04
      6   0.448226D+00  0.481273D+00  0.289986D-03 -0.260826D+00 -0.420986D+00
      7  -0.481272D+00  0.448256D+00  0.457277D-03 -0.420944D+00  0.260840D+00
      8   0.000000D+00  0.000000D+00  0.831315D-02  0.558529D-05  0.000000D+00
      9   0.526281D+00 -0.490176D+00 -0.502495D-03  0.461837D+00 -0.286181D+00
     10   0.490147D+00  0.526284D+00  0.316321D-03 -0.286165D+00 -0.461885D+00
     11   0.237919D-04 -0.175149D-04  0.000000D+00 -0.106289D-04  0.617872D-04
     12   0.271783D-01 -0.271536D-01  0.240041D-04 -0.369186D-01  0.211085D-01
     13  -0.271730D-01  0.271564D-01 -0.240025D-04  0.369164D-01 -0.211104D-01
     14   0.450112D+00  0.483292D+00  0.245286D-03 -0.192201D+00 -0.310232D+00
     15  -0.483291D+00  0.450131D+00  0.363401D-03 -0.310189D+00  0.192217D+00
     16  -0.271635D-01 -0.271723D-01  0.779195D-05 -0.211124D-01 -0.369165D-01
               376           377           378           379           380 
      1  -0.135728D+03 -0.135728D+03 -0.135695D+03 -0.135695D+03 -0.135674D+03
      2   0.000000D+00  0.000000D+00  0.000000D+00  0.595162D-02  0.225826D-05
      3  -0.458986D-02  0.759170D-03  0.138093D-04  0.481672D-05  0.447119D-01
      4  -0.770356D-03 -0.459709D-02  0.374424D-05 -0.823624D-05  0.999500D-01
      5   0.000000D+00  0.000000D+00  0.000000D+00 -0.134353D-01 -0.746026D-05
      6   0.911510D-02 -0.150061D-02 -0.441078D-04 -0.154481D-04 -0.138752D+00
      7   0.153837D-02  0.913829D-02 -0.124094D-04  0.269886D-04 -0.310169D+00
      8   0.000000D+00  0.000000D+00 -0.285708D-02  0.000000D+00  0.000000D+00
      9   0.852317D-02  0.513198D-01  0.162343D-04 -0.393208D-04  0.396260D+00
     10  -0.513377D-01  0.856823D-02 -0.478645D-04 -0.186095D-04 -0.177261D+00
     11  -0.228194D-05  0.000000D+00  0.000000D+00  0.103993D+00 -0.300331D-04
     12  -0.223679D-01 -0.110215D+00  0.288402D-05  0.272113D-02  0.197166D-01
     13   0.223676D-01  0.110216D+00 -0.288598D-05  0.271568D-02 -0.197142D-01
     14  -0.905813D-01  0.151003D-01 -0.326858D-04 -0.149452D-04 -0.108473D+00
     15  -0.150598D-01 -0.905715D-01 -0.107795D-04  0.292476D-04 -0.242489D+00
     16  -0.110211D+00  0.223670D-01  0.501239D-05 -0.109211D-05  0.799973D-02
               381           382           383           384           385 
      1  -0.135674D+03 -0.135662D+03 -0.135603D+03 -0.135603D+03 -0.135601D+03
      2  -0.685857D-05  0.188830D+00 -0.167365D-04 -0.801943D-05  0.000000D+00
      3   0.999559D-01  0.660410D-05 -0.475091D-02  0.226975D-02 -0.174921D-05
      4  -0.447138D-01 -0.497445D-05  0.227104D-02  0.474441D-02 -0.487020D-05
      5   0.226320D-04 -0.637965D+00  0.572519D-04  0.276293D-04  0.000000D+00
      6  -0.310189D+00 -0.215682D-04  0.232746D-01 -0.111232D-01  0.443464D-05
      7   0.138759D+00  0.156385D-04 -0.111270D-01 -0.232531D-01  0.200049D-04
      8   0.000000D+00  0.000000D+00 -0.462818D-05 -0.271803D-05 -0.133083D-01
      9  -0.177275D+00 -0.189594D-04  0.149678D-01  0.312810D-01 -0.217160D-04
     10  -0.396285D+00 -0.170675D-04  0.313105D-01 -0.149643D-01  0.772700D-05
     11   0.813989D-04 -0.247750D+01  0.183224D-03  0.977829D-04  0.000000D+00
     12  -0.800039D-02  0.423477D-01 -0.151662D-01 -0.348246D-01  0.175909D-04
     13   0.799536D-02  0.423492D-01  0.151723D-01  0.348297D-01 -0.175952D-04
     14  -0.242518D+00 -0.157145D-04 -0.932893D-01  0.446177D-01  0.315402D-04
     15   0.108489D+00  0.234505D-04  0.446193D-01  0.933156D-01 -0.275204D-04
     16   0.197192D-01  0.198421D-05  0.348302D-01 -0.151737D-01 -0.885648D-05
               386           387           388           389           390 
      1  -0.135594D+03 -0.135533D+03 -0.135500D+03 -0.135500D+03 -0.135461D+03
      2  -0.621127D-01  0.308094D+00  0.107475D-05 -0.366049D-05  0.000000D+00
      3   0.000000D+00 -0.387768D-05 -0.120463D+00 -0.324568D+00  0.965629D-02
      4   0.000000D+00  0.393606D-05 -0.324571D+00  0.120460D+00  0.760700D-03
      5   0.215763D+00 -0.109362D+01 -0.407196D-05  0.131569D-04  0.000000D+00
      6  -0.139416D-05  0.131633D-04  0.416439D+00  0.112203D+01 -0.282171D-01
      7  -0.177961D-05 -0.136518D-04  0.112204D+01 -0.416430D+00 -0.222313D-02
      8   0.000000D+00  0.000000D+00  0.506916D-05  0.000000D+00  0.000000D+00
      9   0.129391D-04  0.222750D-04 -0.166413D+01  0.617624D+00 -0.503911D-02
     10   0.374313D-05  0.222378D-04  0.617636D+00  0.166412D+01  0.640282D-01
     11   0.521816D+00 -0.307887D+01 -0.813720D-05  0.415714D-04 -0.447924D-05
     12  -0.828953D-01 -0.793058D-01  0.524185D-02 -0.172803D-02  0.272779D-01
     13  -0.829053D-01 -0.793046D-01 -0.524705D-02  0.173921D-02 -0.272782D-01
     14   0.113792D-04  0.127468D-04  0.668098D+00  0.180008D+01  0.556896D-01
     15  -0.211534D-04 -0.161630D-04  0.180010D+01 -0.668084D+00  0.438027D-02
     16   0.293340D-05  0.000000D+00  0.173928D-02  0.523065D-02  0.238601D+00
               391           392           393           394           395 
      1  -0.135461D+03 -0.135375D+03 -0.135375D+03 -0.135353D+03 -0.135353D+03
      2   0.000000D+00  0.000000D+00  0.163277D-05  0.000000D+00  0.000000D+00
      3  -0.760267D-03 -0.253368D-01 -0.578630D-01 -0.388699D-01 -0.505181D-02
      4   0.965908D-02 -0.578565D-01  0.253409D-01 -0.505142D-02  0.388656D-01
      5   0.000000D+00  0.000000D+00 -0.616242D-05  0.187075D-05  0.000000D+00
      6   0.222143D-02  0.977418D-01  0.223217D+00  0.125145D+00  0.162652D-01
      7  -0.282262D-01  0.223194D+00 -0.977577D-01  0.162629D-01 -0.125131D+00
      8   0.000000D+00  0.107618D-05  0.000000D+00  0.000000D+00  0.000000D+00
      9  -0.640207D-01 -0.285410D+00  0.125014D+00  0.126105D-01 -0.970219D-01
     10  -0.504400D-02  0.124981D+00  0.285440D+00 -0.970088D-01 -0.126075D-01
     11   0.000000D+00 -0.267969D-05 -0.855122D-05  0.410521D-05  0.150227D-05
     12   0.238602D+00 -0.326301D-01  0.129372D-01 -0.306329D-01  0.184557D+00
     13  -0.238603D+00  0.326289D-01 -0.129384D-01  0.306339D-01 -0.184557D+00
     14  -0.438942D-02  0.697861D-01  0.159409D+00 -0.139695D+00 -0.181510D-01
     15   0.556796D-01  0.159377D+00 -0.698218D-01 -0.181627D-01  0.139707D+00
     16  -0.272790D-01 -0.129421D-01 -0.326336D-01 -0.184543D+00 -0.306354D-01
               396           397           398           399           400 
      1  -0.135307D+03 -0.135307D+03 -0.135210D+03 -0.135210D+03 -0.135139D+03
      2   0.228372D-05  0.367129D-05 -0.420174D-05 -0.224596D-05 -0.382125D+00
      3   0.917759D-01 -0.362616D+00  0.604059D-01 -0.216726D+00 -0.146764D-05
      4   0.362614D+00  0.917758D-01  0.216731D+00  0.604066D-01  0.000000D+00
      5  -0.843972D-05 -0.137346D-04  0.162803D-04  0.866159D-05  0.153458D+01
      6  -0.335254D+00  0.132463D+01 -0.229759D+00  0.824337D+00  0.546907D-05
      7  -0.132462D+01 -0.335254D+00 -0.824358D+00 -0.229762D+00  0.000000D+00
      8  -0.456086D-05  0.150443D-05 -0.362974D-05  0.000000D+00  0.000000D+00
      9   0.164687D+01  0.416812D+00  0.129052D+01  0.359691D+00 -0.831511D-05
     10  -0.416820D+00  0.164689D+01 -0.359686D+00  0.129050D+01  0.000000D+00
     11  -0.166049D-04 -0.407080D-04  0.298605D-04  0.233480D-04  0.396057D+01
     12   0.367058D-01  0.793563D-02 -0.478080D-01 -0.115177D-01 -0.590049D-01
     13  -0.367044D-01 -0.792250D-02  0.478122D-01  0.115266D-01 -0.590044D-01
     14  -0.479837D+00  0.189589D+01 -0.436207D+00  0.156504D+01  0.113853D-04
     15  -0.189586D+01 -0.479834D+00 -0.156507D+01 -0.436211D+00  0.516104D-05
     16   0.792081D-02 -0.367072D-01 -0.115282D-01  0.478013D-01  0.000000D+00
               401           402           403           404           405 
      1  -0.134998D+03 -0.134998D+03 -0.134984D+03 -0.134900D+03 -0.134900D+03
      2   0.000000D+00  0.000000D+00  0.928643D-01  0.000000D+00  0.000000D+00
      3   0.169757D-02 -0.158530D-03  0.000000D+00  0.296350D-01  0.618125D-01
      4   0.159388D-03  0.169794D-02  0.000000D+00  0.618125D-01 -0.296355D-01
      5   0.000000D+00  0.000000D+00 -0.476623D+00  0.000000D+00  0.000000D+00
      6  -0.402851D-02  0.375548D-03  0.126768D-05 -0.114851D+00 -0.239556D+00
      7  -0.378940D-03 -0.402978D-02  0.000000D+00 -0.239556D+00  0.114853D+00
      8   0.000000D+00  0.000000D+00  0.000000D+00  0.000000D+00  0.000000D+00
      9  -0.318173D-02 -0.340122D-01 -0.243438D-05  0.323088D+00 -0.154900D+00
     10   0.340106D-01 -0.318716D-02 -0.136820D-05 -0.154901D+00 -0.323088D+00
     11   0.494161D-05 -0.115815D-05 -0.274222D+01  0.202630D-05 -0.131073D-05
     12  -0.942731D-01 -0.728975D+00  0.148803D+00 -0.251900D-01  0.110084D-01
     13   0.942713D-01  0.728973D+00  0.148802D+00  0.251904D-01 -0.110054D-01
     14   0.173263D-01 -0.161986D-02 -0.833500D-05  0.841280D-01  0.175471D+00
     15   0.162490D-02  0.173294D-01  0.897034D-05  0.175474D+00 -0.841285D-01
     16  -0.728977D+00  0.942714D-01 -0.255986D-05 -0.110003D-01 -0.251940D-01
               406 
      1  -0.134531D+03
      2   0.280416D-01
      3   0.000000D+00
      4   0.000000D+00
      5  -0.203271D+00
      6   0.000000D+00
      7   0.000000D+00
      8   0.000000D+00
      9   0.000000D+00
     10  -0.172752D-05
     11  -0.133678D+00
     12  -0.204088D+00
     13  -0.204088D+00
     14  -0.158285D-05
     15   0.000000D+00
     16   0.000000D+00
 Unable to Open any file for archive entry.
 1\1\GINC-HEL24\SP\RPBE1PBE TD-FC\Gen\C1H3F1\SABYASACHI\21-Mar-2022\0\\
 #P TD(Nstates=10000) pbe1pbe/Gen SCF(maxcycles=100) Int(Grid=ultrafine
 )\\xGDB7_00001_tier4.com\\0,1\C,0,-0.630149,-0.000001,0.000003\F,0,0.7
 48512,0.000002,-0.000001\H,0,-0.98525,0.899676,0.505416\H,0,-0.985222,
 -0.887557,0.526417\H,0,-0.985245,-0.012128,-1.03184\\Version=EM64L-G16
 RevC.01\State=1-A\HF=-139.4978226\RMSD=1.378e-09\PG=C01 [X(C1H3F1)]\\@
 The archive entry for this job was punched.


 IF I HAVE SEEN FARTHER, IT IS BY STANDING ON THE
 SHOULDERS OF GIANTS. -- SIR ISAAC NEWTON
 Job cpu time:       0 days  0 hours  2 minutes 44.9 seconds.
 Elapsed time:       0 days  0 hours  0 minutes 20.9 seconds.
 File lengths (MBytes):  RWF=    214 Int=      0 D2E=      0 Chk=     46 Scr=      1
 Normal termination of Gaussian 16 at Mon Mar 21 20:21:12 2022.
