 Entering Gaussian System, Link 0=g16
 Input=000002.com
 Output=000002.log
 Initial command:
 /home/sabyasachi/g16/l1.exe "/scratch/sabyasachi/PBS_7976466.helios/Gau-112566.inp" -scrdir="/scratch/sabyasachi/PBS_7976466.helios/"
 Entering Link 1 = /home/sabyasachi/g16/l1.exe PID=    112567.
  
 Copyright (c) 1988-2019, Gaussian, Inc.  All Rights Reserved.
  
 This is part of the Gaussian(R) 16 program.  It is based on
 the Gaussian(R) 09 system (copyright 2009, Gaussian, Inc.),
 the Gaussian(R) 03 system (copyright 2003, Gaussian, Inc.),
 the Gaussian(R) 98 system (copyright 1998, Gaussian, Inc.),
 the Gaussian(R) 94 system (copyright 1995, Gaussian, Inc.),
 the Gaussian 92(TM) system (copyright 1992, Gaussian, Inc.),
 the Gaussian 90(TM) system (copyright 1990, Gaussian, Inc.),
 the Gaussian 88(TM) system (copyright 1988, Gaussian, Inc.),
 the Gaussian 86(TM) system (copyright 1986, Carnegie Mellon
 University), and the Gaussian 82(TM) system (copyright 1983,
 Carnegie Mellon University). Gaussian is a federally registered
 trademark of Gaussian, Inc.
  
 This software contains proprietary and confidential information,
 including trade secrets, belonging to Gaussian, Inc.
  
 This software is provided under written license and may be
 used, copied, transmitted, or stored only in accord with that
 written license.
  
 The following legend is applicable only to US Government
 contracts under FAR:
  
                    RESTRICTED RIGHTS LEGEND
  
 Use, reproduction and disclosure by the US Government is
 subject to restrictions as set forth in subparagraphs (a)
 and (c) of the Commercial Computer Software - Restricted
 Rights clause in FAR 52.227-19.
  
 Gaussian, Inc.
 340 Quinnipiac St., Bldg. 40, Wallingford CT 06492
  
  
 ---------------------------------------------------------------
 Warning -- This program may not be used in any manner that
 competes with the business of Gaussian, Inc. or will provide
 assistance to any competitor of Gaussian, Inc.  The licensee
 of this program is prohibited from giving any competitor of
 Gaussian, Inc. access to this program.  By using this program,
 the user acknowledges that Gaussian, Inc. is engaged in the
 business of creating and licensing software in the field of
 computational chemistry and represents and warrants to the
 licensee that it is not a competitor of Gaussian, Inc. and that
 it will not use this program in any manner prohibited above.
 ---------------------------------------------------------------
  

 Cite this work as:
 Gaussian 16, Revision C.01,
 M. J. Frisch, G. W. Trucks, H. B. Schlegel, G. E. Scuseria, 
 M. A. Robb, J. R. Cheeseman, G. Scalmani, V. Barone, 
 G. A. Petersson, H. Nakatsuji, X. Li, M. Caricato, A. V. Marenich, 
 J. Bloino, B. G. Janesko, R. Gomperts, B. Mennucci, H. P. Hratchian, 
 J. V. Ortiz, A. F. Izmaylov, J. L. Sonnenberg, D. Williams-Young, 
 F. Ding, F. Lipparini, F. Egidi, J. Goings, B. Peng, A. Petrone, 
 T. Henderson, D. Ranasinghe, V. G. Zakrzewski, J. Gao, N. Rega, 
 G. Zheng, W. Liang, M. Hada, M. Ehara, K. Toyota, R. Fukuda, 
 J. Hasegawa, M. Ishida, T. Nakajima, Y. Honda, O. Kitao, H. Nakai, 
 T. Vreven, K. Throssell, J. A. Montgomery, Jr., J. E. Peralta, 
 F. Ogliaro, M. J. Bearpark, J. J. Heyd, E. N. Brothers, K. N. Kudin, 
 V. N. Staroverov, T. A. Keith, R. Kobayashi, J. Normand, 
 K. Raghavachari, A. P. Rendell, J. C. Burant, S. S. Iyengar, 
 J. Tomasi, M. Cossi, J. M. Millam, M. Klene, C. Adamo, R. Cammi, 
 J. W. Ochterski, R. L. Martin, K. Morokuma, O. Farkas, 
 J. B. Foresman, and D. J. Fox, Gaussian, Inc., Wallingford CT, 2019.
 
 ******************************************
 Gaussian 16:  EM64L-G16RevC.01  3-Jul-2019
                21-Mar-2022 
 ******************************************
 %mem=64gb
 %nproc=8
 Will use up to    8 processors via shared memory.
 ----------------------------------------------------------------------
 #P TD(Nstates=10000) pbe1pbe/Gen SCF(maxcycles=100) Int(Grid=ultrafine
 )
 ----------------------------------------------------------------------
 1/38=1,172=1/1;
 2/12=2,17=6,18=5,40=1/2;
 3/5=7,11=9,25=1,30=1,74=-13,75=-5/1,2,3,8;
 4//1;
 5/5=2,7=100,38=5/2;
 8/6=1,10=1,108=10000/1;
 9/41=10000,42=1,70=2/14;
 6/7=2,8=2,9=2,10=2/1;
 99/5=1,9=1/99;
 Leave Link    1 at Mon Mar 21 20:12:35 2022, MaxMem=  8589934592 cpu:               0.4 elap:               0.1
 (Enter /home/sabyasachi/g16/l101.exe)
 ---------------------
 xGDB7_00001_tier4.com
 ---------------------
 Symbolic Z-matrix:
 Charge =  0 Multiplicity = 1
 7                     0.        0.        0.11046 
 1                     0.15411   0.92909  -0.25776 
 1                     0.72756  -0.59801  -0.25776 
 1                    -0.88169  -0.33108  -0.25773 
 
 ITRead=  0  0  0  0
 MicOpt= -1 -1 -1 -1
 NAtoms=      4 NQM=        4 NQMF=       0 NMMI=      0 NMMIF=      0
                NMic=       0 NMicF=      0.
                    Isotopes and Nuclear Properties:
 (Nuclear quadrupole moments (NQMom) in fm**2, nuclear magnetic moments (NMagM)
  in nuclear magnetons)

  Atom         1           2           3           4
 IAtWgt=          14           1           1           1
 AtmWgt=  14.0030740   1.0078250   1.0078250   1.0078250
 NucSpn=           2           1           1           1
 AtZEff=  -0.0000000  -0.0000000  -0.0000000  -0.0000000
 NQMom=    2.0440000   0.0000000   0.0000000   0.0000000
 NMagM=    0.4037610   2.7928460   2.7928460   2.7928460
 AtZNuc=   7.0000000   1.0000000   1.0000000   1.0000000
 Leave Link  101 at Mon Mar 21 20:12:36 2022, MaxMem=  8589934592 cpu:               0.6 elap:               0.1
 (Enter /home/sabyasachi/g16/l202.exe)
                          Input orientation:                          
 ---------------------------------------------------------------------
 Center     Atomic      Atomic             Coordinates (Angstroms)
 Number     Number       Type             X           Y           Z
 ---------------------------------------------------------------------
      1          7           0        0.000002    0.000000    0.110463
      2          1           0        0.154111    0.929092   -0.257758
      3          1           0        0.727563   -0.598011   -0.257757
      4          1           0       -0.881687   -0.331078   -0.257728
 ---------------------------------------------------------------------
                    Distance matrix (angstroms):
                    1          2          3          4
     1  N    0.000000
     2  H    1.011211   0.000000
     3  H    1.011211   1.631224   0.000000
     4  H    1.011214   1.631228   1.631238   0.000000
 Stoichiometry    H3N
 Framework group  C1[X(H3N)]
 Deg. of freedom     6
 Full point group                 C1      NOp   1
 Largest Abelian subgroup         C1      NOp   1
 Largest concise Abelian subgroup C1      NOp   1
                         Standard orientation:                         
 ---------------------------------------------------------------------
 Center     Atomic      Atomic             Coordinates (Angstroms)
 Number     Number       Type             X           Y           Z
 ---------------------------------------------------------------------
      1          7           0       -0.000002   -0.000000   -0.110463
      2          1           0       -0.147185    0.930214    0.257758
      3          1           0       -0.731998   -0.592574    0.257757
      4          1           0        0.879196   -0.337638    0.257728
 ---------------------------------------------------------------------
 Rotational constants (GHZ):         301.1827395         301.1776119         188.4523565
 Leave Link  202 at Mon Mar 21 20:12:36 2022, MaxMem=  8589934592 cpu:               0.1 elap:               0.0
 (Enter /home/sabyasachi/g16/l301.exe)
 General basis read from cards:  (5D, 7F)
 Centers:       2      3      4
 S 3 1.00
     Exponent=  1.3010701000D+01 Coefficients=  1.9682158000D-02
     Exponent=  1.9622572000D+00 Coefficients=  1.3796524000D-01
     Exponent=  4.4453796000D-01 Coefficients=  4.7831935000D-01
 S 1 1.00
     Exponent=  1.2194962000D-01 Coefficients=  1.0000000000D+00
 P 1 1.00
     Exponent=  8.0000000000D-01 Coefficients=  1.0000000000D+00
 P 1 1.00
     Exponent=  1.1704099050D-01 Coefficients=  1.0000000000D+00
 ****
 Centers:       1
 S 5 1.00
     Exponent=  1.7128415853D+03 Coefficients= -5.3934125305D-03
     Exponent=  2.5764812677D+02 Coefficients= -4.0221581118D-02
     Exponent=  5.8458245853D+01 Coefficients= -1.7931144990D-01
     Exponent=  1.6198367905D+01 Coefficients= -4.6376317823D-01
     Exponent=  5.0052600809D+00 Coefficients= -4.4171422662D-01
 S 1 1.00
     Exponent=  5.8731856571D-01 Coefficients=  1.0000000000D+00
 S 1 1.00
     Exponent=  1.8764592253D-01 Coefficients=  1.0000000000D+00
 S 1 1.00
     Exponent=  9.6171241529D-02 Coefficients=  1.0000000000D+00
 P 3 1.00
     Exponent=  1.3571470233D+01 Coefficients= -4.0072398852D-02
     Exponent=  2.9257372874D+00 Coefficients= -2.1807045028D-01
     Exponent=  7.9927750754D-01 Coefficients= -5.1294466049D-01
 P 1 1.00
     Exponent=  2.1954348034D-01 Coefficients=  1.0000000000D+00
 D 1 1.00
     Exponent=  1.0000000000D+00 Coefficients=  1.0000000000D+00
 D 1 1.00
     Exponent=  1.6697708112D-01 Coefficients=  1.0000000000D+00
 ****
 Ernie: Thresh=  0.10000D-02 Tol=  0.10000D-05 Strict=F.
 There are    46 symmetry adapted cartesian basis functions of A   symmetry.
 There are    44 symmetry adapted basis functions of A   symmetry.
    44 basis functions,    62 primitive gaussians,    46 cartesian basis functions
     5 alpha electrons        5 beta electrons
       nuclear repulsion energy        11.9627184057 Hartrees.
 IExCor= 1009 DFT=T Ex+Corr=PBE1PBE ExCW=0 ScaHFX=  0.250000
 ScaDFX=  0.750000  0.750000  1.000000  1.000000 ScalE2=  1.000000  1.000000
 IRadAn=      5 IRanWt=     -1 IRanGd=            0 ICorTp=0 IEmpDi=  4
 NAtoms=    4 NActive=    4 NUniq=    4 SFac= 1.00D+00 NAtFMM=   60 NAOKFM=F Big=F
 Integral buffers will be    131072 words long.
 Regular integral format.
 Two-electron integral symmetry is turned on.
 Leave Link  301 at Mon Mar 21 20:12:36 2022, MaxMem=  8589934592 cpu:               0.5 elap:               0.1
 (Enter /home/sabyasachi/g16/l302.exe)
 NPDir=0 NMtPBC=     1 NCelOv=     1 NCel=       1 NClECP=     1 NCelD=      1
         NCelK=      1 NCelE2=     1 NClLst=     1 CellRange=     0.0.
 One-electron integrals computed using PRISM.
 One-electron integral symmetry used in STVInt
 NBasis=    44 RedAO= T EigKep=  1.30D-03  NBF=    44
 NBsUse=    44 1.00D-06 EigRej= -1.00D+00 NBFU=    44
 Precomputing XC quadrature grid using
 IXCGrd= 4 IRadAn=           5 IRanWt=          -1 IRanGd=           0 AccXCQ= 0.00D+00.
 Generated NRdTot=       0 NPtTot=           0 NUsed=           0 NTot=          32
 NSgBfM=    46    46    46    46    46 MxSgAt=     4 MxSgA2=     4.
 Leave Link  302 at Mon Mar 21 20:12:36 2022, MaxMem=  8589934592 cpu:               0.9 elap:               0.1
 (Enter /home/sabyasachi/g16/l303.exe)
 DipDrv:  MaxL=1.
 Leave Link  303 at Mon Mar 21 20:12:36 2022, MaxMem=  8589934592 cpu:               0.2 elap:               0.0
 (Enter /home/sabyasachi/g16/l308.exe)
 Leave Link  308 at Mon Mar 21 20:12:36 2022, MaxMem=  8589934592 cpu:               0.2 elap:               0.0
 (Enter /home/sabyasachi/g16/l401.exe)
 ExpMin= 9.62D-02 ExpMax= 1.71D+03 ExpMxC= 2.58D+02 IAcc=3 IRadAn=         5 AccDes= 0.00D+00
 Harris functional with IExCor= 1009 and IRadAn=       5 diagonalized for initial guess.
 HarFok:  IExCor= 1009 AccDes= 0.00D+00 IRadAn=         5 IDoV= 1 UseB2=F ITyADJ=14
 ICtDFT=  3500011 ScaDFX=  1.000000  1.000000  1.000000  1.000000
 FoFCou: FMM=F IPFlag=           0 FMFlag=      100000 FMFlg1=           0
         NFxFlg=           0 DoJE=T BraDBF=F KetDBF=T FulRan=T
         wScrn=  0.000000 ICntrl=       500 IOpCl=  0 I1Cent=   200000004 NGrid=           0
         NMat0=    1 NMatS0=      1 NMatT0=    0 NMatD0=    1 NMtDS0=    0 NMtDT0=    0
 Petite list used in FoFCou.
 Harris En= -56.4872510750786    
 JPrj=0 DoOrth=F DoCkMO=F.
 Leave Link  401 at Mon Mar 21 20:12:36 2022, MaxMem=  8589934592 cpu:               1.4 elap:               0.2
 (Enter /home/sabyasachi/g16/l502.exe)
 Keep R1 ints in memory in canonical form, NReq=7439601.
 FoFCou: FMM=F IPFlag=           0 FMFlag=           0 FMFlg1=           0
         NFxFlg=           0 DoJE=F BraDBF=F KetDBF=F FulRan=T
         wScrn=  0.000000 ICntrl=       600 IOpCl=  0 I1Cent=           0 NGrid=           0
         NMat0=    1 NMatS0=    990 NMatT0=    0 NMatD0=    1 NMtDS0=    0 NMtDT0=    0
 Symmetry not used in FoFCou.
 Two-electron integral symmetry not used.
 Closed shell SCF:
 Using DIIS extrapolation, IDIIS=  1040.
 NGot=  8589934592 LenX=  8589438733 LenY=  8589436176
 Requested convergence on RMS density matrix=1.00D-08 within 100 cycles.
 Requested convergence on MAX density matrix=1.00D-06.
 Requested convergence on             energy=1.00D-06.
 No special actions if energy rises.
 Integral accuracy reduced to 1.0D-05 until final iterations.

 Cycle   1  Pass 0  IDiag  1:
 E= -56.3828381267293    
 DIIS: error= 3.64D-02 at cycle   1 NSaved=   1.
 NSaved= 1 IEnMin= 1 EnMin= -56.3828381267293     IErMin= 1 ErrMin= 3.64D-02
 ErrMax= 3.64D-02  0.00D+00 EMaxC= 1.00D-01 BMatC= 8.03D-02 BMatP= 8.03D-02
 IDIUse=3 WtCom= 6.36D-01 WtEn= 3.64D-01
 Coeff-Com:  0.100D+01
 Coeff-En:   0.100D+01
 Coeff:      0.100D+01
 Gap=     0.196 Goal=   None    Shift=    0.000
 GapD=    0.196 DampG=1.000 DampE=0.500 DampFc=0.5000 IDamp=-1.
 Damping current iteration by 5.00D-01
 RMSDP=1.67D-02 MaxDP=3.05D-01              OVMax= 2.22D-01

 Cycle   2  Pass 0  IDiag  1:
 E= -56.4079187671046     Delta-E=       -0.025080640375 Rises=F Damp=T
 DIIS: error= 7.57D-03 at cycle   2 NSaved=   2.
 NSaved= 2 IEnMin= 2 EnMin= -56.4079187671046     IErMin= 2 ErrMin= 7.57D-03
 ErrMax= 7.57D-03  0.00D+00 EMaxC= 1.00D-01 BMatC= 3.72D-03 BMatP= 8.03D-02
 IDIUse=3 WtCom= 9.24D-01 WtEn= 7.57D-02
 Coeff-Com:  0.157D+00 0.843D+00
 Coeff-En:   0.282D+00 0.718D+00
 Coeff:      0.167D+00 0.833D+00
 Gap=     0.310 Goal=   None    Shift=    0.000
 RMSDP=2.24D-03 MaxDP=5.05D-02 DE=-2.51D-02 OVMax= 1.34D-01

 Cycle   3  Pass 0  IDiag  1:
 E= -56.4533925968497     Delta-E=       -0.045473829745 Rises=F Damp=F
 DIIS: error= 3.15D-04 at cycle   3 NSaved=   3.
 NSaved= 3 IEnMin= 3 EnMin= -56.4533925968497     IErMin= 3 ErrMin= 3.15D-04
 ErrMax= 3.15D-04  0.00D+00 EMaxC= 1.00D-01 BMatC= 4.60D-06 BMatP= 3.72D-03
 IDIUse=3 WtCom= 9.97D-01 WtEn= 3.15D-03
 Coeff-Com: -0.658D-02-0.148D-01 0.102D+01
 Coeff-En:   0.000D+00 0.000D+00 0.100D+01
 Coeff:     -0.656D-02-0.148D-01 0.102D+01
 Gap=     0.318 Goal=   None    Shift=    0.000
 RMSDP=1.76D-04 MaxDP=2.55D-03 DE=-4.55D-02 OVMax= 1.22D-03

 Cycle   4  Pass 0  IDiag  1:
 E= -56.4533985807617     Delta-E=       -0.000005983912 Rises=F Damp=F
 DIIS: error= 1.22D-04 at cycle   4 NSaved=   4.
 NSaved= 4 IEnMin= 4 EnMin= -56.4533985807617     IErMin= 4 ErrMin= 1.22D-04
 ErrMax= 1.22D-04  0.00D+00 EMaxC= 1.00D-01 BMatC= 6.08D-07 BMatP= 4.60D-06
 IDIUse=3 WtCom= 9.99D-01 WtEn= 1.22D-03
 Coeff-Com:  0.203D-02-0.335D-02 0.106D-01 0.991D+00
 Coeff-En:   0.000D+00 0.000D+00 0.000D+00 0.100D+01
 Coeff:      0.203D-02-0.334D-02 0.106D-01 0.991D+00
 Gap=     0.318 Goal=   None    Shift=    0.000
 RMSDP=2.54D-05 MaxDP=5.08D-04 DE=-5.98D-06 OVMax= 3.41D-04

 Cycle   5  Pass 0  IDiag  1:
 E= -56.4533991566642     Delta-E=       -0.000000575902 Rises=F Damp=F
 DIIS: error= 3.51D-06 at cycle   5 NSaved=   5.
 NSaved= 5 IEnMin= 5 EnMin= -56.4533991566642     IErMin= 5 ErrMin= 3.51D-06
 ErrMax= 3.51D-06  0.00D+00 EMaxC= 1.00D-01 BMatC= 4.60D-10 BMatP= 6.08D-07
 IDIUse=1 WtCom= 1.00D+00 WtEn= 0.00D+00
 Coeff-Com: -0.165D-03 0.255D-03-0.480D-02-0.871D-01 0.109D+01
 Coeff:     -0.165D-03 0.255D-03-0.480D-02-0.871D-01 0.109D+01
 Gap=     0.318 Goal=   None    Shift=    0.000
 RMSDP=2.18D-06 MaxDP=5.13D-05 DE=-5.76D-07 OVMax= 2.61D-05

 Initial convergence to 1.0D-05 achieved.  Increase integral accuracy.
 Cycle   6  Pass 1  IDiag  1:
 E= -56.4533996987729     Delta-E=       -0.000000542109 Rises=F Damp=F
 DIIS: error= 1.04D-06 at cycle   1 NSaved=   1.
 NSaved= 1 IEnMin= 1 EnMin= -56.4533996987729     IErMin= 1 ErrMin= 1.04D-06
 ErrMax= 1.04D-06  0.00D+00 EMaxC= 1.00D-01 BMatC= 4.04D-11 BMatP= 4.04D-11
 IDIUse=1 WtCom= 1.00D+00 WtEn= 0.00D+00
 Coeff-Com:  0.100D+01
 Coeff:      0.100D+01
 Gap=     0.318 Goal=   None    Shift=    0.000
 RMSDP=2.18D-06 MaxDP=5.13D-05 DE=-5.42D-07 OVMax= 5.15D-06

 Cycle   7  Pass 1  IDiag  1:
 E= -56.4533996988034     Delta-E=       -0.000000000031 Rises=F Damp=F
 DIIS: error= 7.90D-07 at cycle   2 NSaved=   2.
 NSaved= 2 IEnMin= 2 EnMin= -56.4533996988034     IErMin= 2 ErrMin= 7.90D-07
 ErrMax= 7.90D-07  0.00D+00 EMaxC= 1.00D-01 BMatC= 2.04D-11 BMatP= 4.04D-11
 IDIUse=1 WtCom= 1.00D+00 WtEn= 0.00D+00
 Coeff-Com:  0.404D+00 0.596D+00
 Coeff:      0.404D+00 0.596D+00
 Gap=     0.318 Goal=   None    Shift=    0.000
 RMSDP=1.43D-07 MaxDP=2.62D-06 DE=-3.05D-11 OVMax= 1.62D-06

 Cycle   8  Pass 1  IDiag  1:
 E= -56.4533996988183     Delta-E=       -0.000000000015 Rises=F Damp=F
 DIIS: error= 2.18D-07 at cycle   3 NSaved=   3.
 NSaved= 3 IEnMin= 3 EnMin= -56.4533996988183     IErMin= 3 ErrMin= 2.18D-07
 ErrMax= 2.18D-07  0.00D+00 EMaxC= 1.00D-01 BMatC= 2.51D-12 BMatP= 2.04D-11
 IDIUse=1 WtCom= 1.00D+00 WtEn= 0.00D+00
 Coeff-Com:  0.128D+00 0.292D+00 0.580D+00
 Coeff:      0.128D+00 0.292D+00 0.580D+00
 Gap=     0.318 Goal=   None    Shift=    0.000
 RMSDP=3.25D-08 MaxDP=4.48D-07 DE=-1.50D-11 OVMax= 6.33D-07

 Cycle   9  Pass 1  IDiag  1:
 E= -56.4533996988207     Delta-E=       -0.000000000002 Rises=F Damp=F
 DIIS: error= 2.92D-08 at cycle   4 NSaved=   4.
 NSaved= 4 IEnMin= 4 EnMin= -56.4533996988207     IErMin= 4 ErrMin= 2.92D-08
 ErrMax= 2.92D-08  0.00D+00 EMaxC= 1.00D-01 BMatC= 4.31D-14 BMatP= 2.51D-12
 IDIUse=1 WtCom= 1.00D+00 WtEn= 0.00D+00
 Coeff-Com: -0.187D-01-0.300D-01 0.756D-01 0.973D+00
 Coeff:     -0.187D-01-0.300D-01 0.756D-01 0.973D+00
 Gap=     0.318 Goal=   None    Shift=    0.000
 RMSDP=2.59D-08 MaxDP=5.68D-07 DE=-2.30D-12 OVMax= 1.44D-07

 Cycle  10  Pass 1  IDiag  1:
 E= -56.4533996988207     Delta-E=       -0.000000000000 Rises=F Damp=F
 DIIS: error= 2.47D-09 at cycle   5 NSaved=   5.
 NSaved= 5 IEnMin= 5 EnMin= -56.4533996988207     IErMin= 5 ErrMin= 2.47D-09
 ErrMax= 2.47D-09  0.00D+00 EMaxC= 1.00D-01 BMatC= 1.17D-16 BMatP= 4.31D-14
 IDIUse=1 WtCom= 1.00D+00 WtEn= 0.00D+00
 Coeff-Com:  0.822D-03-0.104D-02-0.140D-01-0.598D-01 0.107D+01
 Coeff:      0.822D-03-0.104D-02-0.140D-01-0.598D-01 0.107D+01
 Gap=     0.318 Goal=   None    Shift=    0.000
 RMSDP=1.84D-09 MaxDP=4.04D-08 DE=-5.68D-14 OVMax= 1.65D-08

 SCF Done:  E(RPBE1PBE) =  -56.4533996988     A.U. after   10 cycles
            NFock= 10  Conv=0.18D-08     -V/T= 2.0100
 KE= 5.589427817393D+01 PE=-1.554711933160D+02 EE= 3.116079703758D+01
 Leave Link  502 at Mon Mar 21 20:12:37 2022, MaxMem=  8589934592 cpu:               3.9 elap:               0.5
 (Enter /home/sabyasachi/g16/l801.exe)
 DoSCS=F DFT=T ScalE2(SS,OS)=  1.000000  1.000000
 ExpMin= 9.62D-02 ExpMax= 1.71D+03 ExpMxC= 2.58D+02 IAcc=3 IRadAn=         5 AccDes= 0.00D+00
 HarFok:  IExCor=  205 AccDes= 0.00D+00 IRadAn=         5 IDoV=-2 UseB2=F ITyADJ=14
 ICtDFT= 12500011 ScaDFX=  1.000000  1.000000  1.000000  1.000000
 Largest valence mixing into a core orbital is  6.38D-05
 Largest core mixing into a valence orbital is  1.49D-05
 Range of M.O.s used for correlation:     2    44
 NBasis=    44 NAE=     5 NBE=     5 NFC=     1 NFV=     0
 NROrb=     43 NOA=     4 NOB=     4 NVA=    39 NVB=    39

 **** Warning!!: The largest alpha MO coefficient is  0.11039278D+02

 Leave Link  801 at Mon Mar 21 20:12:37 2022, MaxMem=  8589934592 cpu:               0.4 elap:               0.1
 (Enter /home/sabyasachi/g16/l914.exe)
 RHF ground state
 Keep R1, R2, and R3 ints in memory in canonical form, NReq=45804863.
 FoFCou: FMM=F IPFlag=           0 FMFlag=           0 FMFlg1=           0
         NFxFlg=           0 DoJE=F BraDBF=F KetDBF=F FulRan=T
         wScrn=  0.000000 ICntrl=       600 IOpCl=  0 I1Cent=           0 NGrid=           0
         NMat0=    1 NMatS0=    990 NMatT0=    0 NMatD0=    1 NMtDS0=    0 NMtDT0=    0
 Symmetry not used in FoFCou.
 Two-electron integral symmetry not used.
 MDV=  8589934592 DFT=T DoStab=F Mixed=T DoRPA=T DoScal=F NonHer=T
 Making orbital integer symmetry assigments:
 Orbital symmetries:
       Occupied  (A) (A) (A) (A) (A)
       Virtual   (A) (A) (A) (A) (A) (A) (A) (A) (A) (A) (A) (A)
                 (A) (A) (A) (A) (A) (A) (A) (A) (A) (A) (A) (A)
                 (A) (A) (A) (A) (A) (A) (A) (A) (A) (A) (A) (A)
                 (A) (A) (A)
   156 initial guesses have been made.
 Convergence on wavefunction:    0.001000000000000
 Davidson Disk Diagonalization:  ConvIn= 1.00D-03 SkipCon=T Conv= 1.00D-03.
 Max sub-space:   936 roots to seek:   312 dimension of matrix:          312
 *** WARNING: Number of orthogonal guesses is          156
 Iteration     1 Dimension   156 NMult     0 NNew    156
 CISAX will form   156 AO SS matrices at one time.
 NMat=   156 NSing=   156 JSym2X= 0.
 New state     13 was old state     15
 New state     14 was old state     13
 New state     15 was old state     16
 New state     16 was old state     19
 New state     17 was old state     18
 New state     18 was old state     17
 New state     19 was old state     22
 New state     20 was old state     23
 New state     22 was old state     24
 New state     23 was old state     25
 New state     24 was old state     30
 New state     25 was old state     20
 New state     26 was old state     27
 New state     27 was old state     26
 New state     28 was old state     29
 New state     29 was old state     28
 New state     30 was old state     31
 New state     31 was old state     34
 New state     32 was old state     33
 New state     33 was old state     32
 New state     34 was old state     35
 New state     35 was old state     36
 New state     36 was old state     39
 New state     37 was old state     40
 New state     38 was old state     44
 New state     39 was old state     37
 New state     40 was old state     38
 New state     41 was old state     42
 New state     42 was old state     43
 New state     43 was old state     41
 New state     44 was old state     45
 New state     45 was old state     59
 New state     47 was old state     49
 New state     48 was old state     47
 New state     49 was old state     48
 New state     54 was old state     57
 New state     55 was old state     54
 New state     56 was old state     55
 New state     57 was old state     56
 New state     58 was old state     61
 New state     59 was old state     58
 New state     60 was old state     63
 New state     61 was old state     60
 No map to state     63
 New state     65 was old state     67
 New state     66 was old state     68
 New state     67 was old state     66
 New state     68 was old state     65
 New state     73 was old state     74
 New state     74 was old state     75
 New state     75 was old state     73
 New state     76 was old state     80
 New state     77 was old state     76
 New state     78 was old state     77
 New state     79 was old state     78
 New state     80 was old state     81
 New state     81 was old state     79
 New state     82 was old state     85
 New state     83 was old state     86
 New state     84 was old state     83
 New state     85 was old state     84
 New state     86 was old state     82
 New state     87 was old state     88
 New state     88 was old state     87
 New state     89 was old state     90
 New state     90 was old state     91
 New state     91 was old state     92
 New state     92 was old state     93
 New state     93 was old state     94
 New state     94 was old state     89
 New state    104 was old state    106
 New state    105 was old state    104
 New state    106 was old state    105
 New state    107 was old state    109
 New state    109 was old state    107
 New state    110 was old state    111
 New state    111 was old state    112
 New state    112 was old state    110
 New state    119 was old state    120
 New state    120 was old state    119
 New state    124 was old state    125
 New state    125 was old state    126
 New state    126 was old state    124
 New state    139 was old state    140
 New state    140 was old state    141
 New state    141 was old state    139
 New state    152 was old state    154
 New state    153 was old state    152
 New state    154 was old state    153
 Excitation Energies [eV] at current iteration:
 Root      1 :     7.003046840572601
 Root      2 :     9.151215961594785
 Root      3 :     9.151227006674388
 Root      4 :    10.784991990345000
 Root      5 :    10.785011009204310
 Root      6 :    11.624837639787710
 Root      7 :    12.363037380536700
 Root      8 :    12.363092242423090
 Root      9 :    12.564774345096990
 Root     10 :    12.564780044982090
 Root     11 :    12.604016313755850
 Root     12 :    14.429449998829140
 Root     13 :    14.522843806032460
 Root     14 :    14.522845129342110
 Root     15 :    15.815043110407780
 Root     16 :    15.953570252172250
 Root     17 :    16.185372661066290
 Root     18 :    16.220208400138590
 Root     19 :    16.329447663705070
 Root     20 :    16.329517751579680
 Root     21 :    16.335041822702760
 Root     22 :    16.534638208413960
 Root     23 :    16.534651624844250
 Root     24 :    16.959857118822140
 Root     25 :    16.959881719485330
 Root     26 :    17.754210668186340
 Root     27 :    17.754219733836070
 Root     28 :    17.887761732942830
 Root     29 :    17.981751527516100
 Root     30 :    17.981800463872550
 Root     31 :    18.055353210198090
 Root     32 :    19.229197256553550
 Root     33 :    19.229197490720760
 Root     34 :    21.362682462041690
 Root     35 :    21.362735435173440
 Root     36 :    21.459220674128240
 Root     37 :    21.459228834787270
 Root     38 :    21.485994230862970
 Root     39 :    21.507984607767700
 Root     40 :    21.508043604769760
 Root     41 :    22.053136607840690
 Root     42 :    22.523211145478810
 Root     43 :    22.523215721820820
 Root     44 :    22.830311299222200
 Root     45 :    24.409020085305890
 Root     46 :    24.548221457030760
 Root     47 :    24.726762786433200
 Root     48 :    24.726764568962520
 Root     49 :    25.106046452115590
 Root     50 :    25.305067802618770
 Root     51 :    25.305077016737840
 Root     52 :    26.370770931085970
 Root     53 :    26.370826910759970
 Root     54 :    26.671420706059570
 Root     55 :    26.879693482091960
 Root     56 :    26.879708639379050
 Root     57 :    26.992395669545560
 Root     58 :    27.372252082952500
 Root     59 :    27.704816160443750
 Root     60 :    27.711377327583350
 Root     61 :    27.711414985814770
 Root     62 :    28.506865249213270
 Root     63 :    28.506884606272140
 Root     64 :    28.815572549906280
 Root     65 :    31.695633203519240
 Root     66 :    31.695664056591650
 Root     67 :    32.156913480851170
 Root     68 :    32.325215135504150
 Root     69 :    32.910218466716660
 Root     70 :    32.910242241363800
 Root     71 :    33.669644601970460
 Root     72 :    33.669702338573040
 Root     73 :    35.335541196749130
 Root     74 :    35.335546597211470
 Root     75 :    35.480755824116170
 Root     76 :    37.096391038824630
 Root     77 :    37.145026038387980
 Root     78 :    37.484447976369150
 Root     79 :    37.484468629338510
 Root     80 :    37.710407624853440
 Root     81 :    37.710412106050570
 Root     82 :    39.407305378875510
 Root     83 :    39.407372678631070
 Root     84 :    39.692990940720100
 Root     85 :    39.693053023789550
 Root     86 :    40.071700236203450
 Root     87 :    43.494060882785390
 Root     88 :    44.124043688379610
 Root     89 :    44.917031184989500
 Root     90 :    45.283400871102260
 Root     91 :    45.283407557818950
 Root     92 :    48.005580841757260
 Root     93 :    48.005615424019610
 Root     94 :    48.360338503549880
 Root     95 :    48.901457365696650
 Root     96 :    48.901526512041420
 Root     97 :    50.208963014326320
 Root     98 :    52.006227551838560
 Root     99 :    52.460010369225830
 Root    100 :    52.460085671760870
 Root    101 :    55.750800379497090
 Root    102 :    55.750852268249350
 Root    103 :    57.507628765230650
 Root    104 :    57.600245960851790
 Root    105 :    57.629994475140930
 Root    106 :    57.630057562874820
 Root    107 :    57.898786603683170
 Root    108 :    57.898793437642350
 Root    109 :    58.476876298271750
 Root    110 :    59.945953219895000
 Root    111 :    59.946082916759860
 Root    112 :    60.543699970131080
 Root    113 :    62.567344672386440
 Root    114 :    62.567429169189930
 Root    115 :    63.971336196262480
 Root    116 :    63.971393248206980
 Root    117 :    65.286763314850290
 Root    118 :    65.364761520658450
 Root    119 :    65.364782026179740
 Root    120 :    65.432077310765730
 Root    121 :    67.896060377683280
 Root    122 :    68.429064518510400
 Root    123 :    68.429139276271870
 Root    124 :    69.078445131209010
 Root    125 :    69.631828882234050
 Root    126 :    69.631839238696330
 Root    127 :    70.096837375538880
 Root    128 :    73.085798056092160
 Root    129 :    74.917942499454330
 Root    130 :    75.714988521285120
 Root    131 :    75.715109090765170
 Root    132 :    79.158490545468420
 Root    133 :    79.158562625428400
 Root    134 :    79.979629871835130
 Root    135 :    79.979695649480150
 Root    136 :    83.070236038826910
 Root    137 :    83.070413753661820
 Root    138 :    86.235063461679730
 Root    139 :    87.534759672584170
 Root    140 :    88.617168924399040
 Root    141 :    88.617258679397300
 Root    142 :    89.194232948259340
 Root    143 :    90.086466612544740
 Root    144 :    91.290002322928290
 Root    145 :    91.290151740187880
 Root    146 :    98.721262839801990
 Root    147 :    98.721453507457950
 Root    148 :   100.228053169102600
 Root    149 :   100.228270089913100
 Root    150 :   102.098988500207500
 Root    151 :   105.363814119333400
 Root    152 :   105.861938452298900
 Root    153 :   105.861943602455400
 Root    154 :   106.058185612007000
 Root    155 :   115.994032015043800
 Root    156 :   115.994273211227800
 Convergence achieved for final wavefunctions.
 ***********************************************************************
 Excited states from <AA,BB:AA,BB> singles matrix:
 ***********************************************************************
 
 1PDM for each excited state written to RWF  633
 Ground to excited state transition densities written to RWF  633
 Ground to excited state transition electric dipole moments (Au):
       state          X           Y           Z        Dip. S.      Osc.
         1         0.0000     -0.0000      0.6900      0.4761      0.0817
         2         0.2769     -0.0650     -0.0000      0.0809      0.0181
         3         0.0650      0.2769     -0.0000      0.0809      0.0181
         4        -0.0030      0.0372      0.0000      0.0014      0.0004
         5         0.0372      0.0030     -0.0000      0.0014      0.0004
         6         0.0000     -0.0000      0.3054      0.0933      0.0266
         7        -0.0470      0.4017      0.0000      0.1636      0.0496
         8         0.4016      0.0470     -0.0000      0.1635      0.0495
         9         0.8546     -0.1208     -0.0000      0.7450      0.2293
        10         0.1208      0.8546      0.0000      0.7449      0.2293
        11         0.0000     -0.0000      0.8037      0.6459      0.1995
        12        -0.0002     -0.0001      0.0000      0.0000      0.0000
        13        -0.4590     -0.0523      0.0000      0.2134      0.0759
        14        -0.0523      0.4590      0.0000      0.2134      0.0759
        15        -0.0000      0.0000      0.0376      0.0014      0.0005
        16        -0.0000     -0.0000      0.0000      0.0000      0.0000
        17         0.0000     -0.0001     -0.3834      0.1470      0.0583
        18        -0.0000     -0.0000      0.0000      0.0000      0.0000
        19        -0.0100      0.1038     -0.0009      0.0109      0.0043
        20         0.1038      0.0100      0.0002      0.0109      0.0044
        21         0.0001     -0.0003     -0.2411      0.0581      0.0233
        22         0.1886     -0.6549     -0.0000      0.4644      0.1881
        23         0.6549      0.1886     -0.0000      0.4644      0.1881
        24        -0.1028      0.6422      0.0000      0.4230      0.1758
        25        -0.6422     -0.1028      0.0000      0.4230      0.1758
        26         0.0106     -0.1244      0.0001      0.0156      0.0068
        27         0.1244      0.0106      0.0000      0.0156      0.0068
        28         0.0001      0.0000     -0.0000      0.0000      0.0000
        29         0.0579     -0.4615     -0.0000      0.2164      0.0953
        30        -0.4615     -0.0579     -0.0000      0.2164      0.0953
        31         0.0000     -0.0000      0.7929      0.6287      0.2781
        32        -0.0856     -0.4507      0.0000      0.2104      0.0991
        33        -0.4507      0.0856      0.0000      0.2104      0.0991
        34         0.0208     -0.1648      0.0000      0.0276      0.0144
        35        -0.1647     -0.0208      0.0000      0.0276      0.0144
        36         0.3900      0.0468     -0.0001      0.1543      0.0811
        37        -0.0468      0.3901      0.0004      0.1543      0.0811
        38        -0.0001      0.0002     -0.7055      0.4978      0.2620
        39         0.2427      0.0284      0.0000      0.0597      0.0315
        40         0.0284     -0.2424      0.0001      0.0596      0.0314
        41         0.0000      0.0000     -0.0000      0.0000      0.0000
        42        -0.5577     -0.0069      0.0000      0.3110      0.1716
        43        -0.0069      0.5577      0.0000      0.3110      0.1716
        44         0.0000     -0.0000      0.2800      0.0784      0.0439
        45        -0.0000     -0.0000     -0.4645      0.2157      0.1290
        46         0.0001      0.0000     -0.0000      0.0000      0.0000
        47         0.2852     -0.0489     -0.0000      0.0838      0.0507
        48        -0.0489     -0.2852     -0.0000      0.0838      0.0507
        49        -0.0000      0.0000     -0.3055      0.0933      0.0574
        50        -0.1792      0.0390      0.0000      0.0336      0.0209
        51        -0.0390     -0.1792     -0.0000      0.0336      0.0209
        52        -0.0035      0.0300     -0.0000      0.0009      0.0006
        53         0.0300      0.0035      0.0000      0.0009      0.0006
        54         0.0000      0.0000      0.0000      0.0000      0.0000
        55        -0.0127      0.1278     -0.0000      0.0165      0.0109
        56         0.1278      0.0127      0.0000      0.0165      0.0109
        57        -0.0000      0.0000     -0.4291      0.1842      0.1218
        58         0.0000     -0.0000      0.4873      0.2374      0.1592
        59        -0.0007      0.0021     -0.3902      0.1522      0.1033
        60        -0.0450      0.7582      0.0011      0.5768      0.3916
        61         0.7582      0.0450     -0.0003      0.5769      0.3916
        62        -0.1643     -0.0014      0.0000      0.0270      0.0189
        63         0.0014     -0.1643     -0.0000      0.0270      0.0189
        64        -0.0000     -0.0000     -0.1922      0.0370      0.0261
        65        -0.0267      0.0658      0.0000      0.0050      0.0039
        66        -0.0658     -0.0267      0.0000      0.0050      0.0039
        67         0.0000     -0.0000      0.0000      0.0000      0.0000
        68         0.0000      0.0000      0.1750      0.0306      0.0243
        69        -0.0095      0.0363     -0.0000      0.0014      0.0011
        70        -0.0363     -0.0095     -0.0000      0.0014      0.0011
        71        -0.0352      0.3816     -0.0000      0.1468      0.1211
        72         0.3815      0.0352     -0.0000      0.1468      0.1211
        73        -0.0027      0.0001      0.0000      0.0000      0.0000
        74        -0.0001     -0.0027     -0.0000      0.0000      0.0000
        75        -0.0000     -0.0000     -0.1092      0.0119      0.0104
        76        -0.0000     -0.0000      0.0000      0.0000      0.0000
        77         0.0000     -0.0000      0.1770      0.0313      0.0285
        78         0.0233      0.0001     -0.0000      0.0005      0.0005
        79        -0.0001      0.0233      0.0000      0.0005      0.0005
        80        -0.2246      0.0129      0.0000      0.0506      0.0468
        81        -0.0129     -0.2246     -0.0000      0.0506      0.0468
        82         0.0141     -0.1673     -0.0000      0.0282      0.0272
        83        -0.1673     -0.0141      0.0000      0.0282      0.0272
        84        -0.0014      0.2183     -0.0000      0.0477      0.0464
        85         0.2183      0.0013     -0.0000      0.0477      0.0464
        86        -0.0000     -0.0000      0.1431      0.0205      0.0201
        87         0.0000      0.0000      0.1407      0.0198      0.0211
        88        -0.0000     -0.0000     -0.2644      0.0699      0.0756
        89        -0.0000      0.0000      0.0000      0.0000      0.0000
        90        -0.1660     -0.0006      0.0000      0.0275      0.0306
        91         0.0006     -0.1660      0.0000      0.0275      0.0306
        92        -0.0599      0.1609      0.0000      0.0295      0.0347
        93        -0.1609     -0.0599      0.0000      0.0295      0.0347
        94         0.0000     -0.0000      0.2068      0.0428      0.0507
        95         0.0015     -0.0131      0.0000      0.0002      0.0002
        96        -0.0131     -0.0015     -0.0000      0.0002      0.0002
        97        -0.0000      0.0000     -0.2749      0.0755      0.0929
        98         0.0000      0.0000      0.0000      0.0000      0.0000
        99        -0.1859     -0.0030      0.0000      0.0346      0.0444
       100         0.0030     -0.1859     -0.0000      0.0346      0.0444
       101         0.0054      0.1999      0.0000      0.0400      0.0546
       102         0.1999     -0.0054     -0.0000      0.0400      0.0546
       103         0.0000     -0.0000     -0.0782      0.0061      0.0086
       104        -0.0003     -0.0001      0.0000      0.0000      0.0000
       105         0.1663      0.0204      0.0000      0.0281      0.0396
       106         0.0204     -0.1662      0.0000      0.0281      0.0396
       107        -0.2309      0.0338      0.0000      0.0544      0.0772
       108         0.0338      0.2309     -0.0000      0.0545      0.0773
       109        -0.0000     -0.0000     -0.4740      0.2247      0.3219
       110         0.1556     -0.0081     -0.0000      0.0243      0.0356
       111         0.0081      0.1556     -0.0000      0.0243      0.0356
       112        -0.0000      0.0000     -0.2007      0.0403      0.0597
       113        -0.0104      0.1074      0.0000      0.0116      0.0178
       114         0.1074      0.0104     -0.0000      0.0116      0.0178
       115        -0.0293      0.0617     -0.0000      0.0047      0.0073
       116        -0.0617     -0.0293      0.0000      0.0047      0.0073
       117         0.0002      0.0001     -0.0000      0.0000      0.0000
       118        -0.0193      0.2108      0.0000      0.0448      0.0717
       119         0.2108      0.0193     -0.0000      0.0448      0.0717
       120         0.0001     -0.0000      0.0364      0.0013      0.0021
       121        -0.0000     -0.0000      0.0000      0.0000      0.0000
       122         0.0730      0.0013     -0.0000      0.0053      0.0089
       123        -0.0013      0.0730      0.0000      0.0053      0.0089
       124         0.0000      0.0000     -0.0000      0.0000      0.0000
       125        -0.0866      0.0000      0.0000      0.0075      0.0128
       126         0.0000      0.0866      0.0000      0.0075      0.0128
       127         0.0000      0.0000     -0.0951      0.0090      0.0155
       128         0.0000     -0.0000      0.0822      0.0068      0.0121
       129         0.0000     -0.0000      0.2369      0.0561      0.1030
       130        -0.0389      0.0015      0.0000      0.0015      0.0028
       131        -0.0015     -0.0389     -0.0000      0.0015      0.0028
       132         0.0038     -0.0313      0.0000      0.0010      0.0019
       133        -0.0313     -0.0038      0.0000      0.0010      0.0019
       134         0.0397     -0.0795      0.0000      0.0079      0.0155
       135         0.0795      0.0397     -0.0000      0.0079      0.0155
       136         0.0014      0.1230      0.0000      0.0151      0.0308
       137         0.1230     -0.0014     -0.0000      0.0151      0.0308
       138        -0.0000      0.0000     -0.1462      0.0214      0.0451
       139         0.0000      0.0000      0.0000      0.0000      0.0000
       140         0.1368      0.0085      0.0000      0.0188      0.0408
       141         0.0085     -0.1368      0.0000      0.0188      0.0408
       142        -0.0000      0.0000      0.2267      0.0514      0.1123
       143         0.0000     -0.0000      0.0443      0.0020      0.0043
       144        -0.0070      0.0955      0.0000      0.0092      0.0205
       145         0.0955      0.0070     -0.0000      0.0092      0.0205
       146         0.0000      0.0041     -0.0000      0.0000      0.0000
       147         0.0041     -0.0000      0.0000      0.0000      0.0000
       148        -0.1484      0.0098      0.0000      0.0221      0.0543
       149        -0.0098     -0.1484     -0.0000      0.0221      0.0543
       150         0.0000     -0.0000      0.0823      0.0068      0.0169
       151         0.0000      0.0000     -0.0000      0.0000      0.0000
       152         0.1573     -0.0232      0.0000      0.0253      0.0655
       153         0.0232      0.1573     -0.0000      0.0253      0.0655
       154         0.0000     -0.0001     -0.1463      0.0214      0.0556
       155        -0.0684      0.0040      0.0000      0.0047      0.0134
       156        -0.0040     -0.0684     -0.0000      0.0047      0.0134
 Ground to excited state transition velocity dipole moments (Au):
       state          X           Y           Z        Dip. S.      Osc.
         1        -0.0000      0.0000     -0.1971      0.0389      0.1007
         2        -0.0998      0.0234      0.0000      0.0105      0.0208
         3        -0.0234     -0.0998      0.0000      0.0105      0.0208
         4        -0.0001      0.0007     -0.0000      0.0000      0.0000
         5         0.0007      0.0001      0.0000      0.0000      0.0000
         6        -0.0000      0.0000     -0.1379      0.0190      0.0297
         7         0.0229     -0.1960     -0.0000      0.0389      0.0571
         8        -0.1959     -0.0229      0.0000      0.0389      0.0571
         9        -0.3903      0.0552      0.0000      0.1554      0.2244
        10        -0.0552     -0.3903     -0.0000      0.1554      0.2243
        11        -0.0000      0.0000     -0.3872      0.1499      0.2157
        12         0.0001      0.0000     -0.0000      0.0000      0.0000
        13         0.2443      0.0278     -0.0000      0.0605      0.0755
        14         0.0278     -0.2443     -0.0000      0.0605      0.0755
        15         0.0000     -0.0000     -0.0330      0.0011      0.0013
        16         0.0000      0.0000     -0.0000      0.0000      0.0000
        17        -0.0000      0.0000      0.2013      0.0405      0.0454
        18         0.0000      0.0000     -0.0000      0.0000      0.0000
        19         0.0061     -0.0629      0.0005      0.0040      0.0044
        20        -0.0630     -0.0061     -0.0001      0.0040      0.0044
        21        -0.0001      0.0002      0.1491      0.0222      0.0247
        22        -0.1121      0.3892      0.0000      0.1641      0.1800
        23        -0.3892     -0.1121      0.0000      0.1641      0.1800
        24         0.0637     -0.3979     -0.0000      0.1624      0.1737
        25         0.3979      0.0637     -0.0000      0.1624      0.1737
        26        -0.0084      0.0986     -0.0000      0.0098      0.0100
        27        -0.0985     -0.0084     -0.0000      0.0098      0.0100
        28        -0.0001     -0.0000      0.0000      0.0000      0.0000
        29        -0.0365      0.2910      0.0000      0.0860      0.0868
        30         0.2910      0.0365      0.0000      0.0860      0.0867
        31        -0.0000      0.0000     -0.5488      0.3012      0.3026
        32         0.0594      0.3131     -0.0000      0.1015      0.0958
        33         0.3131     -0.0594     -0.0000      0.1015      0.0958
        34        -0.0161      0.1276     -0.0000      0.0165      0.0140
        35         0.1274      0.0161     -0.0000      0.0165      0.0140
        36        -0.2987     -0.0359      0.0001      0.0905      0.0765
        37         0.0359     -0.2988     -0.0003      0.0906      0.0766
        38         0.0001     -0.0001      0.5373      0.2887      0.2438
        39        -0.2080     -0.0244     -0.0000      0.0439      0.0370
        40        -0.0243      0.2078     -0.0001      0.0438      0.0369
        41        -0.0000     -0.0000      0.0000      0.0000      0.0000
        42         0.4598      0.0057     -0.0000      0.2115      0.1703
        43         0.0057     -0.4598     -0.0000      0.2115      0.1703
        44        -0.0000      0.0000     -0.2280      0.0520      0.0413
        45         0.0000      0.0000      0.4041      0.1633      0.1213
        46        -0.0001     -0.0000      0.0000      0.0000      0.0000
        47        -0.2331      0.0399      0.0000      0.0559      0.0410
        48         0.0399      0.2331      0.0000      0.0559      0.0410
        49         0.0000     -0.0000      0.2634      0.0694      0.0501
        50         0.1773     -0.0386     -0.0000      0.0329      0.0236
        51         0.0386      0.1773      0.0000      0.0329      0.0236
        52         0.0032     -0.0275      0.0000      0.0008      0.0005
        53        -0.0275     -0.0032     -0.0000      0.0008      0.0005
        54        -0.0000     -0.0000     -0.0000      0.0000      0.0000
        55         0.0143     -0.1438      0.0000      0.0209      0.0141
        56        -0.1438     -0.0143     -0.0000      0.0209      0.0141
        57         0.0000     -0.0000      0.4117      0.1695      0.1139
        58        -0.0000      0.0000     -0.5368      0.2882      0.1910
        59         0.0007     -0.0022      0.3747      0.1404      0.0920
        60         0.0463     -0.7795     -0.0011      0.6098      0.3992
        61        -0.7795     -0.0463      0.0003      0.6098      0.3992
        62         0.1591      0.0013     -0.0000      0.0253      0.0161
        63        -0.0013      0.1590      0.0000      0.0253      0.0161
        64         0.0000      0.0000      0.2321      0.0539      0.0339
        65         0.0274     -0.0675     -0.0000      0.0053      0.0030
        66         0.0675      0.0274     -0.0000      0.0053      0.0030
        67         0.0000      0.0000     -0.0000      0.0000      0.0000
        68        -0.0000     -0.0000     -0.1981      0.0392      0.0220
        69         0.0214     -0.0817      0.0000      0.0071      0.0039
        70         0.0817      0.0214      0.0000      0.0071      0.0039
        71         0.0405     -0.4388      0.0000      0.1942      0.1046
        72        -0.4388     -0.0405      0.0000      0.1942      0.1046
        73        -0.0091      0.0002     -0.0000      0.0001      0.0000
        74        -0.0002     -0.0091      0.0000      0.0001      0.0000
        75         0.0000      0.0000      0.1582      0.0250      0.0128
        76         0.0000      0.0000     -0.0000      0.0000      0.0000
        77        -0.0000      0.0000     -0.2657      0.0706      0.0345
        78        -0.0074     -0.0000      0.0000      0.0001      0.0000
        79         0.0000     -0.0074     -0.0000      0.0001      0.0000
        80         0.2907     -0.0167     -0.0000      0.0848      0.0408
        81         0.0167      0.2907      0.0000      0.0848      0.0408
        82        -0.0230      0.2726      0.0000      0.0748      0.0345
        83         0.2726      0.0230     -0.0000      0.0748      0.0345
        84         0.0021     -0.3456      0.0000      0.1194      0.0546
        85        -0.3456     -0.0021      0.0000      0.1194      0.0546
        86         0.0000      0.0000     -0.1933      0.0373      0.0169
        87        -0.0000     -0.0000     -0.2747      0.0755      0.0315
        88         0.0000      0.0000      0.4522      0.2045      0.0841
        89         0.0000     -0.0000     -0.0000      0.0000      0.0000
        90         0.3056      0.0012     -0.0000      0.0934      0.0374
        91        -0.0012      0.3056     -0.0000      0.0934      0.0374
        92         0.1200     -0.3222     -0.0000      0.1182      0.0447
        93         0.3222      0.1200     -0.0000      0.1182      0.0447
        94        -0.0000      0.0000     -0.3593      0.1291      0.0484
        95         0.0014     -0.0124     -0.0000      0.0002      0.0001
        96        -0.0125     -0.0014      0.0000      0.0002      0.0001
        97         0.0000     -0.0000      0.5554      0.3085      0.1114
        98        -0.0000     -0.0000      0.0000      0.0000      0.0000
        99         0.3063      0.0049     -0.0000      0.0939      0.0325
       100        -0.0049      0.3063      0.0000      0.0939      0.0325
       101        -0.0113     -0.4140     -0.0000      0.1715      0.0558
       102        -0.4140      0.0113      0.0000      0.1715      0.0558
       103        -0.0000      0.0000      0.1584      0.0251      0.0079
       104         0.0005      0.0002     -0.0000      0.0000      0.0000
       105        -0.3204     -0.0392     -0.0000      0.1042      0.0328
       106        -0.0392      0.3202     -0.0000      0.1041      0.0328
       107         0.4265     -0.0624     -0.0000      0.1858      0.0582
       108        -0.0624     -0.4266      0.0000      0.1859      0.0582
       109         0.0000      0.0000      0.8509      0.7240      0.2246
       110        -0.3257      0.0169      0.0000      0.1064      0.0322
       111        -0.0169     -0.3257      0.0000      0.1064      0.0322
       112         0.0000     -0.0000      0.4227      0.1787      0.0535
       113         0.0247     -0.2547     -0.0000      0.0655      0.0190
       114        -0.2547     -0.0247      0.0000      0.0655      0.0190
       115         0.0599     -0.1262      0.0000      0.0195      0.0055
       116         0.1262      0.0599     -0.0000      0.0195      0.0055
       117        -0.0004     -0.0002      0.0000      0.0000      0.0000
       118         0.0383     -0.4191     -0.0000      0.1771      0.0491
       119        -0.4191     -0.0383      0.0000      0.1771      0.0491
       120        -0.0001      0.0001     -0.0835      0.0070      0.0019
       121         0.0000      0.0000     -0.0000      0.0000      0.0000
       122        -0.1705     -0.0030      0.0000      0.0291      0.0077
       123         0.0030     -0.1705     -0.0000      0.0291      0.0077
       124        -0.0000     -0.0000      0.0000      0.0000      0.0000
       125         0.2386     -0.0001     -0.0000      0.0569      0.0148
       126        -0.0001     -0.2386     -0.0000      0.0569      0.0148
       127        -0.0000     -0.0000      0.2316      0.0537      0.0139
       128        -0.0000      0.0000     -0.1362      0.0185      0.0046
       129        -0.0000      0.0000     -0.5429      0.2947      0.0714
       130         0.0373     -0.0014     -0.0000      0.0014      0.0003
       131         0.0014      0.0373      0.0000      0.0014      0.0003
       132        -0.0147      0.1221     -0.0000      0.0151      0.0035
       133         0.1221      0.0147     -0.0000      0.0151      0.0035
       134        -0.1257      0.2519      0.0000      0.0792      0.0180
       135        -0.2519     -0.1257      0.0000      0.0792      0.0180
       136        -0.0042     -0.3702     -0.0000      0.1370      0.0299
       137        -0.3701      0.0042      0.0000      0.1370      0.0299
       138         0.0000     -0.0000      0.4288      0.1838      0.0387
       139        -0.0000     -0.0000     -0.0000      0.0000      0.0000
       140        -0.4459     -0.0279     -0.0000      0.1996      0.0409
       141        -0.0279      0.4459     -0.0001      0.1996      0.0409
       142         0.0000     -0.0000     -0.6906      0.4770      0.0970
       143        -0.0000      0.0000     -0.1345      0.0181      0.0036
       144         0.0180     -0.2459     -0.0000      0.0608      0.0121
       145        -0.2460     -0.0180      0.0000      0.0608      0.0121
       146         0.0000      0.0021      0.0000      0.0000      0.0000
       147         0.0021     -0.0000     -0.0000      0.0000      0.0000
       148         0.4651     -0.0308     -0.0000      0.2173      0.0393
       149         0.0308      0.4651      0.0000      0.2173      0.0393
       150        -0.0000      0.0000     -0.2773      0.0769      0.0137
       151        -0.0002     -0.0001      0.0000      0.0000      0.0000
       152        -0.5471      0.0807     -0.0002      0.3058      0.0524
       153        -0.0807     -0.5471      0.0001      0.3058      0.0524
       154        -0.0002      0.0002      0.5014      0.2514      0.0430
       155         0.2346     -0.0139     -0.0000      0.0552      0.0086
       156         0.0139      0.2346      0.0000      0.0552      0.0086
 Ground to excited state transition magnetic dipole moments (Au):
       state          X           Y           Z
         1         0.0000      0.0000      0.0000
         2         0.0269      0.1147      0.0000
         3        -0.1147      0.0269      0.0000
         4        -0.2433     -0.0195      0.0000
         5        -0.0195      0.2433      0.0000
         6         0.0000      0.0000      0.0000
         7         0.1323      0.0155     -0.0000
         8         0.0155     -0.1324     -0.0000
         9         0.0307      0.2170     -0.0000
        10        -0.2170      0.0307      0.0000
        11         0.0000      0.0000      0.0000
        12         0.0000     -0.0000     -0.3255
        13         0.0098     -0.0857      0.0001
        14        -0.0857     -0.0098     -0.0000
        15        -0.0000     -0.0000     -0.0000
        16        -0.0000      0.0000     -0.8110
        17         0.0000      0.0000     -0.0000
        18         0.0000     -0.0000      0.0202
        19        -0.0731     -0.0070     -0.0000
        20        -0.0070      0.0731     -0.0000
        21         0.0003      0.0001     -0.0000
        22        -0.1996     -0.0575      0.0000
        23         0.0575     -0.1996     -0.0000
        24        -0.1283     -0.0205      0.0000
        25         0.0205     -0.1283      0.0000
        26        -0.3257     -0.0277      0.0000
        27         0.0277     -0.3257     -0.0000
        28         0.0000     -0.0001      0.0350
        29        -0.0892     -0.0112      0.0000
        30        -0.0112      0.0893      0.0000
        31         0.0000      0.0000     -0.0000
        32         0.1247     -0.0237     -0.0000
        33        -0.0237     -0.1247     -0.0000
        34        -0.0082     -0.0010      0.0000
        35        -0.0010      0.0082      0.0000
        36        -0.0063      0.0527     -0.0000
        37        -0.0526     -0.0063     -0.0000
        38        -0.0000     -0.0000     -0.0000
        39         0.0054     -0.0457     -0.0000
        40        -0.0457     -0.0054      0.0000
        41         0.0000      0.0000      0.3277
        42         0.0014     -0.1155      0.0000
        43        -0.1155     -0.0014     -0.0000
        44         0.0000      0.0000      0.0000
        45         0.0000      0.0000     -0.0000
        46        -0.0000      0.0000      0.1755
        47         0.0111      0.0649     -0.0000
        48         0.0649     -0.0111      0.0000
        49        -0.0000     -0.0000     -0.0000
        50        -0.0081     -0.0371     -0.0000
        51         0.0371     -0.0081     -0.0000
        52         0.1220      0.0141     -0.0000
        53         0.0141     -0.1220     -0.0000
        54         0.0000     -0.0000      0.5891
        55         0.0444      0.0044     -0.0000
        56         0.0044     -0.0444     -0.0000
        57         0.0000     -0.0000      0.0000
        58        -0.0000     -0.0000     -0.0000
        59         0.0007      0.0002     -0.0000
        60         0.2644      0.0157     -0.0000
        61         0.0157     -0.2644     -0.0000
        62         0.0008     -0.0982      0.0000
        63         0.0982      0.0008     -0.0000
        64        -0.0000      0.0000     -0.0000
        65         0.1273      0.0516     -0.0000
        66        -0.0516      0.1273      0.0000
        67        -0.0000      0.0000     -0.1531
        68         0.0000      0.0000      0.0000
        69         0.1384      0.0362     -0.0000
        70        -0.0362      0.1384     -0.0000
        71         0.0123      0.0011      0.0000
        72         0.0011     -0.0123      0.0000
        73        -0.0001     -0.0033      0.0000
        74         0.0033     -0.0001      0.0000
        75         0.0000      0.0000     -0.0000
        76        -0.0000      0.0000     -0.2197
        77        -0.0000     -0.0000     -0.0000
        78         0.0005     -0.0866     -0.0000
        79         0.0866      0.0005     -0.0000
        80        -0.0036     -0.0620      0.0000
        81         0.0620     -0.0036      0.0000
        82         0.0114      0.0010     -0.0000
        83         0.0010     -0.0114     -0.0000
        84        -0.2162     -0.0013      0.0000
        85        -0.0013      0.2162      0.0000
        86        -0.0000     -0.0000      0.0000
        87        -0.0000     -0.0000      0.0000
        88         0.0000      0.0000     -0.0000
        89        -0.0000      0.0000     -0.4166
        90         0.0009     -0.2276      0.0000
        91         0.2276      0.0009     -0.0000
        92        -0.0974     -0.0363      0.0000
        93         0.0363     -0.0974      0.0000
        94         0.0000      0.0000     -0.0000
        95        -0.1714     -0.0196      0.0000
        96        -0.0196      0.1714     -0.0000
        97        -0.0000     -0.0000     -0.0000
        98        -0.0000      0.0000      0.2141
        99         0.0029     -0.1769      0.0000
       100         0.1769      0.0029      0.0000
       101         0.1566     -0.0043     -0.0000
       102        -0.0043     -0.1566     -0.0000
       103        -0.0000     -0.0000     -0.0000
       104        -0.0001      0.0003     -0.3267
       105         0.0173     -0.1414     -0.0004
       106        -0.1413     -0.0173      0.0001
       107         0.0499      0.3415      0.0001
       108         0.3415     -0.0499     -0.0000
       109        -0.0000      0.0000     -0.0000
       110        -0.0024     -0.0469      0.0000
       111         0.0469     -0.0024     -0.0000
       112         0.0000      0.0000     -0.0000
       113         0.3650      0.0354     -0.0000
       114         0.0354     -0.3650     -0.0000
       115         0.0189      0.0090     -0.0000
       116        -0.0090      0.0189      0.0000
       117        -0.0000      0.0001      0.6448
       118        -0.0694     -0.0063     -0.0002
       119        -0.0063      0.0694     -0.0007
       120         0.0000      0.0000     -0.0000
       121         0.0000     -0.0000     -0.3863
       122        -0.0048      0.2687     -0.0000
       123        -0.2687     -0.0048     -0.0000
       124         0.0000     -0.0000     -0.0069
       125         0.0000      0.0321      0.0000
       126         0.0321     -0.0000     -0.0000
       127         0.0000     -0.0000      0.0000
       128         0.0000     -0.0000      0.0000
       129         0.0000     -0.0000      0.0000
       130         0.0064      0.1668     -0.0000
       131        -0.1668      0.0064     -0.0000
       132         0.1376      0.0166     -0.0000
       133         0.0166     -0.1376     -0.0000
       134         0.0225      0.0113     -0.0000
       135        -0.0113      0.0225     -0.0000
       136        -0.0236      0.0003      0.0000
       137         0.0003      0.0236      0.0000
       138         0.0000      0.0000     -0.0000
       139        -0.0000      0.0000      0.2246
       140        -0.0096      0.1533     -0.0000
       141         0.1533      0.0096      0.0000
       142        -0.0000     -0.0000     -0.0000
       143        -0.0000     -0.0000      0.0000
       144        -0.0913     -0.0067      0.0000
       145        -0.0067      0.0913      0.0000
       146         0.0076     -0.0000      0.0000
       147        -0.0000     -0.0076      0.0000
       148        -0.0032     -0.0488      0.0000
       149         0.0488     -0.0032     -0.0000
       150         0.0000      0.0000     -0.0000
       151        -0.0000      0.0000      0.0029
       152         0.0126      0.0854     -0.0000
       153        -0.0854      0.0126      0.0000
       154         0.0000      0.0000     -0.0000
       155        -0.0019     -0.0324      0.0000
       156         0.0324     -0.0019     -0.0000
 Ground to excited state transition velocity quadrupole moments (Au):
       state          XX          YY          ZZ          XY          XZ          YZ
         1        -0.0773     -0.0773     -0.0029      0.0000      0.0000     -0.0000
         2        -0.0496      0.0496      0.0000      0.0588     -0.2070      0.0486
         3         0.0587     -0.0587     -0.0000      0.0496     -0.0486     -0.2070
         4         0.0940     -0.0940     -0.0000      0.0387     -0.0187      0.2339
         5        -0.0387      0.0387     -0.0000      0.0940      0.2339      0.0187
         6        -0.0736     -0.0736     -0.7187     -0.0000     -0.0000      0.0000
         7         0.1757     -0.1757     -0.0000      0.0650      0.0251     -0.2142
         8        -0.0650      0.0650      0.0000      0.1757     -0.2142     -0.0251
         9        -0.1287      0.1287     -0.0000      0.1837     -0.0902      0.0127
        10         0.1836     -0.1836      0.0000      0.1287     -0.0128     -0.0901
        11        -0.0171     -0.0171      0.7737      0.0000      0.0000     -0.0000
        12         0.0000     -0.0000     -0.0000     -0.0003      0.0001      0.0000
        13         0.2526     -0.2526     -0.0000     -0.6765      0.2079      0.0237
        14         0.6765     -0.6765     -0.0000      0.2525      0.0237     -0.2079
        15        -0.9663     -0.9662     -0.3387     -0.0000      0.0000     -0.0000
        16        -0.0000      0.0000      0.0000      0.0000      0.0000      0.0000
        17         0.4409      0.4408      0.3569      0.0000     -0.0000      0.0001
        18        -0.0000     -0.0000     -0.0000      0.0000      0.0000      0.0000
        19        -0.2852      0.2901      0.0020     -0.1132      0.0524     -0.5439
        20         0.1126     -0.1137     -0.0004     -0.2876     -0.5439     -0.0524
        21         0.7087      0.7066      0.5622      0.0002     -0.0006      0.0018
        22        -0.0816      0.0817      0.0000     -0.0157      0.0484     -0.1681
        23        -0.0157      0.0157     -0.0000      0.0816      0.1681      0.0484
        24        -0.2806      0.2806     -0.0000     -0.0906      0.0512     -0.3199
        25        -0.0905      0.0905     -0.0000      0.2806      0.3199      0.0512
        26        -0.3860      0.3861     -0.0000     -0.1569      0.0171     -0.2014
        27        -0.1569      0.1569     -0.0000      0.3860      0.2015      0.0171
        28        -0.0000      0.0000      0.0000      0.0002     -0.0000     -0.0000
        29        -0.2846      0.2845      0.0000     -0.1025     -0.0673      0.5359
        30         0.1026     -0.1026     -0.0000     -0.2846      0.5359      0.0673
        31         0.6906      0.6906     -0.3746      0.0000     -0.0000      0.0001
        32         0.2777     -0.2776     -0.0000      0.2148     -0.1170     -0.6161
        33        -0.2148      0.2148      0.0000      0.2777     -0.6161      0.1170
        34         0.1535     -0.1536      0.0000      0.0552     -0.0043      0.0339
        35        -0.0552      0.0552     -0.0000      0.1535      0.0340      0.0043
        36        -0.1109      0.1109     -0.0001      0.3027      0.2633      0.0316
        37         0.3023     -0.3023      0.0002      0.1108     -0.0316      0.2633
        38         0.0270      0.0263     -0.3741      0.0000     -0.0001      0.0001
        39         0.3063     -0.3063      0.0000     -0.8281      0.0233      0.0027
        40         0.8283     -0.8283      0.0001      0.3063      0.0027     -0.0232
        41        -0.0000      0.0000     -0.0000      0.0000      0.0000      0.0000
        42         0.1112     -0.1112      0.0000     -0.2254     -0.2146     -0.0026
        43         0.2254     -0.2254      0.0000      0.1113     -0.0026      0.2146
        44         0.3308      0.3308      0.1476     -0.0000     -0.0000     -0.0000
        45         0.9281      0.9280      0.5203      0.0000      0.0000     -0.0000
        46        -0.0000      0.0000      0.0000      0.0000      0.0001      0.0000
        47        -0.0499      0.0498     -0.0001      0.0669      0.4277     -0.0733
        48        -0.0670      0.0668     -0.0001     -0.0499     -0.0733     -0.4277
        49        -0.4767     -0.4767     -1.2227      0.0000     -0.0000      0.0000
        50         0.1786     -0.1786     -0.0000     -0.2187      0.3815     -0.0830
        51        -0.2187      0.2187     -0.0000     -0.1786      0.0830      0.3816
        52        -0.4071      0.4070     -0.0000     -0.1514     -0.0197      0.1715
        53         0.1514     -0.1514     -0.0000     -0.4070      0.1715      0.0198
        54         0.0000     -0.0000      0.0000     -0.0000      0.0000      0.0000
        55        -0.7982      0.7982      0.0001     -0.3112     -0.0017      0.0177
        56         0.3112     -0.3111     -0.0000     -0.7982      0.0177      0.0018
        57        -0.1056     -0.1057      0.3910      0.0000      0.0000      0.0000
        58        -0.6771     -0.6771      0.7581      0.0000      0.0000     -0.0000
        59         0.4685      0.4707     -0.1583     -0.0002     -0.0005      0.0017
        60        -0.3422      0.3395      0.0005     -0.1487     -0.0356      0.5997
        61         0.1491     -0.1484     -0.0001     -0.3409      0.5998      0.0356
        62        -0.0583      0.0583     -0.0000      0.1170      0.6360      0.0052
        63         0.1170     -0.1170      0.0000      0.0583     -0.0053      0.6360
        64        -0.3660     -0.3660      0.4570      0.0000      0.0000     -0.0000
        65        -0.4343      0.4343     -0.0000     -0.0373      0.0354     -0.0874
        66        -0.0373      0.0373     -0.0000      0.4343      0.0874      0.0354
        67         0.0000     -0.0000     -0.0000      0.0000     -0.0000     -0.0000
        68        -0.5951     -0.5951     -0.3097     -0.0000      0.0000     -0.0000
        69        -0.0488      0.0488      0.0000     -0.0107     -0.0622      0.2381
        70        -0.0107      0.0107      0.0000      0.0488     -0.2381     -0.0622
        71         0.7252     -0.7252     -0.0000      0.2886      0.0278     -0.3017
        72        -0.2886      0.2886      0.0000      0.7252     -0.3017     -0.0279
        73        -0.1372      0.1372      0.0000      0.2556     -0.3626      0.0079
        74         0.2556     -0.2556     -0.0000      0.1372     -0.0079     -0.3626
        75        -0.2487     -0.2487     -1.1947     -0.0000     -0.0000      0.0000
        76        -0.0000      0.0000      0.0000     -0.0000      0.0000      0.0000
        77         0.3539      0.3539     -1.0242     -0.0000     -0.0000     -0.0000
        78        -0.3585      0.3585      0.0000      0.7156      0.0443      0.0003
        79         0.7156     -0.7156     -0.0001      0.3585     -0.0003      0.0443
        80        -0.1219      0.1219     -0.0000      0.2089      0.8678     -0.0499
        81         0.2089     -0.2089      0.0000      0.1219      0.0499      0.8678
        82        -0.2745      0.2745     -0.0000     -0.1118      0.0168     -0.1991
        83         0.1118     -0.1118      0.0000     -0.2745     -0.1991     -0.0168
        84         0.4318     -0.4318     -0.0000      0.2164      0.0004     -0.0617
        85        -0.2164      0.2164      0.0000      0.4318     -0.0617     -0.0004
        86        -0.5501     -0.5501     -0.4074     -0.0000      0.0000     -0.0000
        87         0.1455      0.1455     -0.0988      0.0000     -0.0000      0.0000
        88         0.1478      0.1478     -0.0378      0.0000     -0.0000      0.0000
        89        -0.0000      0.0000      0.0000     -0.0000      0.0000     -0.0000
        90        -0.1616      0.1617     -0.0000      0.3206      0.7559      0.0028
        91         0.3206     -0.3207      0.0000      0.1617     -0.0028      0.7559
        92         0.0698     -0.0696      0.0000      0.0080     -0.0317      0.0852
        93         0.0080     -0.0080      0.0000     -0.0697     -0.0853     -0.0317
        94         1.5671      1.5671      0.6319     -0.0000     -0.0000      0.0000
        95        -0.6945      0.6946      0.0000     -0.2589     -0.0111      0.0971
        96         0.2589     -0.2589     -0.0000     -0.6946      0.0970      0.0111
        97        -0.3136     -0.3136     -0.3004     -0.0000     -0.0000      0.0000
        98        -0.0000      0.0000      0.0000      0.0000     -0.0001     -0.0000
        99         0.0269     -0.0269     -0.0000     -0.0550      0.7084      0.0114
       100        -0.0550      0.0550     -0.0000     -0.0269     -0.0114      0.7084
       101        -0.1190      0.1190     -0.0000     -0.0647      0.0135      0.4941
       102         0.0647     -0.0647     -0.0000     -0.1190      0.4941     -0.0135
       103         0.5558      0.5555     -1.0499      0.0000     -0.0000      0.0000
       104        -0.0001      0.0001      0.0000      0.0016      0.0001      0.0000
       105         0.4474     -0.4474      0.0000     -1.2299     -0.0950     -0.0116
       106         1.2300     -1.2300      0.0001      0.4474     -0.0117      0.0950
       107         0.1550     -0.1550      0.0000     -0.2191     -0.1479      0.0216
       108         0.2186     -0.2186      0.0000      0.1549      0.0216      0.1479
       109        -0.4760     -0.4761      0.6435     -0.0000      0.0000      0.0000
       110         0.0556     -0.0556     -0.0000     -0.0965      0.3736     -0.0194
       111        -0.0965      0.0965      0.0000     -0.0556      0.0194      0.3736
       112         0.5766      0.5766      1.1270      0.0000      0.0000      0.0000
       113         0.1342     -0.1342      0.0000      0.0527     -0.0767      0.7919
       114        -0.0527      0.0527     -0.0000      0.1342      0.7919      0.0767
       115        -0.2213      0.2213     -0.0000     -0.0061     -0.1285      0.2708
       116        -0.0061      0.0061      0.0000      0.2212     -0.2708     -0.1285
       117         0.0001     -0.0001     -0.0000     -0.0009     -0.0002     -0.0001
       118        -0.7490      0.7488      0.0003     -0.2988      0.0200     -0.2190
       119         0.2989     -0.2987     -0.0003     -0.7489     -0.2190     -0.0200
       120        -0.3870     -0.3876      1.0840     -0.0001     -0.0000      0.0000
       121        -0.0000      0.0000     -0.0000      0.0000      0.0001      0.0000
       122         0.1710     -0.1710      0.0000     -0.3512     -0.5603     -0.0099
       123        -0.3512      0.3513     -0.0000     -0.1710      0.0100     -0.5603
       124        -0.0000      0.0000     -0.0000     -0.0000      0.0000      0.0000
       125        -0.0892      0.0891      0.0000      0.1749     -0.7437      0.0003
       126        -0.1749      0.1750      0.0000     -0.0891      0.0003      0.7437
       127        -0.2256     -0.2256     -0.2976     -0.0000      0.0000      0.0001
       128         0.2847      0.2847     -0.2525      0.0000     -0.0000      0.0000
       129         0.1937      0.1937     -0.0051     -0.0000     -0.0000     -0.0000
       130        -0.1079      0.1079      0.0000      0.1934      0.1069     -0.0041
       131         0.1934     -0.1934     -0.0000      0.1079      0.0041      0.1069
       132         0.3949     -0.3949      0.0000      0.1446     -0.0314      0.2605
       133        -0.1446      0.1446     -0.0000      0.3949      0.2605      0.0313
       134         0.1736     -0.1736     -0.0000      0.0013     -0.0352      0.0705
       135         0.0013     -0.0013      0.0000     -0.1736     -0.0705     -0.0352
       136         0.1378     -0.1378      0.0000      0.0722      0.0052      0.4566
       137        -0.0721      0.0722     -0.0000      0.1378      0.4566     -0.0052
       138        -0.0883     -0.0884     -0.1958      0.0000     -0.0000      0.0000
       139        -0.0000      0.0000      0.0000      0.0000      0.0000      0.0000
       140        -0.0860      0.0860      0.0000      0.1988      0.2349      0.0147
       141        -0.1988      0.1987      0.0001     -0.0860      0.0147     -0.2349
       142        -0.2486     -0.2487      0.8454      0.0000     -0.0000      0.0000
       143        -0.0311     -0.0311      0.2677      0.0000      0.0000     -0.0000
       144        -0.1711      0.1711      0.0001     -0.0719      0.0050     -0.0686
       145         0.0719     -0.0719     -0.0000     -0.1711     -0.0686     -0.0050
       146        -0.0394      0.0394      0.0000     -0.0204      0.0001      0.0228
       147         0.0204     -0.0204     -0.0000     -0.0394      0.0228     -0.0001
       148        -0.1208      0.1208     -0.0000      0.2029     -0.0521      0.0034
       149         0.2029     -0.2029      0.0000      0.1208     -0.0035     -0.0521
       150         0.0709      0.0708     -0.1854     -0.0000     -0.0000      0.0000
       151        -0.0000      0.0000     -0.0000     -0.0000      0.0001      0.0001
       152         0.0177     -0.0176      0.0001     -0.0249      0.3989     -0.0588
       153        -0.0250      0.0249     -0.0001     -0.0177      0.0588      0.3989
       154        -0.1335     -0.1336     -0.2539     -0.0000      0.0001     -0.0001
       155        -0.0585      0.0585      0.0000      0.0999     -0.2065      0.0122
       156         0.0999     -0.0999     -0.0000      0.0585     -0.0122     -0.2065
 <0|del|b> * <b|rxdel|0> + <0|del|b> * <b|delr+rdel|0>
 Rotatory Strengths (R) in cgs (10**-40 erg-esu-cm/Gauss)
       state          XX          YY          ZZ    R(velocity)    E-M Angle
         1        -0.0000      0.0000     -0.0000     -0.0000       90.00
         2         7.9190     -7.9191     -0.0004     -0.0001       90.00
         3        -7.9189      7.9189      0.0004      0.0001       90.00
         4        -0.0007      0.0007     -0.0000      0.0000       90.00
         5         0.0007     -0.0007      0.0000      0.0000       90.00
         6         0.0001     -0.0001     -0.0000     -0.0000       90.00
         7         1.4606     -1.4613     -0.0005     -0.0004       90.00
         8        -1.4598      1.4605      0.0005      0.0004       90.00
         9        12.9775    -12.9776     -0.0055     -0.0019       90.00
        10       -12.9777     12.9778      0.0055      0.0019       90.00
        11        -0.0007      0.0007     -0.0000     -0.0000       90.00
        12        -0.0000      0.0000     -0.0000      0.0000       90.00
        13        -5.4137      5.4158     -0.0019      0.0001       90.00
        14         5.4133     -5.4154      0.0019     -0.0001       90.00
        15         0.0001     -0.0001     -0.0000      0.0000       90.00
        16         0.0000      0.0000     -0.0000      0.0000       90.00
        17         0.0009     -0.0009     -0.0000     -0.0000       90.00
        18        -0.0000     -0.0000      0.0000     -0.0000       90.00
        19         2.1676     -2.1667     -0.0007      0.0001       90.00
        20        -2.1851      2.1842      0.0007     -0.0001       90.00
        21         0.0154     -0.0154      0.0000     -0.0000       90.00
        22       -23.9902     23.9867      0.0017     -0.0006       90.00
        23        23.9915    -23.9879     -0.0018      0.0006       90.00
        24        16.1895    -16.1888     -0.0017     -0.0003       90.00
        25       -16.1895     16.1888      0.0017      0.0003       90.00
        26        -2.3900      2.3896      0.0004     -0.0000       90.00
        27         2.3922     -2.3917     -0.0004      0.0000       90.00
        28         0.0000      0.0000     -0.0000      0.0000       90.00
        29         8.7263     -8.7273      0.0005     -0.0002       90.00
        30        -8.7281      8.7290     -0.0005      0.0001       90.00
        31        -0.0001      0.0001      0.0000      0.0000       90.00
        32        14.6136    -14.6136     -0.0000     -0.0000       90.00
        33       -14.6138     14.6138      0.0000      0.0000       90.00
        34         0.1859     -0.1855     -0.0005     -0.0000       90.00
        35        -0.1868      0.1864      0.0004      0.0000       90.00
        36         3.3981     -3.3975     -0.0010     -0.0001       90.00
        37        -3.4048      3.4042      0.0010      0.0001       90.00
        38         0.0118     -0.0119     -0.0000     -0.0000       90.00
        39         0.7571     -0.7583      0.0008     -0.0001       90.00
        40        -0.7613      0.7625     -0.0008      0.0001       90.00
        41         0.0000      0.0000     -0.0000      0.0000       90.00
        42         0.2409     -0.2402     -0.0007     -0.0000       90.00
        43        -0.2416      0.2410      0.0007      0.0000       90.00
        44         0.0005     -0.0005     -0.0000     -0.0000       90.00
        45         0.0000     -0.0002      0.0000     -0.0000       90.00
        46         0.0001      0.0001     -0.0000      0.0000       90.00
        47        -5.6383      5.6383     -0.0000     -0.0000       90.00
        48         5.6383     -5.6383      0.0000      0.0000       90.00
        49         0.0004     -0.0005      0.0000     -0.0000       90.00
        50         6.1376     -6.1375     -0.0001      0.0000       90.00
        51        -6.1377      6.1376      0.0001     -0.0000       90.00
        52        -0.3394      0.3394     -0.0001     -0.0000       90.00
        53         0.3393     -0.3393      0.0001      0.0000       90.00
        54        -0.0000     -0.0000     -0.0000     -0.0000       90.00
[...]
                86            87            88            89            90 
      1  -0.549808D+02 -0.548550D+02 -0.548319D+02 -0.548027D+02 -0.547893D+02
      2   0.122696D-05 -0.182454D-05  0.357237D-05  0.722499D-05  0.165943D+00
      3  -0.209695D-05  0.106033D-05 -0.215205D-05  0.154262D-05 -0.186101D-02
      4  -0.143141D+00 -0.140739D+00  0.264364D+00  0.000000D+00  0.000000D+00
      5  -0.270009D-05  0.387523D-05 -0.617127D-05 -0.116537D-04 -0.305543D+00
      6   0.208888D-05 -0.104760D-05  0.395919D-05 -0.329983D-05  0.342654D-02
      7   0.193255D+00  0.274744D+00 -0.452219D+00  0.000000D+00  0.173046D-05
      8   0.219238D-05  0.000000D+00 -0.411993D-05  0.124334D-04 -0.255192D-02
      9  -0.322131D-05  0.000000D+00  0.105245D-05  0.000000D+00 -0.227579D+00
     10   0.000000D+00  0.000000D+00  0.000000D+00  0.416604D+00 -0.453005D-05
     11  -0.550121D+00  0.145533D+00  0.147809D+00 -0.804884D-05 -0.166401D+00
     12  -0.550071D+00  0.145525D+00  0.147806D+00  0.810961D-05  0.166451D+00
     13  -0.407362D+00 -0.987901D-01 -0.378184D-01  0.000000D+00 -0.259574D-04
     14   0.102772D-04  0.000000D+00 -0.186338D-05  0.416683D-05 -0.318204D+00
     15   0.806592D-05 -0.463231D-05 -0.102844D-04  0.203957D-04  0.755889D+00
     16   0.562268D-05  0.000000D+00 -0.177143D-04  0.978048D-05 -0.847175D-02
                91            92            93            94            95 
      1  -0.547893D+02 -0.546892D+02 -0.546892D+02 -0.546762D+02 -0.546563D+02
      2  -0.186094D-02  0.611046D-01  0.160477D+00 -0.116479D-04 -0.159928D-02
      3  -0.165947D+00  0.160475D+00 -0.611045D-01 -0.842227D-05 -0.131054D-01
      4  -0.600319D-05 -0.137049D-04 -0.910028D-05 -0.206777D+00 -0.922399D-05
      5   0.342645D-02 -0.122351D+00 -0.321327D+00  0.227844D-04 -0.151808D-02
      6   0.305549D+00 -0.321323D+00  0.122351D+00  0.172103D-04 -0.124316D-01
      7   0.101615D-04  0.244884D-04  0.165785D-04  0.359295D+00  0.163934D-04
      8  -0.227574D+00  0.971224D-01 -0.369814D-01 -0.118461D-04  0.171266D+00
      9   0.255222D-02 -0.369792D-01 -0.971166D-01  0.942265D-05 -0.209051D-01
     10   0.117627D-04 -0.136980D-05 -0.150846D-05  0.000000D+00 -0.231948D-05
     11   0.318160D+00  0.696517D-01  0.908768D-02  0.156713D+01 -0.690581D+00
     12  -0.318224D+00 -0.695160D-01 -0.901332D-02  0.156706D+01  0.690703D+00
     13   0.370221D-05  0.364028D-04  0.196454D-04  0.631858D+00  0.235321D-04
     14  -0.166446D+00 -0.904811D-02  0.695905D-01  0.000000D+00  0.269206D+00
     15  -0.848129D-02 -0.323721D-01 -0.850154D-01 -0.170702D-04 -0.118256D-01
     16  -0.755874D+00 -0.849995D-01  0.323644D-01 -0.932358D-05 -0.969796D-01
                96            97            98            99           100 
      1  -0.546563D+02 -0.546083D+02 -0.545422D+02 -0.545255D+02 -0.545255D+02
      2   0.131006D-01  0.541420D-05 -0.195295D-04  0.185896D+00 -0.438843D-02
      3  -0.159947D-02  0.222509D-05  0.892656D-05 -0.438878D-02 -0.185898D+00
      4   0.334002D-05  0.274855D+00  0.000000D+00 -0.403604D-05  0.248590D-05
      5   0.124391D-01 -0.112103D-04  0.316411D-04 -0.306292D+00  0.723059D-02
      6  -0.151768D-02 -0.474423D-05 -0.144657D-04  0.723123D-02  0.306296D+00
      7  -0.657392D-05 -0.555391D+00  0.000000D+00  0.665927D-05 -0.404547D-05
      8   0.209046D-01  0.000000D+00  0.528640D-05 -0.417649D-02 -0.176909D+00
      9   0.171264D+00  0.000000D+00  0.189258D-04 -0.176913D+00  0.417645D-02
     10   0.276246D-05  0.000000D+00 -0.214102D+00 -0.226960D-04 -0.698346D-05
     11   0.269181D+00 -0.313634D+00 -0.118702D-05  0.277129D-01 -0.545749D-01
     12  -0.269234D+00 -0.313637D+00  0.119317D-05 -0.276955D-01  0.545825D-01
     13  -0.151351D-04 -0.300429D+00  0.000000D+00 -0.223357D-04 -0.373500D-05
     14   0.690638D+00  0.000000D+00 -0.193587D-04  0.545795D-01  0.276804D-01
     15   0.969643D-01  0.000000D+00 -0.850510D-04  0.708336D+00 -0.167211D-01
     16  -0.118475D-01  0.000000D+00  0.391312D-04 -0.167232D-01 -0.708330D+00
               101           102           103           104           105 
      1  -0.544046D+02 -0.544046D+02 -0.543400D+02 -0.543366D+02 -0.543355D+02
      2  -0.395486D-02 -0.199927D+00 -0.165833D-05  0.253782D-03 -0.166174D+00
      3   0.199931D+00 -0.395568D-02 -0.110855D-04 -0.110019D-03  0.216091D-01
      4  -0.216996D-05  0.419712D-05  0.781501D-01  0.000000D+00 -0.499420D-05
      5   0.819061D-02  0.414060D+00  0.325676D-05 -0.483379D-03  0.320056D+00
      6  -0.414068D+00  0.819260D-02  0.215312D-04  0.209963D-03 -0.416202D-01
      7   0.401852D-05 -0.820585D-05 -0.158430D+00  0.000000D+00  0.895366D-05
      8  -0.156636D+00  0.309868D-02  0.109453D-04  0.113426D-03 -0.183707D-01
      9  -0.309886D-02 -0.156636D+00 -0.132924D-05  0.254306D-03 -0.141310D+00
     10   0.256028D-05  0.000000D+00  0.000000D+00  0.326720D+00  0.406470D-03
     11  -0.118012D+00  0.664844D-01  0.555800D+00 -0.101928D-03  0.465658D+00
     12   0.118004D+00 -0.664609D-01  0.555550D+00  0.101741D-03 -0.465676D+00
     13  -0.362751D-05 -0.140940D-04 -0.104987D+01  0.000000D+00  0.170374D-04
     14   0.664532D-01  0.118012D+00 -0.863564D-05 -0.158382D-02  0.122313D+01
     15   0.977953D-02  0.494223D+00 -0.333620D-04  0.729822D-04 -0.948934D-01
     16  -0.494233D+00  0.977536D-02 -0.109633D-04 -0.361362D-04  0.123275D-01
               106           107           108           109           110 
      1  -0.543355D+02 -0.543257D+02 -0.543257D+02 -0.543044D+02 -0.542504D+02
      2  -0.216126D-01  0.231114D+00 -0.320328D-01  0.875826D-05 -0.155617D+00
      3  -0.166093D+00  0.320471D-01  0.231177D+00 -0.310738D-05 -0.693019D-02
      4  -0.247265D-04 -0.106713D-04  0.000000D+00  0.474038D+00  0.183846D-05
      5   0.416269D-01 -0.426950D+00  0.591758D-01 -0.155407D-04  0.325856D+00
      6   0.319907D+00 -0.592033D-01 -0.427071D+00  0.627374D-05  0.145117D-01
      7   0.454702D-04  0.196382D-04  0.000000D+00 -0.850909D+00 -0.436133D-05
      8   0.141175D+00 -0.473914D-01 -0.341874D+00  0.323596D-05  0.209159D-02
      9  -0.183754D-01  0.341818D+00 -0.473778D-01  0.209242D-05 -0.469573D-01
     10  -0.127384D-03 -0.784199D-04  0.481198D-04  0.000000D+00 -0.130207D-05
     11   0.122319D+01  0.158203D+00  0.216278D+00 -0.475998D+00  0.570472D-01
     12  -0.122324D+01 -0.158213D+00 -0.216287D+00 -0.476105D+00 -0.570193D-01
     13   0.525540D-04  0.130336D-04  0.130806D-04  0.643519D+00 -0.209339D-04
     14  -0.465723D+00  0.216734D+00 -0.158090D+00  0.000000D+00  0.956496D-01
     15  -0.123660D-01 -0.148066D+00  0.205210D-01  0.155578D-04  0.373694D+00
     16  -0.949382D-01 -0.205230D-01 -0.148036D+00 -0.347380D-05  0.166405D-01
               111           112           113           114           115 
      1  -0.542504D+02 -0.542285D+02 -0.541541D+02 -0.541541D+02 -0.541025D+02
      2  -0.693062D-02  0.426882D-05  0.112021D-01 -0.107283D+00  0.297579D-01
      3   0.155616D+00  0.213312D-05  0.107279D+00  0.112023D-01  0.615211D-01
      4   0.142018D-05  0.200672D+00 -0.120517D-05  0.136230D-05  0.536147D-05
      5   0.145124D-01 -0.905877D-05 -0.265749D-01  0.254507D+00 -0.608273D-01
      6  -0.325856D+00 -0.478878D-05 -0.254499D+00 -0.265753D-01 -0.125753D+00
      7  -0.194938D-05 -0.422721D+00  0.245743D-05 -0.325061D-05 -0.110776D-04
      8  -0.469565D-01 -0.246615D-05 -0.364747D+00 -0.380871D-01 -0.188190D-01
      9  -0.209089D-02  0.000000D+00  0.380875D-01 -0.364758D+00  0.910668D-02
     10   0.000000D+00  0.000000D+00  0.956262D-05  0.974872D-05  0.000000D+00
     11  -0.956637D-01  0.576601D+00  0.133360D+00 -0.546524D-01 -0.221157D+00
     12   0.956365D-01  0.576600D+00 -0.133380D+00  0.546852D-01  0.221150D+00
     13   0.120474D-04  0.112701D+01  0.909829D-05 -0.295576D-04  0.000000D+00
     14   0.570255D-01  0.000000D+00 -0.546947D-01 -0.133372D+00  0.943086D-02
     15   0.166445D-01  0.771447D-05 -0.826265D-01  0.791287D+00 -0.130511D+00
     16  -0.373694D+00 -0.568288D-05 -0.791262D+00 -0.826224D-01 -0.269789D+00
               116           117           118           119           120 
      1  -0.541025D+02 -0.540542D+02 -0.540513D+02 -0.540513D+02 -0.540488D+02
      2   0.615150D-01 -0.217360D-03  0.208403D-01 -0.210624D+00 -0.645171D-04
      3  -0.297560D-01  0.960949D-04  0.210619D+00  0.208401D-01 -0.482164D-04
      4   0.000000D+00  0.000000D+00 -0.983571D-05  0.135959D-04 -0.363557D-01
      5  -0.125741D+00  0.432573D-03 -0.414357D-01  0.418773D+00  0.128158D-03
      6   0.608229D-01 -0.191578D-03 -0.418761D+00 -0.414350D-01  0.959984D-04
      7   0.170014D-05  0.000000D+00  0.221607D-04 -0.300683D-04  0.835449D-01
      8   0.910198D-02  0.152557D-04  0.693562D-01  0.686183D-02 -0.148627D-04
      9   0.188247D-01  0.603792D-04 -0.686271D-02  0.693511D-01  0.203664D-04
     10  -0.185734D-04 -0.644815D+00  0.218495D-03  0.674011D-03  0.000000D+00
     11  -0.942567D-02  0.689156D-04 -0.744473D+00  0.310030D+00 -0.387010D+00
     12   0.942266D-02 -0.688373D-04  0.744282D+00 -0.309820D+00 -0.387582D+00
     13   0.253084D-05  0.000000D+00  0.274959D-03 -0.297205D-03  0.108400D+01
     14  -0.221126D+00  0.881410D-03  0.309916D+00  0.744408D+00  0.129908D-03
     15  -0.269815D+00 -0.207596D-03  0.216654D-01 -0.218835D+00 -0.407117D-04
     16   0.130501D+00  0.862249D-04  0.218821D+00  0.216388D-01 -0.357020D-04
               121           122           123           124           125 
      1  -0.539583D+02 -0.539387D+02 -0.539387D+02 -0.539148D+02 -0.538945D+02
      2   0.872026D-05 -0.730255D-01  0.184135D-02 -0.168254D-05  0.866065D-01
      3  -0.405304D-05  0.184101D-02  0.730228D-01  0.439861D-05 -0.607874D-03
      4   0.000000D+00  0.259975D-05 -0.188479D-05  0.000000D+00  0.000000D+00
      5  -0.213366D-04  0.170519D+00 -0.429967D-02  0.436181D-05 -0.238630D+00
      6   0.980078D-05 -0.429883D-02 -0.170512D+00 -0.121226D-04  0.167481D-02
      7   0.000000D+00 -0.579211D-05  0.358618D-05  0.000000D+00  0.000000D+00
      8  -0.766728D-05  0.677401D-02  0.268652D+00 -0.449658D-05  0.225993D-03
      9  -0.301480D-04  0.268653D+00 -0.677323D-02 -0.657477D-05  0.321318D-01
     10   0.386265D+00  0.400213D-04  0.119657D-04  0.689873D-02  0.000000D+00
     11   0.000000D+00  0.176172D+00 -0.348644D+00 -0.626913D-05 -0.917561D-01
     12   0.000000D+00 -0.176198D+00  0.348666D+00  0.627028D-05  0.917275D-01
     13   0.000000D+00  0.236798D-04 -0.102663D-04  0.000000D+00  0.161864D-04
     14  -0.419622D-04  0.348649D+00  0.176207D+00  0.486999D-05 -0.173595D+00
     15   0.613036D-04 -0.560191D+00  0.141290D-01  0.165640D-04 -0.743633D+00
     16  -0.306395D-04  0.141193D-01  0.560183D+00 -0.407394D-04  0.522189D-02
               126           127           128           129           130 
      1  -0.538945D+02 -0.538774D+02 -0.537675D+02 -0.537002D+02 -0.536709D+02
      2   0.607556D-03  0.000000D+00 -0.182020D-05 -0.502453D-05  0.388621D-01
      3   0.866078D-01  0.963585D-05 -0.156829D-05 -0.186021D-05  0.119644D-02
      4  -0.146157D-04  0.951072D-01 -0.821719D-01 -0.236927D+00 -0.103289D-05
      5  -0.167409D-02  0.282966D-05  0.297796D-05  0.115052D-04 -0.373422D-01
      6  -0.238633D+00 -0.267503D-04  0.306979D-05  0.440016D-05 -0.114942D-02
      7   0.349223D-04 -0.231647D+00  0.136153D+00  0.542892D+00  0.116253D-05
      8  -0.321336D-01 -0.446719D-05  0.000000D+00  0.000000D+00 -0.513734D-02
      9   0.224954D-03  0.000000D+00  0.000000D+00  0.000000D+00  0.166859D+00
     10   0.101505D-05  0.000000D+00  0.000000D+00  0.000000D+00  0.570275D-05
     11  -0.173555D+00 -0.225577D+00  0.284727D+00  0.193724D+00 -0.110810D+00
     12   0.173616D+00 -0.225556D+00  0.284713D+00  0.193735D+00  0.110815D+00
     13   0.407736D-04 -0.297584D+00 -0.252525D+00 -0.514731D-02  0.000000D+00
     14   0.917139D-01  0.136570D-04  0.000000D+00  0.120146D-05 -0.191796D+00
     15  -0.521414D-02  0.131856D-04 -0.925879D-05 -0.337317D-05  0.106969D+00
     16  -0.743645D+00 -0.920000D-04 -0.343761D-05  0.216012D-05  0.329633D-02
               131           132           133           134           135 
      1  -0.536709D+02 -0.535444D+02 -0.535444D+02 -0.535142D+02 -0.535142D+02
      2   0.119660D-02 -0.400213D-02  0.312911D-01 -0.402971D-01 -0.792335D-01
      3  -0.388622D-01 -0.312929D-01 -0.400310D-02 -0.792330D-01  0.402962D-01
      4   0.000000D+00  0.000000D+00  0.000000D+00  0.000000D+00  0.112941D-05
      5  -0.115004D-02  0.156015D-01 -0.121980D+00  0.127610D+00  0.250912D+00
      6   0.373428D-01  0.121984D+00  0.156044D-01  0.250909D+00 -0.127608D+00
      7   0.000000D+00  0.140767D-05  0.279802D-05 -0.115127D-05 -0.381702D-05
      8   0.166860D+00 -0.137472D+00 -0.175845D-01 -0.224561D-01  0.114206D-01
      9   0.513745D-02  0.175848D-01 -0.137477D+00  0.114208D-01  0.224558D-01
     10   0.000000D+00  0.474296D-05  0.690534D-05  0.000000D+00  0.000000D+00
     11   0.191787D+00  0.392731D+00 -0.150466D+00  0.173577D+00  0.393098D-02
     12  -0.191789D+00 -0.392734D+00  0.150476D+00 -0.173569D+00 -0.393219D-02
     13  -0.644901D-05  0.677270D-05 -0.111194D-04 -0.579043D-05  0.242707D-05
     14  -0.110812D+00 -0.150492D+00 -0.392718D+00 -0.393156D-02  0.173570D+00
     15   0.329025D-02 -0.332911D-01  0.260222D+00 -0.357245D-01 -0.702334D-01
     16  -0.106959D+00 -0.260212D+00 -0.332786D-01 -0.702347D-01  0.357151D-01
               136           137           138           139           140 
      1  -0.534006D+02 -0.534006D+02 -0.532843D+02 -0.532366D+02 -0.531968D+02
      2  -0.495237D-03 -0.123036D+00  0.259605D-05 -0.484523D-05 -0.136739D+00
      3   0.123041D+00 -0.495426D-03  0.274844D-05  0.428458D-05  0.956778D-02
      4  -0.157815D-04  0.773149D-05  0.146179D+00  0.000000D+00 -0.137421D-04
      5   0.149005D-02  0.370165D+00 -0.797483D-05  0.187195D-04  0.445648D+00
      6  -0.370177D+00  0.149045D-02 -0.910000D-05 -0.147169D-04 -0.311825D-01
      7   0.436812D-04 -0.218161D-04 -0.428773D+00  0.000000D+00  0.407189D-04
      8   0.235981D-01 -0.949638D-04 -0.392012D-05  0.000000D+00  0.107189D-01
      9   0.950239D-04  0.235971D-01  0.205948D-05  0.565083D-05  0.153190D+00
     10   0.000000D+00 -0.107135D-05  0.000000D+00 -0.224597D+00  0.163378D-04
     11   0.136739D+00 -0.741856D-01 -0.883497D-01 -0.237248D-05 -0.889710D-01
     12  -0.136729D+00  0.741963D-01 -0.883715D-01  0.233797D-05  0.889478D-01
     13   0.237944D-04 -0.230378D-04 -0.195828D+00  0.000000D+00  0.487125D-04
     14  -0.742026D-01 -0.136740D+00  0.000000D+00 -0.334356D-04 -0.197469D+00
     15   0.183651D-02  0.456580D+00 -0.919423D-05  0.142793D-04  0.234785D+00
     16  -0.456579D+00  0.183968D-02 -0.228924D-04 -0.874764D-05 -0.164244D-01
               141           142           143           144           145 
      1  -0.531968D+02 -0.531756D+02 -0.531428D+02 -0.530986D+02 -0.530985D+02
      2  -0.956855D-02  0.280103D-05  0.000000D+00  0.768299D-02 -0.954234D-01
      3  -0.136752D+00  0.881150D-05  0.000000D+00  0.954115D-01  0.768301D-02
      4  -0.373413D-04 -0.226737D+00 -0.443471D-01 -0.146853D-04  0.476116D-05
      5   0.311843D-01 -0.120302D-04  0.102943D-05 -0.197935D-01  0.245844D+00
      6   0.445682D+00 -0.348138D-04  0.117224D-05 -0.245803D+00 -0.197938D-01
      7   0.112018D-03  0.690630D+00  0.134511D+00  0.455433D-04 -0.139853D-04
      8  -0.153201D+00  0.124554D-04  0.000000D+00  0.912494D-01  0.734830D-02
      9   0.107195D-01 -0.840864D-05  0.000000D+00 -0.734761D-02  0.912635D-01
     10  -0.558458D-05  0.000000D+00  0.000000D+00 -0.322037D-05 -0.744423D-05
     11  -0.197472D+00 -0.248622D+00 -0.311261D-01 -0.170050D+00  0.744562D-01
     12   0.197405D+00 -0.248722D+00 -0.311408D-01  0.170018D+00 -0.744519D-01
     13   0.125710D-03  0.845407D+00  0.267732D+00  0.525051D-04 -0.938763D-05
     14   0.889515D-01 -0.326192D-05 -0.113285D-05  0.744689D-01  0.170009D+00
     15   0.164303D-01 -0.219170D-05  0.581479D-05  0.552127D-02 -0.685339D-01
     16   0.234766D+00 -0.379188D-04  0.000000D+00  0.685534D-01  0.551692D-02
               146           147           148           149           150 
      1  -0.528255D+02 -0.528255D+02 -0.527701D+02 -0.527701D+02 -0.527013D+02
      2   0.450775D-05 -0.409389D-02  0.148512D+00  0.873681D-02 -0.181319D-05
      3   0.408826D-02  0.402159D-05  0.873647D-02 -0.148509D+00 -0.163603D-05
      4   0.539646D-05 -0.177288D-05 -0.337389D-05  0.251961D-05 -0.822633D-01
      5   0.141578D-05 -0.207058D-02 -0.465367D+00 -0.273771D-01  0.598696D-05
      6   0.208796D-02  0.290947D-05 -0.273757D-01  0.465354D+00  0.598365D-05
      7  -0.179189D-04  0.618690D-05  0.106411D-04 -0.845317D-05  0.277341D+00
      8  -0.759945D-02 -0.796297D-05  0.287196D-02 -0.488192D-01 -0.141129D-05
      9   0.787192D-05 -0.759803D-02 -0.488211D-01 -0.287208D-02  0.000000D+00
     10   0.000000D+00  0.000000D+00 -0.118147D-05  0.000000D+00  0.000000D+00
     11  -0.391238D-01  0.209781D-01 -0.123817D+00  0.201093D+00  0.708522D-01
     12   0.391096D-01 -0.209730D-01  0.123819D+00 -0.201099D+00  0.708493D-01
     13   0.150246D-04 -0.547578D-05  0.000000D+00  0.265169D-05 -0.185444D+00
     14   0.209687D-01  0.391254D-01 -0.201092D+00 -0.123817D+00  0.000000D+00
     15  -0.236336D-04  0.228159D-01 -0.520808D-01 -0.306783D-02 -0.606547D-05
     16  -0.228226D-01 -0.239203D-04 -0.305975D-02  0.520788D-01 -0.509914D-05
               151           152           153           154           155 
      1  -0.525814D+02 -0.525630D+02 -0.525630D+02 -0.525558D+02 -0.521907D+02
      2  -0.447553D-04 -0.157428D+00 -0.220212D-01 -0.459989D-04  0.684528D-01
      3   0.256422D-04 -0.220212D-01  0.157428D+00 -0.525208D-04  0.353816D-02
      4   0.000000D+00 -0.487598D-04  0.423540D-04  0.146340D+00 -0.147572D-05
      5   0.154997D-03  0.547650D+00  0.766061D-01  0.160400D-03 -0.234714D+00
      6  -0.886676D-04  0.766061D-01 -0.547652D+00  0.183271D-03 -0.121317D-01
      7   0.000000D+00  0.166755D-03 -0.145148D-03 -0.501402D+00  0.517211D-05
      8   0.134693D-04 -0.119636D-01  0.855270D-01 -0.285127D-04  0.167606D-02
      9   0.233679D-04  0.855267D-01  0.119636D-01  0.265867D-04 -0.324262D-01
     10  -0.289423D-02  0.115674D-05 -0.105965D-05  0.000000D+00  0.000000D+00
     11   0.000000D+00  0.181125D-01 -0.246858D-01 -0.133533D+00 -0.599908D-01
     12   0.000000D+00 -0.180082D-01  0.246126D-01 -0.133559D+00  0.599814D-01
     13   0.000000D+00  0.748214D-04 -0.740517D-04 -0.253921D+00  0.787971D-05
     14   0.763308D-05  0.246544D-01  0.180477D-01  0.441561D-05 -0.989901D-01
     15   0.115889D-03  0.399291D+00  0.558538D-01  0.122385D-03 -0.206608D+00
     16  -0.656462D-04  0.558541D-01 -0.399299D+00  0.135309D-03 -0.106782D-01
               156 
      1  -0.521907D+02
      2   0.353837D-02
      3  -0.684523D-01
      4   0.000000D+00
      5  -0.121326D-01
      6   0.234713D+00
      7   0.000000D+00
      8  -0.324267D-01
      9  -0.167614D-02
     10   0.000000D+00
     11   0.989882D-01
     12  -0.989865D-01
     13  -0.279709D-05
     14  -0.599777D-01
     15  -0.106807D-01
     16   0.206610D+00
 Unable to Open any file for archive entry.
 1\1\GINC-HEL23\SP\RPBE1PBE TD-FC\Gen\H3N1\SABYASACHI\21-Mar-2022\0\\#P
  TD(Nstates=10000) pbe1pbe/Gen SCF(maxcycles=100) Int(Grid=ultrafine)\
 \xGDB7_00001_tier4.com\\0,1\N,0,0.000002,0.,0.110463\H,0,0.154111,0.92
 9092,-0.257758\H,0,0.727563,-0.598011,-0.257757\H,0,-0.881687,-0.33107
 8,-0.257728\\Version=EM64L-G16RevC.01\State=1-A\HF=-56.4533997\RMSD=1.
 836e-09\PG=C01 [X(H3N1)]\\@
 The archive entry for this job was punched.


 I HAVE NOT FAILED, I HAVE ONLY DISCOVERED 10,000
 WAYS THAT DIDN'T WORK.  -- THOMAS A. EDISON
 Job cpu time:       0 days  0 hours  0 minutes 31.2 seconds.
 Elapsed time:       0 days  0 hours  0 minutes  4.2 seconds.
 File lengths (MBytes):  RWF=     34 Int=      0 D2E=      0 Chk=      9 Scr=      1
 Normal termination of Gaussian 16 at Mon Mar 21 20:12:40 2022.
