 Entering Gaussian System, Link 0=g16
 Input=000022.com
 Output=000022.log
 Initial command:
 /home/sabyasachi/g16/l1.exe "/scratch/sabyasachi/PBS_7976519.helios/Gau-159321.inp" -scrdir="/scratch/sabyasachi/PBS_7976519.helios/"
 Entering Link 1 = /home/sabyasachi/g16/l1.exe PID=    159322.
  
 Copyright (c) 1988-2019, Gaussian, Inc.  All Rights Reserved.
  
 This is part of the Gaussian(R) 16 program.  It is based on
 the Gaussian(R) 09 system (copyright 2009, Gaussian, Inc.),
 the Gaussian(R) 03 system (copyright 2003, Gaussian, Inc.),
 the Gaussian(R) 98 system (copyright 1998, Gaussian, Inc.),
 the Gaussian(R) 94 system (copyright 1995, Gaussian, Inc.),
 the Gaussian 92(TM) system (copyright 1992, Gaussian, Inc.),
 the Gaussian 90(TM) system (copyright 1990, Gaussian, Inc.),
 the Gaussian 88(TM) system (copyright 1988, Gaussian, Inc.),
 the Gaussian 86(TM) system (copyright 1986, Carnegie Mellon
 University), and the Gaussian 82(TM) system (copyright 1983,
 Carnegie Mellon University). Gaussian is a federally registered
 trademark of Gaussian, Inc.
  
 This software contains proprietary and confidential information,
 including trade secrets, belonging to Gaussian, Inc.
  
 This software is provided under written license and may be
 used, copied, transmitted, or stored only in accord with that
 written license.
  
 The following legend is applicable only to US Government
 contracts under FAR:
  
                    RESTRICTED RIGHTS LEGEND
  
 Use, reproduction and disclosure by the US Government is
 subject to restrictions as set forth in subparagraphs (a)
 and (c) of the Commercial Computer Software - Restricted
 Rights clause in FAR 52.227-19.
  
 Gaussian, Inc.
 340 Quinnipiac St., Bldg. 40, Wallingford CT 06492
  
  
 ---------------------------------------------------------------
 Warning -- This program may not be used in any manner that
 competes with the business of Gaussian, Inc. or will provide
 assistance to any competitor of Gaussian, Inc.  The licensee
 of this program is prohibited from giving any competitor of
 Gaussian, Inc. access to this program.  By using this program,
 the user acknowledges that Gaussian, Inc. is engaged in the
 business of creating and licensing software in the field of
 computational chemistry and represents and warrants to the
 licensee that it is not a competitor of Gaussian, Inc. and that
 it will not use this program in any manner prohibited above.
 ---------------------------------------------------------------
  

 Cite this work as:
 Gaussian 16, Revision C.01,
 M. J. Frisch, G. W. Trucks, H. B. Schlegel, G. E. Scuseria, 
 M. A. Robb, J. R. Cheeseman, G. Scalmani, V. Barone, 
 G. A. Petersson, H. Nakatsuji, X. Li, M. Caricato, A. V. Marenich, 
 J. Bloino, B. G. Janesko, R. Gomperts, B. Mennucci, H. P. Hratchian, 
 J. V. Ortiz, A. F. Izmaylov, J. L. Sonnenberg, D. Williams-Young, 
 F. Ding, F. Lipparini, F. Egidi, J. Goings, B. Peng, A. Petrone, 
 T. Henderson, D. Ranasinghe, V. G. Zakrzewski, J. Gao, N. Rega, 
 G. Zheng, W. Liang, M. Hada, M. Ehara, K. Toyota, R. Fukuda, 
 J. Hasegawa, M. Ishida, T. Nakajima, Y. Honda, O. Kitao, H. Nakai, 
 T. Vreven, K. Throssell, J. A. Montgomery, Jr., J. E. Peralta, 
 F. Ogliaro, M. J. Bearpark, J. J. Heyd, E. N. Brothers, K. N. Kudin, 
 V. N. Staroverov, T. A. Keith, R. Kobayashi, J. Normand, 
 K. Raghavachari, A. P. Rendell, J. C. Burant, S. S. Iyengar, 
 J. Tomasi, M. Cossi, J. M. Millam, M. Klene, C. Adamo, R. Cammi, 
 J. W. Ochterski, R. L. Martin, K. Morokuma, O. Farkas, 
 J. B. Foresman, and D. J. Fox, Gaussian, Inc., Wallingford CT, 2019.
 
 ******************************************
 Gaussian 16:  EM64L-G16RevC.01  3-Jul-2019
                21-Mar-2022 
 ******************************************
 %mem=64gb
 %nproc=8
 Will use up to    8 processors via shared memory.
 ----------------------------------------------------------------------
 #P TD(Nstates=10000) pw91pw91/Gen SCF(maxcycles=100) Int(Grid=ultrafin
 e)
 ----------------------------------------------------------------------
 1/38=1,172=1/1;
 2/12=2,17=6,18=5,40=1/2;
 3/5=7,11=9,25=1,30=1,74=608,75=-5/1,2,3,8;
 4//1;
 5/5=2,7=100,38=5/2;
 8/6=1,10=1,108=10000/1;
 9/41=10000,42=1,70=2/14;
 6/7=2,8=2,9=2,10=2/1;
 99/5=1,9=1/99;
 Leave Link    1 at Mon Mar 21 20:25:28 2022, MaxMem=  8589934592 cpu:               0.4 elap:               0.1
 (Enter /home/sabyasachi/g16/l101.exe)
 ---------------------
 xGDB7_00001_tier4.com
 ---------------------
 Symbolic Z-matrix:
 Charge =  0 Multiplicity = 1
 6                     0.92625  -0.71906   0. 
 6                     0.        0.45928   0. 
 8                    -1.197     0.38714   0. 
 1                     1.57597  -0.66868   0.8777 
 1                     1.57597  -0.66868  -0.8777 
 1                     0.36673  -1.65224   0. 
 1                     0.49981   1.45118   0. 
 
 ITRead=  0  0  0  0  0  0  0
 MicOpt= -1 -1 -1 -1 -1 -1 -1
 NAtoms=      7 NQM=        7 NQMF=       0 NMMI=      0 NMMIF=      0
                NMic=       0 NMicF=      0.
                    Isotopes and Nuclear Properties:
 (Nuclear quadrupole moments (NQMom) in fm**2, nuclear magnetic moments (NMagM)
  in nuclear magnetons)

  Atom         1           2           3           4           5           6           7
 IAtWgt=          12          12          16           1           1           1           1
 AtmWgt=  12.0000000  12.0000000  15.9949146   1.0078250   1.0078250   1.0078250   1.0078250
 NucSpn=           0           0           0           1           1           1           1
 AtZEff=  -0.0000000  -0.0000000  -0.0000000  -0.0000000  -0.0000000  -0.0000000  -0.0000000
 NQMom=    0.0000000   0.0000000   0.0000000   0.0000000   0.0000000   0.0000000   0.0000000
 NMagM=    0.0000000   0.0000000   0.0000000   2.7928460   2.7928460   2.7928460   2.7928460
 AtZNuc=   6.0000000   6.0000000   8.0000000   1.0000000   1.0000000   1.0000000   1.0000000
 Leave Link  101 at Mon Mar 21 20:25:28 2022, MaxMem=  8589934592 cpu:               0.6 elap:               0.1
 (Enter /home/sabyasachi/g16/l202.exe)
                          Input orientation:                          
 ---------------------------------------------------------------------
 Center     Atomic      Atomic             Coordinates (Angstroms)
 Number     Number       Type             X           Y           Z
 ---------------------------------------------------------------------
      1          6           0        0.926252   -0.719055    0.000000
      2          6           0        0.000000    0.459276    0.000000
      3          8           0       -1.196998    0.387135    0.000000
      4          1           0        1.575966   -0.668677    0.877698
      5          1           0        1.575966   -0.668677   -0.877698
      6          1           0        0.366734   -1.652236    0.000000
      7          1           0        0.499812    1.451182    0.000000
 ---------------------------------------------------------------------
                    Distance matrix (angstroms):
                    1          2          3          4          5
     1  C    0.000000
     2  C    1.498802   0.000000
     3  O    2.394128   1.199170   0.000000
     4  H    1.093170   2.127510   3.094256   0.000000
     5  H    1.093170   2.127510   3.094256   1.755396   0.000000
     6  H    1.088066   2.143123   2.569882   1.788850   1.788850
     7  H    2.211737   1.110716   2.002838   2.534218   2.534218
                    6          7
     6  H    0.000000
     7  H    3.106270   0.000000
 Stoichiometry    C2H4O
 Framework group  CS[SG(C2H2O),X(H2)]
 Deg. of freedom    10
 Full point group                 CS      NOp   2
 Largest Abelian subgroup         CS      NOp   2
 Largest concise Abelian subgroup CS      NOp   2
                         Standard orientation:                         
 ---------------------------------------------------------------------
 Center     Atomic      Atomic             Coordinates (Angstroms)
 Number     Number       Type             X           Y           Z
 ---------------------------------------------------------------------
      1          6           0        0.926251   -0.719055    0.000000
      2          6           0        0.000000    0.459276    0.000000
      3          8           0       -1.196998    0.387136    0.000000
      4          1           0        1.575965   -0.668678    0.877698
      5          1           0        1.575965   -0.668678   -0.877698
      6          1           0        0.366733   -1.652236    0.000000
      7          1           0        0.499813    1.451182    0.000000
 ---------------------------------------------------------------------
 Rotational constants (GHZ):          57.4985089          10.2267038           9.1717854
 Leave Link  202 at Mon Mar 21 20:25:28 2022, MaxMem=  8589934592 cpu:               0.1 elap:               0.0
 (Enter /home/sabyasachi/g16/l301.exe)
 General basis read from cards:  (5D, 7F)
 Centers:       4      5      6      7
 S 3 1.00
     Exponent=  1.3010701000D+01 Coefficients=  1.9682158000D-02
     Exponent=  1.9622572000D+00 Coefficients=  1.3796524000D-01
     Exponent=  4.4453796000D-01 Coefficients=  4.7831935000D-01
 S 1 1.00
     Exponent=  1.2194962000D-01 Coefficients=  1.0000000000D+00
 P 1 1.00
     Exponent=  8.0000000000D-01 Coefficients=  1.0000000000D+00
 P 1 1.00
     Exponent=  1.1704099050D-01 Coefficients=  1.0000000000D+00
 ****
 Centers:       1      2
 S 5 1.00
     Exponent=  1.2384016938D+03 Coefficients=  5.4568832082D-03
     Exponent=  1.8629004992D+02 Coefficients=  4.0638409211D-02
     Exponent=  4.2251176346D+01 Coefficients=  1.8025593888D-01
     Exponent=  1.1676557932D+01 Coefficients=  4.6315121755D-01
     Exponent=  3.5930506482D+00 Coefficients=  4.4087173314D-01
 S 1 1.00
     Exponent=  4.0245147363D-01 Coefficients=  1.0000000000D+00
 S 1 1.00
     Exponent=  1.3090182668D-01 Coefficients=  1.0000000000D+00
 S 1 1.00
     Exponent=  6.7053540256D-02 Coefficients=  1.0000000000D+00
 P 3 1.00
     Exponent=  9.4680970621D+00 Coefficients=  3.8387871728D-02
     Exponent=  2.0103545142D+00 Coefficients=  2.1117025112D-01
     Exponent=  5.4771004707D-01 Coefficients=  5.1328172114D-01
 P 1 1.00
     Exponent=  1.5268613795D-01 Coefficients=  1.0000000000D+00
 D 1 1.00
     Exponent=  8.0000000000D-01 Coefficients=  1.0000000000D+00
 D 1 1.00
     Exponent=  1.1713185140D-01 Coefficients=  1.0000000000D+00
 ****
 Centers:       3
 S 5 1.00
     Exponent=  2.2661767785D+03 Coefficients= -5.3431809926D-03
     Exponent=  3.4087010191D+02 Coefficients= -3.9890039230D-02
     Exponent=  7.7363135167D+01 Coefficients= -1.7853911985D-01
     Exponent=  2.1479644940D+01 Coefficients= -4.6427684959D-01
     Exponent=  6.6589433124D+00 Coefficients= -4.4309745172D-01
 S 1 1.00
     Exponent=  8.0975975668D-01 Coefficients=  1.0000000000D+00
 S 1 1.00
     Exponent=  2.5530772234D-01 Coefficients=  1.0000000000D+00
 S 1 1.00
     Exponent=  7.6572453250D-02 Coefficients=  1.0000000000D+00
 P 3 1.00
     Exponent=  1.7721504317D+01 Coefficients=  4.3394573193D-02
     Exponent=  3.8635505440D+00 Coefficients=  2.3094120765D-01
     Exponent=  1.0480920883D+00 Coefficients=  5.1375311064D-01
 P 1 1.00
     Exponent=  2.7641544411D-01 Coefficients=  1.0000000000D+00
 P 1 1.00
     Exponent=  6.9002276350D-02 Coefficients=  1.0000000000D+00
 D 1 1.00
     Exponent=  1.2000000000D+00 Coefficients=  1.0000000000D+00
 D 1 1.00
     Exponent=  1.7992024323D-01 Coefficients=  1.0000000000D+00
 ****
 Ernie: Thresh=  0.10000D-02 Tol=  0.10000D-05 Strict=F.
 There are    70 symmetry adapted cartesian basis functions of A'  symmetry.
 There are    31 symmetry adapted cartesian basis functions of A"  symmetry.
 There are    64 symmetry adapted basis functions of A'  symmetry.
 There are    31 symmetry adapted basis functions of A"  symmetry.
    95 basis functions,   139 primitive gaussians,   101 cartesian basis functions
    12 alpha electrons       12 beta electrons
       nuclear repulsion energy        69.9674668624 Hartrees.
 IExCor=  608 DFT=T Ex=PW91 Corr=PW91 ExCW=0 ScaHFX=  0.000000
 ScaDFX=  1.000000  1.000000  1.000000  1.000000 ScalE2=  1.000000  1.000000
 IRadAn=      5 IRanWt=     -1 IRanGd=            0 ICorTp=0 IEmpDi=  4
 NAtoms=    7 NActive=    7 NUniq=    6 SFac= 1.36D+00 NAtFMM=   60 NAOKFM=F Big=F
 Integral buffers will be    131072 words long.
 Regular integral format.
 Two-electron integral symmetry is turned on.
 Leave Link  301 at Mon Mar 21 20:25:28 2022, MaxMem=  8589934592 cpu:               0.6 elap:               0.1
 (Enter /home/sabyasachi/g16/l302.exe)
 NPDir=0 NMtPBC=     1 NCelOv=     1 NCel=       1 NClECP=     1 NCelD=      1
         NCelK=      1 NCelE2=     1 NClLst=     1 CellRange=     0.0.
 One-electron integrals computed using PRISM.
 One-electron integral symmetry used in STVInt
 NBasis=    95 RedAO= T EigKep=  2.98D-04  NBF=    64    31
 NBsUse=    95 1.00D-06 EigRej= -1.00D+00 NBFU=    64    31
 Precomputing XC quadrature grid using
 IXCGrd= 4 IRadAn=           5 IRanWt=          -1 IRanGd=           0 AccXCQ= 0.00D+00.
 Generated NRdTot=       0 NPtTot=           0 NUsed=           0 NTot=          32
 NSgBfM=   101   101   101   101   101 MxSgAt=     7 MxSgA2=     7.
 Leave Link  302 at Mon Mar 21 20:25:29 2022, MaxMem=  8589934592 cpu:               1.0 elap:               0.1
 (Enter /home/sabyasachi/g16/l303.exe)
 DipDrv:  MaxL=1.
 Leave Link  303 at Mon Mar 21 20:25:29 2022, MaxMem=  8589934592 cpu:               0.2 elap:               0.0
 (Enter /home/sabyasachi/g16/l308.exe)
 Leave Link  308 at Mon Mar 21 20:25:29 2022, MaxMem=  8589934592 cpu:               0.2 elap:               0.1
 (Enter /home/sabyasachi/g16/l401.exe)
 ExpMin= 6.71D-02 ExpMax= 2.27D+03 ExpMxC= 3.41D+02 IAcc=3 IRadAn=         5 AccDes= 0.00D+00
 Harris functional with IExCor=  608 and IRadAn=       5 diagonalized for initial guess.
 HarFok:  IExCor=  608 AccDes= 0.00D+00 IRadAn=         5 IDoV= 1 UseB2=F ITyADJ=14
 ICtDFT=  3500011 ScaDFX=  1.000000  1.000000  1.000000  1.000000
 FoFCou: FMM=F IPFlag=           0 FMFlag=      100000 FMFlg1=           0
         NFxFlg=           0 DoJE=T BraDBF=F KetDBF=T FulRan=T
         wScrn=  0.000000 ICntrl=       500 IOpCl=  0 I1Cent=   200000004 NGrid=           0
         NMat0=    1 NMatS0=      1 NMatT0=    0 NMatD0=    1 NMtDS0=    0 NMtDT0=    0
 Petite list used in FoFCou.
 Harris En= -153.737867323559    
 JPrj=0 DoOrth=F DoCkMO=F.
 Initial guess orbital symmetries:
       Occupied  (A') (A') (A') (A') (A') (A') (A') (A') (A") (A')
                 (A") (A')
       Virtual   (A") (A') (A') (A") (A') (A') (A') (A") (A') (A")
                 (A') (A') (A') (A") (A') (A") (A') (A') (A') (A")
                 (A') (A") (A') (A') (A') (A") (A') (A') (A") (A')
                 (A') (A") (A') (A') (A") (A") (A') (A') (A') (A")
                 (A') (A") (A') (A') (A') (A") (A') (A') (A") (A')
                 (A') (A') (A") (A') (A") (A') (A") (A") (A') (A")
                 (A') (A') (A') (A") (A') (A') (A") (A') (A') (A")
                 (A') (A') (A") (A') (A') (A') (A") (A") (A') (A')
                 (A") (A') (A')
 The electronic state of the initial guess is 1-A'.
 Leave Link  401 at Mon Mar 21 20:25:29 2022, MaxMem=  8589934592 cpu:               2.0 elap:               0.3
 (Enter /home/sabyasachi/g16/l502.exe)
 Keep J ints in memory in symmetry-blocked form, NReq=17823572.
 FoFCou: FMM=F IPFlag=           0 FMFlag=           0 FMFlg1=           0
         NFxFlg=           0 DoJE=F BraDBF=F KetDBF=F FulRan=T
         wScrn=  0.000000 ICntrl=       600 IOpCl=  0 I1Cent=           0 NGrid=           0
         NMat0=    1 NMatS0=   4560 NMatT0=    0 NMatD0=    1 NMtDS0=    0 NMtDT0=    0
 Petite list used in FoFCou.
 Closed shell SCF:
 Using DIIS extrapolation, IDIIS=  1040.
 NGot=  8589934592 LenX=  8584613300 LenY=  8584602658
 Requested convergence on RMS density matrix=1.00D-08 within 100 cycles.
 Requested convergence on MAX density matrix=1.00D-06.
 Requested convergence on             energy=1.00D-06.
 No special actions if energy rises.
 Integral accuracy reduced to 1.0D-05 until final iterations.

 Cycle   1  Pass 0  IDiag  1:
 E= -153.573079041527    
 DIIS: error= 3.02D-02 at cycle   1 NSaved=   1.
 NSaved= 1 IEnMin= 1 EnMin= -153.573079041527     IErMin= 1 ErrMin= 3.02D-02
 ErrMax= 3.02D-02  0.00D+00 EMaxC= 1.00D-01 BMatC= 9.69D-02 BMatP= 9.69D-02
 IDIUse=3 WtCom= 6.98D-01 WtEn= 3.02D-01
 Coeff-Com:  0.100D+01
 Coeff-En:   0.100D+01
 Coeff:      0.100D+01
 Gap=     0.077 Goal=   None    Shift=    0.000
 GapD=    0.077 DampG=0.500 DampE=0.500 DampFc=0.2500 IDamp=-1.
 Damping current iteration by 2.50D-01
 RMSDP=1.31D-02 MaxDP=3.69D-01              OVMax= 3.15D-01

 Cycle   2  Pass 0  IDiag  1:
 E= -153.602595296874     Delta-E=       -0.029516255347 Rises=F Damp=T
 DIIS: error= 1.37D-02 at cycle   2 NSaved=   2.
 NSaved= 2 IEnMin= 2 EnMin= -153.602595296874     IErMin= 2 ErrMin= 1.37D-02
 ErrMax= 1.37D-02  0.00D+00 EMaxC= 1.00D-01 BMatC= 1.04D-02 BMatP= 9.69D-02
 IDIUse=3 WtCom= 8.63D-01 WtEn= 1.37D-01
 Coeff-Com: -0.199D+00 0.120D+01
 Coeff-En:   0.120D+00 0.880D+00
 Coeff:     -0.155D+00 0.116D+01
 Gap=     0.136 Goal=   None    Shift=    0.000
 RMSDP=3.43D-03 MaxDP=7.35D-02 DE=-2.95D-02 OVMax= 2.35D-01

 Cycle   3  Pass 0  IDiag  1:
 E= -153.641295681258     Delta-E=       -0.038700384384 Rises=F Damp=F
 DIIS: error= 1.39D-02 at cycle   3 NSaved=   3.
 NSaved= 3 IEnMin= 3 EnMin= -153.641295681258     IErMin= 2 ErrMin= 1.37D-02
 ErrMax= 1.39D-02  0.00D+00 EMaxC= 1.00D-01 BMatC= 2.86D-02 BMatP= 1.04D-02
 IDIUse=2 WtCom= 0.00D+00 WtEn= 1.00D+00
 EnCoef did   100 forward-backward iterations
 Coeff-En:   0.438D-01 0.457D-03 0.956D+00
 Coeff:      0.438D-01 0.457D-03 0.956D+00
 Gap=     0.116 Goal=   None    Shift=    0.000
 RMSDP=5.71D-03 MaxDP=1.38D-01 DE=-3.87D-02 OVMax= 2.65D-01

 Cycle   4  Pass 0  IDiag  1:
 E= -153.467975396334     Delta-E=        0.173320284924 Rises=F Damp=F
 DIIS: error= 3.67D-02 at cycle   4 NSaved=   4.
 NSaved= 4 IEnMin= 3 EnMin= -153.641295681258     IErMin= 2 ErrMin= 1.37D-02
 ErrMax= 3.67D-02  0.00D+00 EMaxC= 1.00D-01 BMatC= 2.39D-01 BMatP= 1.04D-02
 IDIUse=2 WtCom= 0.00D+00 WtEn= 1.00D+00
 Coeff-En:   0.000D+00 0.000D+00 0.823D+00 0.177D+00
 Coeff:      0.000D+00 0.000D+00 0.823D+00 0.177D+00
 Gap=     0.135 Goal=   None    Shift=    0.000
 RMSDP=3.19D-03 MaxDP=8.25D-02 DE= 1.73D-01 OVMax= 1.53D-01

 Cycle   5  Pass 0  IDiag  1:
 E= -153.651687071610     Delta-E=       -0.183711675276 Rises=F Damp=F
 DIIS: error= 1.09D-02 at cycle   5 NSaved=   5.
 NSaved= 5 IEnMin= 5 EnMin= -153.651687071610     IErMin= 5 ErrMin= 1.09D-02
 ErrMax= 1.09D-02  0.00D+00 EMaxC= 1.00D-01 BMatC= 1.80D-02 BMatP= 1.04D-02
 IDIUse=2 WtCom= 0.00D+00 WtEn= 1.00D+00
 Coeff-En:   0.000D+00 0.000D+00 0.412D+00 0.000D+00 0.588D+00
 Coeff:      0.000D+00 0.000D+00 0.412D+00 0.000D+00 0.588D+00
 Gap=     0.147 Goal=   None    Shift=    0.000
 RMSDP=1.52D-03 MaxDP=3.85D-02 DE=-1.84D-01 OVMax= 5.00D-02

 Cycle   6  Pass 0  IDiag  1:
 E= -153.667945316272     Delta-E=       -0.016258244661 Rises=F Damp=F
 DIIS: error= 1.83D-03 at cycle   6 NSaved=   6.
 NSaved= 6 IEnMin= 6 EnMin= -153.667945316272     IErMin= 6 ErrMin= 1.83D-03
 ErrMax= 1.83D-03  0.00D+00 EMaxC= 1.00D-01 BMatC= 3.34D-04 BMatP= 1.04D-02
 IDIUse=3 WtCom= 9.82D-01 WtEn= 1.83D-02
 Coeff-Com: -0.163D-01 0.196D-01 0.127D+00-0.273D-01 0.313D+00 0.583D+00
 Coeff-En:   0.000D+00 0.000D+00 0.000D+00 0.000D+00 0.000D+00 0.100D+01
 Coeff:     -0.160D-01 0.192D-01 0.125D+00-0.268D-01 0.308D+00 0.591D+00
 Gap=     0.146 Goal=   None    Shift=    0.000
 RMSDP=2.22D-04 MaxDP=5.98D-03 DE=-1.63D-02 OVMax= 4.94D-03

 Cycle   7  Pass 0  IDiag  1:
 E= -153.668270843609     Delta-E=       -0.000325527337 Rises=F Damp=F
 DIIS: error= 1.40D-04 at cycle   7 NSaved=   7.
 NSaved= 7 IEnMin= 7 EnMin= -153.668270843609     IErMin= 7 ErrMin= 1.40D-04
 ErrMax= 1.40D-04  0.00D+00 EMaxC= 1.00D-01 BMatC= 2.78D-06 BMatP= 3.34D-04
 IDIUse=3 WtCom= 9.99D-01 WtEn= 1.40D-03
 Coeff-Com:  0.326D-02-0.779D-02 0.119D-01-0.376D-02 0.487D-01 0.207D+00
 Coeff-Com:  0.741D+00
 Coeff-En:   0.000D+00 0.000D+00 0.000D+00 0.000D+00 0.000D+00 0.000D+00
 Coeff-En:   0.100D+01
 Coeff:      0.326D-02-0.778D-02 0.119D-01-0.375D-02 0.487D-01 0.206D+00
 Coeff:      0.741D+00
 Gap=     0.146 Goal=   None    Shift=    0.000
 RMSDP=2.31D-05 MaxDP=2.88D-04 DE=-3.26D-04 OVMax= 4.69D-04

 Cycle   8  Pass 0  IDiag  1:
 E= -153.668273386806     Delta-E=       -0.000002543197 Rises=F Damp=F
 DIIS: error= 2.25D-05 at cycle   8 NSaved=   8.
 NSaved= 8 IEnMin= 8 EnMin= -153.668273386806     IErMin= 8 ErrMin= 2.25D-05
 ErrMax= 2.25D-05  0.00D+00 EMaxC= 1.00D-01 BMatC= 5.34D-08 BMatP= 2.78D-06
 IDIUse=1 WtCom= 1.00D+00 WtEn= 0.00D+00
 Coeff-Com:  0.157D-02-0.242D-02 0.552D-03-0.301D-03 0.491D-02 0.388D-01
 Coeff-Com:  0.181D+00 0.776D+00
 Coeff:      0.157D-02-0.242D-02 0.552D-03-0.301D-03 0.491D-02 0.388D-01
 Coeff:      0.181D+00 0.776D+00
 Gap=     0.146 Goal=   None    Shift=    0.000
 RMSDP=3.81D-06 MaxDP=4.79D-05 DE=-2.54D-06 OVMax= 7.67D-05

 Initial convergence to 1.0D-05 achieved.  Increase integral accuracy.
 Cycle   9  Pass 1  IDiag  1:
 E= -153.668276644323     Delta-E=       -0.000003257518 Rises=F Damp=F
 DIIS: error= 4.06D-06 at cycle   1 NSaved=   1.
 NSaved= 1 IEnMin= 1 EnMin= -153.668276644323     IErMin= 1 ErrMin= 4.06D-06
 ErrMax= 4.06D-06  0.00D+00 EMaxC= 1.00D-01 BMatC= 3.53D-09 BMatP= 3.53D-09
 IDIUse=1 WtCom= 1.00D+00 WtEn= 0.00D+00
 Coeff-Com:  0.100D+01
 Coeff:      0.100D+01
 Gap=     0.146 Goal=   None    Shift=    0.000
 RMSDP=3.81D-06 MaxDP=4.79D-05 DE=-3.26D-06 OVMax= 5.60D-05

 Cycle  10  Pass 1  IDiag  1:
 E= -153.668276637342     Delta-E=        0.000000006981 Rises=F Damp=F
 DIIS: error= 9.65D-06 at cycle   2 NSaved=   2.
 NSaved= 2 IEnMin= 1 EnMin= -153.668276644323     IErMin= 1 ErrMin= 4.06D-06
 ErrMax= 9.65D-06  0.00D+00 EMaxC= 1.00D-01 BMatC= 1.41D-08 BMatP= 3.53D-09
 IDIUse=1 WtCom= 1.00D+00 WtEn= 0.00D+00
 Coeff-Com:  0.686D+00 0.314D+00
 Coeff:      0.686D+00 0.314D+00
 Gap=     0.146 Goal=   None    Shift=    0.000
 RMSDP=1.06D-06 MaxDP=3.53D-05 DE= 6.98D-09 OVMax= 5.38D-05

 Cycle  11  Pass 1  IDiag  1:
 E= -153.668276647641     Delta-E=       -0.000000010298 Rises=F Damp=F
 DIIS: error= 2.86D-06 at cycle   3 NSaved=   3.
 NSaved= 3 IEnMin= 3 EnMin= -153.668276647641     IErMin= 3 ErrMin= 2.86D-06
 ErrMax= 2.86D-06  0.00D+00 EMaxC= 1.00D-01 BMatC= 1.01D-09 BMatP= 3.53D-09
 IDIUse=1 WtCom= 1.00D+00 WtEn= 0.00D+00
 Coeff-Com:  0.240D+00 0.213D+00 0.547D+00
 Coeff:      0.240D+00 0.213D+00 0.547D+00
 Gap=     0.146 Goal=   None    Shift=    0.000
 RMSDP=4.14D-07 MaxDP=8.73D-06 DE=-1.03D-08 OVMax= 1.53D-05

 Cycle  12  Pass 1  IDiag  1:
 E= -153.668276648433     Delta-E=       -0.000000000792 Rises=F Damp=F
 DIIS: error= 7.55D-07 at cycle   4 NSaved=   4.
 NSaved= 4 IEnMin= 4 EnMin= -153.668276648433     IErMin= 4 ErrMin= 7.55D-07
 ErrMax= 7.55D-07  0.00D+00 EMaxC= 1.00D-01 BMatC= 8.30D-11 BMatP= 1.01D-09
 IDIUse=1 WtCom= 1.00D+00 WtEn= 0.00D+00
 Coeff-Com:  0.258D-01 0.612D-01 0.297D+00 0.616D+00
 Coeff:      0.258D-01 0.612D-01 0.297D+00 0.616D+00
 Gap=     0.146 Goal=   None    Shift=    0.000
 RMSDP=1.33D-07 MaxDP=2.35D-06 DE=-7.92D-10 OVMax= 3.09D-06

 Cycle  13  Pass 1  IDiag  1:
 E= -153.668276648507     Delta-E=       -0.000000000075 Rises=F Damp=F
 DIIS: error= 2.28D-07 at cycle   5 NSaved=   5.
 NSaved= 5 IEnMin= 5 EnMin= -153.668276648507     IErMin= 5 ErrMin= 2.28D-07
 ErrMax= 2.28D-07  0.00D+00 EMaxC= 1.00D-01 BMatC= 4.93D-12 BMatP= 8.30D-11
 IDIUse=1 WtCom= 1.00D+00 WtEn= 0.00D+00
 Coeff-Com: -0.428D-03 0.184D-01 0.121D+00 0.320D+00 0.541D+00
 Coeff:     -0.428D-03 0.184D-01 0.121D+00 0.320D+00 0.541D+00
 Gap=     0.146 Goal=   None    Shift=    0.000
 RMSDP=3.77D-08 MaxDP=4.81D-07 DE=-7.49D-11 OVMax= 7.00D-07

 Cycle  14  Pass 1  IDiag  1:
 E= -153.668276648512     Delta-E=       -0.000000000005 Rises=F Damp=F
 DIIS: error= 1.76D-08 at cycle   6 NSaved=   6.
 NSaved= 6 IEnMin= 6 EnMin= -153.668276648512     IErMin= 6 ErrMin= 1.76D-08
 ErrMax= 1.76D-08  0.00D+00 EMaxC= 1.00D-01 BMatC= 4.94D-14 BMatP= 4.93D-12
 IDIUse=1 WtCom= 1.00D+00 WtEn= 0.00D+00
 Coeff-Com: -0.352D-03 0.684D-02 0.428D-01 0.119D+00 0.209D+00 0.623D+00
 Coeff:     -0.352D-03 0.684D-02 0.428D-01 0.119D+00 0.209D+00 0.623D+00
 Gap=     0.146 Goal=   None    Shift=    0.000
 RMSDP=3.91D-09 MaxDP=6.90D-08 DE=-4.97D-12 OVMax= 8.43D-08

 SCF Done:  E(RPW91-PW91) =  -153.668276649     A.U. after   14 cycles
            NFock= 14  Conv=0.39D-08     -V/T= 2.0097
 KE= 1.521887937164D+02 PE=-4.984772583799D+02 EE= 1.226527211526D+02
 Leave Link  502 at Mon Mar 21 20:25:30 2022, MaxMem=  8589934592 cpu:              11.5 elap:               1.5
 (Enter /home/sabyasachi/g16/l801.exe)
 DoSCS=F DFT=T ScalE2(SS,OS)=  1.000000  1.000000
 ExpMin= 6.71D-02 ExpMax= 2.27D+03 ExpMxC= 3.41D+02 IAcc=3 IRadAn=         5 AccDes= 0.00D+00
 HarFok:  IExCor=  205 AccDes= 0.00D+00 IRadAn=         5 IDoV=-2 UseB2=F ITyADJ=14
 ICtDFT= 12500011 ScaDFX=  1.000000  1.000000  1.000000  1.000000
 Largest valence mixing into a core orbital is  6.48D-05
 Largest core mixing into a valence orbital is  1.24D-05
 Range of M.O.s used for correlation:     4    95
 NBasis=    95 NAE=    12 NBE=    12 NFC=     3 NFV=     0
 NROrb=     92 NOA=     9 NOB=     9 NVA=    83 NVB=    83

 **** Warning!!: The largest alpha MO coefficient is  0.29581992D+02

 Leave Link  801 at Mon Mar 21 20:25:31 2022, MaxMem=  8589934592 cpu:               0.5 elap:               0.1
 (Enter /home/sabyasachi/g16/l914.exe)
 RHF ground state
 Keep J ints in memory in symmetry-blocked form, NReq=638129584.
 FoFCou: FMM=F IPFlag=           0 FMFlag=           0 FMFlg1=           0
         NFxFlg=           0 DoJE=F BraDBF=F KetDBF=F FulRan=T
         wScrn=  0.000000 ICntrl=       600 IOpCl=  0 I1Cent=           0 NGrid=           0
         NMat0=    1 NMatS0=   4560 NMatT0=    0 NMatD0=    1 NMtDS0=    0 NMtDT0=    0
 Petite list used in FoFCou.
 MDV=  8589934592 DFT=T DoStab=F Mixed=F DoRPA=T DoScal=T NonHer=F
 Making orbital integer symmetry assigments:
 Orbital symmetries:
       Occupied  (A') (A') (A') (A') (A') (A') (A') (A") (A') (A')
                 (A") (A')
       Virtual   (A") (A') (A') (A") (A') (A') (A") (A') (A') (A")
                 (A') (A') (A') (A") (A") (A') (A') (A') (A") (A')
                 (A") (A') (A') (A') (A') (A") (A') (A") (A') (A')
                 (A') (A") (A') (A") (A') (A") (A') (A') (A') (A")
                 (A") (A') (A') (A') (A') (A") (A') (A') (A") (A')
                 (A') (A') (A") (A") (A') (A') (A") (A") (A') (A")
                 (A') (A') (A') (A") (A') (A') (A") (A') (A') (A")
                 (A') (A') (A") (A') (A') (A') (A") (A') (A") (A')
                 (A") (A') (A')
   747 initial guesses have been made.
 Convergence on wavefunction:    0.001000000000000
 Davidson Disk Diagonalization:  ConvIn= 1.00D-03 SkipCon=T Conv= 1.00D-03.
 Max sub-space:  2988 roots to seek:  1494 dimension of matrix:         1494
 *** WARNING: Number of orthogonal guesses is          747
 Iteration     1 Dimension   747 NMult     0 NNew    747
 CISAX will form   747 AO SS matrices at one time.
 NMat=   747 NSing=   747 JSym2X=-1.
 New state      4 was old state      5
 New state      5 was old state      6
 New state      6 was old state      7
 New state      7 was old state      8
 New state      8 was old state      9
 New state      9 was old state      4
 New state     11 was old state     12
 New state     12 was old state     11
 New state     13 was old state     14
 New state     14 was old state     15
 New state     15 was old state     16
 New state     16 was old state     18
 New state     18 was old state     19
 New state     19 was old state     21
 New state     21 was old state     22
 New state     22 was old state     23
 New state     23 was old state     24
 New state     24 was old state     25
 New state     25 was old state     13
 New state     28 was old state     29
 New state     29 was old state     28
 New state     31 was old state     33
 New state     33 was old state     36
 New state     34 was old state     35
 New state     35 was old state     31
 New state     36 was old state     34
 New state     37 was old state     38
 New state     38 was old state     40
 New state     39 was old state     42
 New state     40 was old state     41
 New state     41 was old state     39
 New state     42 was old state     43
 New state     43 was old state     44
 New state     44 was old state     47
 New state     45 was old state     37
 New state     46 was old state     48
 New state     47 was old state     50
 New state     48 was old state     49
 New state     49 was old state     45
 New state     50 was old state     52
 New state     51 was old state     54
 New state     52 was old state     51
 New state     53 was old state     58
 New state     54 was old state     55
 New state     55 was old state     56
 New state     56 was old state     53
 New state     58 was old state     62
 New state     59 was old state     60
 New state     60 was old state     59
 New state     62 was old state     63
 New state     63 was old state     64
 New state     64 was old state     68
 New state     65 was old state     67
 New state     66 was old state     69
 New state     67 was old state     71
 New state     68 was old state     66
 New state     69 was old state     73
 New state     70 was old state     74
 New state     71 was old state     72
 New state     72 was old state     70
 New state     73 was old state     75
 New state     74 was old state     76
 New state     75 was old state     77
 New state     76 was old state     65
 New state     77 was old state     79
 New state     79 was old state     80
 New state     80 was old state     83
 New state     81 was old state     82
 New state     82 was old state     88
 New state     83 was old state     84
 New state     84 was old state     81
 New state     85 was old state     87
 New state     87 was old state     85
 New state     88 was old state     90
 New state     90 was old state     91
 New state     91 was old state     92
 New state     92 was old state     95
 New state     93 was old state     96
 New state     94 was old state     93
 New state     95 was old state     94
 New state     96 was old state     97
 New state     97 was old state     99
 New state     98 was old state    100
 New state     99 was old state    101
 New state    100 was old state     98
 New state    101 was old state    102
 New state    102 was old state    106
 New state    103 was old state    104
 New state    104 was old state    103
 New state    105 was old state    107
 New state    106 was old state    108
 New state    107 was old state    109
 New state    108 was old state    105
 New state    109 was old state    110
 New state    110 was old state    112
 New state    112 was old state    114
 New state    114 was old state    117
 New state    117 was old state    118
 New state    118 was old state    119
 New state    119 was old state    120
 New state    120 was old state    127
 New state    122 was old state    123
 New state    123 was old state    122
 New state    124 was old state    125
 New state    125 was old state    128
 New state    126 was old state    130
 New state    127 was old state    126
 New state    128 was old state    124
 New state    129 was old state    159
 New state    130 was old state    132
 New state    131 was old state    129
 New state    132 was old state    135
 New state    133 was old state    131
 New state    134 was old state    133
 New state    135 was old state    139
 New state    136 was old state    138
 New state    137 was old state    140
 New state    138 was old state    137
 New state    139 was old state    134
 New state    140 was old state    136
 New state    141 was old state    143
 New state    142 was old state    141
 New state    143 was old state    142
 New state    146 was old state    148
 New state    147 was old state    146
 New state    148 was old state    150
 New state    150 was old state    147
 New state    151 was old state    155
 New state    152 was old state    151
 New state    155 was old state    157
 New state    157 was old state    152
 New state    158 was old state    160
 New state    159 was old state    161
 New state    160 was old state    164
 New state    161 was old state    165
 New state    162 was old state    166
 New state    163 was old state    162
 New state    164 was old state    158
 New state    165 was old state    163
 New state    166 was old state    169
 New state    167 was old state    168
 New state    168 was old state    167
 New state    169 was old state    171
 New state    170 was old state    172
 New state    171 was old state    170
 New state    172 was old state    174
 New state    173 was old state    176
 New state    174 was old state    173
 New state    175 was old state    181
 New state    176 was old state    175
 New state    177 was old state    180
 New state    179 was old state    177
 New state    180 was old state    183
 New state    181 was old state    179
 New state    182 was old state    184
 New state    183 was old state    182
 New state    184 was old state    185
 New state    185 was old state    187
 New state    186 was old state    189
 New state    187 was old state    188
 New state    188 was old state    186
 New state    189 was old state    190
 New state    190 was old state    191
 New state    191 was old state    193
 New state    192 was old state    197
 New state    193 was old state    194
 New state    194 was old state    195
 New state    195 was old state    196
 New state    196 was old state    192
 New state    197 was old state    200
 New state    198 was old state    199
 New state    199 was old state    201
 New state    200 was old state    202
 New state    201 was old state    203
 New state    202 was old state    207
 New state    203 was old state    205
 New state    205 was old state    208
 New state    206 was old state    209
 New state    207 was old state    206
 New state    208 was old state    213
 New state    209 was old state    212
 New state    212 was old state    214
 New state    213 was old state    217
 New state    214 was old state    218
 New state    215 was old state    219
 New state    217 was old state    220
 New state    218 was old state    222
 New state    219 was old state    223
 New state    220 was old state    221
 New state    221 was old state    215
 New state    222 was old state    226
 New state    223 was old state    225
 New state    225 was old state    229
 New state    226 was old state    227
 New state    227 was old state    231
 New state    228 was old state    230
 New state    229 was old state    233
 New state    230 was old state    236
 New state    231 was old state    234
 New state    232 was old state    228
 New state    233 was old state    235
 New state    234 was old state    237
 New state    235 was old state    240
 New state    236 was old state    241
 New state    237 was old state    232
 New state    238 was old state    239
 New state    239 was old state    238
 New state    240 was old state    243
 New state    241 was old state    244
 New state    242 was old state    245
 New state    243 was old state    247
 New state    244 was old state    246
 New state    245 was old state    248
 New state    246 was old state    249
 New state    247 was old state    256
 New state    248 was old state    250
 New state    249 was old state    254
 New state    250 was old state    251
 New state    251 was old state    253
 New state    253 was old state    242
 New state    254 was old state    255
 New state    255 was old state    257
 New state    256 was old state    258
 New state    257 was old state    260
 New state    258 was old state    259
 New state    259 was old state    261
 New state    260 was old state    271
 New state    261 was old state    263
 New state    262 was old state    265
 New state    263 was old state    266
 New state    265 was old state    267
 New state    266 was old state    270
 New state    267 was old state    269
 New state    269 was old state    272
 New state    270 was old state    279
 New state    271 was old state    262
 New state    272 was old state    273
 New state    273 was old state    274
 New state    274 was old state    277
 New state    277 was old state    283
 New state    279 was old state    282
 New state    280 was old state    281
 New state    281 was old state    280
 New state    282 was old state    286
 New state    283 was old state    287
 New state    285 was old state    288
 New state    286 was old state    285
 New state    287 was old state    291
 New state    288 was old state    297
 New state    291 was old state    294
 New state    294 was old state    295
 New state    295 was old state    298
 New state    297 was old state    299
 New state    298 was old state    302
 New state    299 was old state    301
 New state    301 was old state    303
 New state    302 was old state    307
 New state    303 was old state    304
 New state    304 was old state    305
 New state    305 was old state    306
 New state    306 was old state    308
 New state    307 was old state    313
 New state    308 was old state    309
 New state    309 was old state    310
 New state    310 was old state    311
 New state    311 was old state    315
 New state    313 was old state    314
 New state    314 was old state    320
 New state    315 was old state    316
 New state    316 was old state    318
 New state    318 was old state    319
 New state    319 was old state    323
 New state    320 was old state    322
 New state    321 was old state    326
 New state    322 was old state    321
 New state    323 was old state    331
 New state    325 was old state    328
 New state    326 was old state    325
 New state    327 was old state    329
 New state    328 was old state    327
 New state    329 was old state    330
 New state    330 was old state    336
 New state    331 was old state    338
 New state    336 was old state    337
 New state    337 was old state    339
 New state    338 was old state    340
 No map to state    339
 New state    340 was old state    341
 New state    341 was old state    343
 New state    343 was old state    350
 New state    344 was old state    346
 New state    345 was old state    347
 New state    346 was old state    344
 New state    347 was old state    348
 New state    348 was old state    345
 New state    350 was old state    351
 New state    351 was old state    352
 New state    352 was old state    353
 New state    353 was old state    354
 New state    354 was old state    355
 New state    355 was old state    356
 New state    356 was old state    357
 New state    357 was old state    362
 New state    362 was old state    363
 New state    363 was old state    364
 New state    364 was old state    367
 New state    365 was old state    366
 New state    366 was old state    368
 New state    367 was old state    369
 New state    368 was old state    365
 New state    369 was old state    370
 New state    370 was old state    371
 New state    371 was old state    380
 New state    373 was old state    374
 New state    374 was old state    373
 New state    376 was old state    379
 New state    377 was old state    378
 New state    378 was old state    381
 New state    379 was old state    376
 New state    380 was old state    377
 New state    381 was old state    383
 New state    383 was old state    385
 New state    384 was old state    387
 New state    385 was old state    384
 New state    386 was old state    388
 New state    387 was old state    386
 New state    388 was old state    390
 New state    389 was old state    391
 No map to state    390
 New state    391 was old state    392
 New state    392 was old state    394
 New state    394 was old state    398
 New state    395 was old state    397
 New state    396 was old state    399
 New state    397 was old state    395
 New state    398 was old state    396
 New state    399 was old state    401
 New state    401 was old state    405
 New state    402 was old state    403
 New state    403 was old state    404
 New state    404 was old state    402
 New state    405 was old state    409
 New state    407 was old state    408
 New state    408 was old state    411
 New state    409 was old state    412
 New state    411 was old state    414
 New state    412 was old state    407
 New state    414 was old state    415
 New state    415 was old state    417
 New state    416 was old state    423
 New state    417 was old state    416
 New state    418 was old state    419
 New state    419 was old state    418
 New state    420 was old state    421
 New state    421 was old state    422
 New state    422 was old state    425
 New state    423 was old state    424
 New state    424 was old state    426
 New state    425 was old state    427
 New state    426 was old state    429
 New state    427 was old state    428
 New state    428 was old state    430
 New state    429 was old state    431
 New state    430 was old state    433
 New state    431 was old state    420
 New state    433 was old state    434
 New state    434 was old state    436
 New state    435 was old state    437
 New state    436 was old state    435
 New state    437 was old state    439
 New state    438 was old state    441
 New state    439 was old state    440
 New state    440 was old state    438
 New state    441 was old state    442
 New state    442 was old state    443
 New state    443 was old state    444
 New state    444 was old state    451
 New state    447 was old state    448
 New state    448 was old state    447
 New state    449 was old state    450
 New state    450 was old state    449
 New state    451 was old state    452
 New state    452 was old state    453
 New state    453 was old state    454
 New state    454 was old state    455
 New state    455 was old state    457
 New state    456 was old state    462
 New state    457 was old state    456
 New state    462 was old state    465
 New state    464 was old state    466
 New state    465 was old state    464
 New state    466 was old state    467
 New state    467 was old state    475
 New state    468 was old state    469
 New state    469 was old state    468
 New state    472 was old state    474
 New state    474 was old state    476
 New state    475 was old state    472
 New state    476 was old state    479
 New state    477 was old state    478
 New state    478 was old state    477
 New state    479 was old state    482
 New state    481 was old state    483
 New state    482 was old state    481
 New state    483 was old state    484
 New state    484 was old state    486
 New state    486 was old state    487
 New state    487 was old state    489
 New state    489 was old state    490
 New state    490 was old state    492
 New state    492 was old state    493
 New state    493 was old state    494
 New state    494 was old state    497
 New state    495 was old state    496
 New state    496 was old state    498
 New state    497 was old state    499
 New state    498 was old state    501
 New state    499 was old state    495
 New state    500 was old state    503
 New state    501 was old state    500
 New state    503 was old state    506
 New state    504 was old state    507
 New state    506 was old state    504
 New state    507 was old state    508
 New state    508 was old state    509
 New state    509 was old state    510
 New state    510 was old state    511
 New state    511 was old state    512
 New state    512 was old state    513
 New state    513 was old state    516
 New state    514 was old state    515
 New state    515 was old state    514
 New state    516 was old state    517
 New state    517 was old state    518
 New state    518 was old state    520
 New state    520 was old state    521
 New state    521 was old state    522
 New state    522 was old state    523
 New state    523 was old state    527
 New state    527 was old state    528
 New state    528 was old state    529
 New state    529 was old state    530
 New state    530 was old state    531
 New state    531 was old state    536
 New state    532 was old state    535
 New state    533 was old state    534
 New state    534 was old state    533
 New state    535 was old state    538
 New state    536 was old state    532
 New state    538 was old state    539
 New state    539 was old state    543
 New state    541 was old state    542
 New state    542 was old state    541
 New state    543 was old state    544
 New state    544 was old state    545
 New state    545 was old state    546
 New state    546 was old state    547
 New state    547 was old state    548
 New state    548 was old state    552
 New state    552 was old state    553
 New state    553 was old state    554
 New state    554 was old state    555
 New state    555 was old state    560
 New state    558 was old state    559
 New state    559 was old state    562
 New state    560 was old state    558
 New state    562 was old state    564
 New state    564 was old state    566
 New state    566 was old state    568
 New state    568 was old state    569
 New state    569 was old state    570
 New state    570 was old state    571
 New state    571 was old state    572
 New state    572 was old state    574
 New state    574 was old state    579
 New state    577 was old state    578
 New state    578 was old state    580
 New state    579 was old state    577
 New state    580 was old state    583
 New state    583 was old state    584
 New state    584 was old state    586
 New state    586 was old state    589
 New state    588 was old state    590
 New state    589 was old state    588
 New state    590 was old state    591
 New state    591 was old state    592
 New state    592 was old state    593
 New state    593 was old state    594
 No map to state    594
 New state    595 was old state    597
 New state    596 was old state    595
 New state    597 was old state    596
 New state    600 was old state    602
 New state    601 was old state    600
 New state    602 was old state    601
 New state    604 was old state    605
 New state    605 was old state    604
 New state    609 was old state    610
 New state    610 was old state    609
 New state    613 was old state    614
 New state    614 was old state    613
 New state    617 was old state    618
 New state    618 was old state    617
 New state    620 was old state    622
 New state    622 was old state    620
 New state    625 was old state    626
 New state    626 was old state    625
 New state    631 was old state    632
 New state    632 was old state    633
 New state    633 was old state    634
 New state    634 was old state    637
 New state    636 was old state    631
 New state    637 was old state    638
 New state    638 was old state    639
 New state    639 was old state    640
 New state    640 was old state    641
 New state    641 was old state    636
 New state    642 was old state    643
 New state    643 was old state    642
 New state    645 was old state    646
 New state    646 was old state    647
 New state    647 was old state    645
 New state    649 was old state    650
 New state    650 was old state    652
 New state    651 was old state    653
 New state    652 was old state    651
 New state    653 was old state    649
 New state    656 was old state    657
 New state    657 was old state    656
 New state    658 was old state    659
 New state    659 was old state    660
 New state    660 was old state    661
 New state    661 was old state    662
 New state    662 was old state    666
 New state    666 was old state    667
 New state    667 was old state    668
 New state    668 was old state    658
 New state    670 was old state    671
 New state    671 was old state    672
 New state    672 was old state    675
 New state    674 was old state    677
 New state    675 was old state    674
 New state    677 was old state    678
 New state    678 was old state    680
 New state    680 was old state    681
 New state    681 was old state    682
 New state    682 was old state    683
 New state    683 was old state    684
 New state    684 was old state    685
 New state    685 was old state    687
 New state    686 was old state    692
 New state    687 was old state    689
 New state    688 was old state    686
 New state    689 was old state    688
 New state    692 was old state    693
 New state    693 was old state    694
 New state    694 was old state    696
 New state    695 was old state    699
 New state    696 was old state    695
 New state    697 was old state    698
 New state    698 was old state    697
 New state    699 was old state    700
 New state    700 was old state    702
 New state    702 was old state    670
 New state    705 was old state    707
 New state    706 was old state    705
 New state    707 was old state    706
 New state    708 was old state    710
 New state    710 was old state    708
 New state    714 was old state    716
 New state    716 was old state    717
 New state    717 was old state    714
 New state    718 was old state    720
 New state    720 was old state    718
 New state    722 was old state    723
 New state    723 was old state    722
 New state    727 was old state    729
 New state    729 was old state    727
 New state    734 was old state    735
 New state    735 was old state    734
 New state    739 was old state    740
 New state    740 was old state    741
 New state    741 was old state    742
 New state    742 was old state    743
 New state    743 was old state    739
 Excitation Energies [eV] at current iteration:
 Root      1 :     4.219707619030638
 Root      2 :     6.081004223911351
 Root      3 :     6.817944419969132
 Root      4 :     7.681995456497823
 Root      5 :     7.896248522362332
 Root      6 :     7.912082843364658
 Root      7 :     8.191533178968568
 Root      8 :     8.553349465007733
 Root      9 :     8.565186490911652
 Root     10 :     8.666891249991748
 Root     11 :     9.088535120965176
 Root     12 :     9.102733973034971
 Root     13 :     9.246697926354047
 Root     14 :     9.744482312664296
 Root     15 :     9.849606637462106
 Root     16 :     9.962487846250987
 Root     17 :    10.123709011786580
 Root     18 :    10.289536149039300
 Root     19 :    10.539100933556850
 Root     20 :    10.621665163439790
 Root     21 :    10.681127676421940
 Root     22 :    10.843518332694850
 Root     23 :    10.961042368395390
 Root     24 :    11.068202606324710
 Root     25 :    11.108864041009320
 Root     26 :    11.271913563104870
 Root     27 :    11.365328856776310
 Root     28 :    11.502540707863100
 Root     29 :    11.503542047309310
 Root     30 :    11.697450401164820
 Root     31 :    11.875444833061120
 Root     32 :    11.904782872671310
 Root     33 :    11.920548959933790
 Root     34 :    11.927252443432820
 Root     35 :    11.982676525977030
 Root     36 :    12.186612351915190
 Root     37 :    12.310959804169960
 Root     38 :    12.388829415557390
 Root     39 :    12.424011835914290
 Root     40 :    12.468705497240890
 Root     41 :    12.469631030607770
 Root     42 :    12.611652030158640
 Root     43 :    12.648973945938540
 Root     44 :    12.866887748530010
 Root     45 :    12.876391649223700
 Root     46 :    12.896375406280810
 Root     47 :    12.977018876531130
 Root     48 :    13.039147497021830
 Root     49 :    13.076859611740260
 Root     50 :    13.287415297735690
 Root     51 :    13.308963491789210
 Root     52 :    13.344531410935210
 Root     53 :    13.450044848965370
 Root     54 :    13.485348517864910
 Root     55 :    13.565799893796680
 Root     56 :    13.577003780690960
 Root     57 :    13.589364755202800
 Root     58 :    13.766811227111660
 Root     59 :    13.773851835550940
 Root     60 :    13.890411718151060
 Root     61 :    13.918801777553250
 Root     62 :    13.930436319139720
 Root     63 :    14.079852517924750
 Root     64 :    14.225105305777870
 Root     65 :    14.262418518420550
 Root     66 :    14.272579899108200
 Root     67 :    14.319384474101700
 Root     68 :    14.355717224426600
 Root     69 :    14.403850346788110
 Root     70 :    14.452132961107810
 Root     71 :    14.467579704137550
 Root     72 :    14.550358909565650
 Root     73 :    14.607781579048650
 Root     74 :    14.654777281967840
 Root     75 :    14.731222457454010
 Root     76 :    14.926539201678220
 Root     77 :    14.945366057202700
 Root     78 :    14.998868302851360
 Root     79 :    15.101127090126510
 Root     80 :    15.170627741058550
 Root     81 :    15.313255032026170
 Root     82 :    15.407130312813310
 Root     83 :    15.440908494346780
 Root     84 :    15.496146140690230
 Root     85 :    15.600748046679420
 Root     86 :    15.621325102048480
 Root     87 :    15.689282172886990
 Root     88 :    15.723826132594030
 Root     89 :    15.785251035179580
 Root     90 :    15.830470110528350
 Root     91 :    15.956247472359730
 Root     92 :    15.985279344134010
 Root     93 :    16.059570384997300
 Root     94 :    16.159816790663330
 Root     95 :    16.182479718700380
 Root     96 :    16.234495891034680
 Root     97 :    16.269734247307260
 Root     98 :    16.434357194966620
 Root     99 :    16.477357637967850
 Root    100 :    16.485904582110970
 Root    101 :    16.613992662439960
 Root    102 :    16.641682895046490
 Root    103 :    16.644641498216280
 Root    104 :    16.738630297816390
 Root    105 :    16.833540438251560
 Root    106 :    16.855104413412240
 Root    107 :    16.962062942971280
 Root    108 :    17.113024334644270
 Root    109 :    17.115411908925460
 Root    110 :    17.158651871151190
 Root    111 :    17.162748586304170
 Root    112 :    17.312121632984480
 Root    113 :    17.313356394167680
 Root    114 :    17.388017010532790
 Root    115 :    17.506038392599450
 Root    116 :    17.527998358354710
 Root    117 :    17.621277171648280
 Root    118 :    17.645710881395710
 Root    119 :    17.669544561065620
 Root    120 :    17.742240897545320
 Root    121 :    17.837367985225350
 Root    122 :    17.991678225559450
 Root    123 :    18.007836121537090
 Root    124 :    18.073614963514230
 Root    125 :    18.076187905905440
 Root    126 :    18.138679015452360
 Root    127 :    18.157568730261410
 Root    128 :    18.191626409361390
 Root    129 :    18.264689635867130
 Root    130 :    18.329743355555670
 Root    131 :    18.414138451842380
 Root    132 :    18.499331576128320
 Root    133 :    18.550522231750590
 Root    134 :    18.615841879457670
 Root    135 :    18.656558366470080
 Root    136 :    18.676481065410300
 Root    137 :    18.698752908807780
 Root    138 :    18.759504717029100
 Root    139 :    18.845741739204880
 Root    140 :    18.856351074793470
 Root    141 :    19.000036097336410
 Root    142 :    19.002674152854040
 Root    143 :    19.013374397448720
 Root    144 :    19.140933576961390
 Root    145 :    19.277123030108110
 Root    146 :    19.289874334595740
 Root    147 :    19.358482989590390
 Root    148 :    19.449946244958910
 Root    149 :    19.490415609117300
 Root    150 :    19.517036217558490
 Root    151 :    19.566230227977630
 Root    152 :    19.569502696995660
 Root    153 :    19.591185845475100
 Root    154 :    19.680224316491220
 Root    155 :    19.722112143589640
 Root    156 :    19.830041453964980
 Root    157 :    19.941493800814770
 Root    158 :    20.041184002755100
 Root    159 :    20.136880027925110
 Root    160 :    20.163248046323350
 Root    161 :    20.185510246996850
 Root    162 :    20.203172901800750
 Root    163 :    20.236754799512830
 Root    164 :    20.255915210851600
 Root    165 :    20.266254405564480
 Root    166 :    20.270336857958630
 Root    167 :    20.310535300518650
 Root    168 :    20.404858082125720
 Root    169 :    20.442170057238760
 Root    170 :    20.525891110986380
 Root    171 :    20.547996514432830
 Root    172 :    20.554201853946970
 Root    173 :    20.645851515078980
 Root    174 :    20.670858600577590
 Root    175 :    20.715624662771880
 Root    176 :    20.731723594390950
 Root    177 :    20.785429833273120
 Root    178 :    20.849059365526550
 Root    179 :    20.859033881988640
 Root    180 :    20.997088468269280
 Root    181 :    21.006653282755600
 Root    182 :    21.054616327809610
 Root    183 :    21.108236991392270
 Root    184 :    21.176362758944070
 Root    185 :    21.225295763817800
 Root    186 :    21.248859505403210
 Root    187 :    21.275475960443700
 Root    188 :    21.342455036622330
 Root    189 :    21.358868478384640
 Root    190 :    21.394044652007910
 Root    191 :    21.443536511911440
 Root    192 :    21.469440333966540
 Root    193 :    21.557813543213840
 Root    194 :    21.638598549456750
 Root    195 :    21.678258806021550
 Root    196 :    21.713942698313520
 Root    197 :    21.788892006354410
 Root    198 :    21.821183565063250
 Root    199 :    21.897782916270100
 Root    200 :    21.938979712973680
 Root    201 :    22.047886690329570
 Root    202 :    22.117884873290760
 Root    203 :    22.204295390331100
 Root    204 :    22.271368156175420
 Root    205 :    22.305255751540790
 Root    206 :    22.345602422138340
 Root    207 :    22.362141664112570
 Root    208 :    22.426571792974040
 Root    209 :    22.511544494533350
 Root    210 :    22.543193971210350
 Root    211 :    22.557930391851740
 Root    212 :    22.820287534821750
 Root    213 :    22.837012552696620
 Root    214 :    22.897759813101480
 Root    215 :    22.943475767031040
 Root    216 :    23.014549072207720
 Root    217 :    23.029080454084370
 Root    218 :    23.062268070317310
 Root    219 :    23.106449148152780
 Root    220 :    23.121015739420460
 Root    221 :    23.144493849095280
 Root    222 :    23.276901751157770
 Root    223 :    23.312265942355900
 Root    224 :    23.330546831476760
 Root    225 :    23.399061839395270
 Root    226 :    23.531958672288180
 Root    227 :    23.571365207037280
 Root    228 :    23.581712453807810
 Root    229 :    23.663292532815640
 Root    230 :    23.683868863656390
 Root    231 :    23.693194702359510
 Root    232 :    23.772986670974190
 Root    233 :    23.920750571221660
 Root    234 :    23.963707592822890
 Root    235 :    24.025664443049460
 Root    236 :    24.060399106033780
 Root    237 :    24.077137181804210
 Root    238 :    24.137121268989760
 Root    239 :    24.188650231007490
 Root    240 :    24.297442894277160
 Root    241 :    24.324869810507790
 Root    242 :    24.382512032329390
 Root    243 :    24.404216629828570
 Root    244 :    24.606189234079470
 Root    245 :    24.646633742268080
 Root    246 :    24.738886036333310
 Root    247 :    24.781769765051550
 Root    248 :    24.922652741322580
 Root    249 :    24.945327663954160
 Root    250 :    24.988516131641620
 Root    251 :    25.148717246819390
 Root    252 :    25.253945378143860
 Root    253 :    25.291440440111000
 Root    254 :    25.390786134417020
 Root    255 :    25.444076571352960
 Root    256 :    25.446823688473230
 Root    257 :    25.571549464018260
 Root    258 :    25.716514641662870
 Root    259 :    25.870457021260950
 Root    260 :    25.916095761656410
 Root    261 :    25.942340284285370
 Root    262 :    26.048623486890580
 Root    263 :    26.151048386972150
 Root    264 :    26.220045559752740
 Root    265 :    26.267015405614870
 Root    266 :    26.423906062622840
 Root    267 :    26.474581991959800
 Root    268 :    26.587990170192830
 Root    269 :    26.623778929566570
 Root    270 :    26.677443946117740
 Root    271 :    26.738958307095070
 Root    272 :    26.793375245815640
 Root    273 :    26.861364826735820
 Root    274 :    26.903526090121690
 Root    275 :    26.966038971724550
 Root    276 :    26.985770731697420
 Root    277 :    27.049889422717220
 Root    278 :    27.112406352859360
 Root    279 :    27.213938904376890
 Root    280 :    27.327645282154340
 Root    281 :    27.403547304713000
 Root    282 :    27.493479561599920
 Root    283 :    27.569132963631360
 Root    284 :    27.598092935070390
 Root    285 :    27.706103617994330
 Root    286 :    27.800375390566180
 Root    287 :    27.807847852674290
 Root    288 :    27.835304646995650
 Root    289 :    27.918061233715610
 Root    290 :    27.944984830724880
 Root    291 :    28.124047350328810
 Root    292 :    28.210515278682050
 Root    293 :    28.231582128384480
 Root    294 :    28.433504973424720
 Root    295 :    28.453117920872080
 Root    296 :    28.532051725960550
 Root    297 :    28.569451003957450
 Root    298 :    28.633503310605140
 Root    299 :    28.667779421046140
 Root    300 :    28.764747816838230
 Root    301 :    28.775072525216360
 Root    302 :    28.790920701106860
 Root    303 :    28.870382297532650
 Root    304 :    28.905934105377990
 Root    305 :    29.012324848074620
 Root    306 :    29.012461351578290
 Root    307 :    29.131258449567450
 Root    308 :    29.201356697775130
 Root    309 :    29.316269316758000
 Root    310 :    29.361263499331460
 Root    311 :    29.518223089728110
 Root    312 :    29.551365062271730
 Root    313 :    29.678198901770870
 Root    314 :    29.764594776780100
 Root    315 :    29.791402524972340
 Root    316 :    29.869894810585780
 Root    317 :    29.875864381379870
 Root    318 :    29.997112348486840
 Root    319 :    30.142375519571200
 Root    320 :    30.354391908121330
 Root    321 :    30.526383384652190
 Root    322 :    30.537153870126660
 Root    323 :    30.541440243716080
 Root    324 :    30.791904163897950
 Root    325 :    30.806563579074830
 Root    326 :    30.815701188948330
 Root    327 :    30.878470661357400
 Root    328 :    30.954078812959200
 Root    329 :    31.165969774291880
 Root    330 :    31.222576420449510
 Root    331 :    31.301726645891430
 Root    332 :    31.346279288127460
 Root    333 :    31.365550275483140
 Root    334 :    31.626026847012370
 Root    335 :    31.698866854050960
 Root    336 :    31.816780920437660
 Root    337 :    31.878467549914690
 Root    338 :    32.005103337961120
 Root    339 :    32.049352681830460
 Root    340 :    32.118657158747210
 Root    341 :    32.171360618873970
 Root    342 :    32.236199133477480
 Root    343 :    32.260532121420300
 Root    344 :    32.398632615393510
 Root    345 :    32.605608047450570
 Root    346 :    32.623302305585760
 Root    347 :    32.665252834287370
 Root    348 :    32.696474692439300
 Root    349 :    32.813891438849820
 Root    350 :    32.941486942651520
 Root    351 :    33.079685706059000
 Root    352 :    33.144833496680800
 Root    353 :    33.176848742145250
 Root    354 :    33.336760354033160
 Root    355 :    33.627235535004290
 Root    356 :    33.629708047296400
 Root    357 :    33.700801275800240
 Root    358 :    33.967157503546480
 Root    359 :    34.086958209893300
 Root    360 :    34.201660945131780
 Root    361 :    34.381067822222970
 Root    362 :    34.475411056798810
 Root    363 :    34.488008638115720
 Root    364 :    34.593164215332730
 Root    365 :    34.662033962204520
 Root    366 :    34.699303877673740
 Root    367 :    34.708094603842800
 Root    368 :    34.743565488493830
 Root    369 :    34.781390611433240
 Root    370 :    34.919262608215820
 Root    371 :    34.977990001782940
 Root    372 :    35.058964791555110
 Root    373 :    35.134810427022930
 Root    374 :    35.217932614919040
 Root    375 :    35.358004384123260
 Root    376 :    35.399548718987830
 Root    377 :    35.512946882021150
 Root    378 :    35.522906622884430
 Root    379 :    35.555508831846470
 Root    380 :    35.648684664801980
 Root    381 :    35.724440177687960
 Root    382 :    35.752201282503540
 Root    383 :    35.910294002013600
 Root    384 :    35.926180866304460
 Root    385 :    36.079605201847440
 Root    386 :    36.176025640840950
 Root    387 :    36.237892561911070
 Root    388 :    36.349933447729940
 Root    389 :    36.443606934551280
 Root    390 :    36.526483664348110
 Root    391 :    36.604243890903160
 Root    392 :    36.615824055412090
 Root    393 :    36.622615774134210
 Root    394 :    36.711590651752970
 Root    395 :    36.761338402078380
 Root    396 :    36.820288416908470
 Root    397 :    36.879403709954620
 Root    398 :    37.038486522201590
 Root    399 :    37.062981299904780
 Root    400 :    37.146518300213640
 Root    401 :    37.453822673960800
 Root    402 :    37.456968688253460
 Root    403 :    37.468223776306650
 Root    404 :    37.725370946449840
 Root    405 :    37.801436542485770
 Root    406 :    37.836880080572980
 Root    407 :    37.960426577162200
 Root    408 :    38.207422837035900
 Root    409 :    38.292716846966020
 Root    410 :    38.305010590748670
 Root    411 :    38.402061068039440
 Root    412 :    38.461590868799260
 Root    413 :    38.736593759119290
 Root    414 :    38.769225883393490
 Root    415 :    39.098160066114900
 Root    416 :    39.109633086098440
 Root    417 :    39.194651877682380
 Root    418 :    39.391871545890960
 Root    419 :    39.551604901510450
 Root    420 :    39.903022084819070
 Root    421 :    40.008632988804250
 Root    422 :    40.288620918871370
 Root    423 :    40.422963764866240
 Root    424 :    40.502938573920040
 Root    425 :    40.561670390263670
 Root    426 :    40.598134363398370
 Root    427 :    40.606573308986800
 Root    428 :    41.051735274259410
 Root    429 :    41.272698926886550
 Root    430 :    41.549054646787870
 Root    431 :    41.578494166861400
 Root    432 :    41.725703419029430
 Root    433 :    41.913359127140300
 Root    434 :    42.032219149253810
 Root    435 :    42.183210757295580
 Root    436 :    42.280639494284860
 Root    437 :    42.472762312840200
 Root    438 :    42.901400285990110
 Root    439 :    43.018364636953080
 Root    440 :    43.228182384118730
 Root    441 :    43.402150451402900
 Root    442 :    43.447543731276320
 Root    443 :    43.659504026960630
 Root    444 :    43.833212165974740
 Root    445 :    44.004104868908190
 Root    446 :    44.124139831116860
 Root    447 :    44.189057502086190
 Root    448 :    44.244897754989890
 Root    449 :    44.416249751977180
 Root    450 :    44.435583337963810
 Root    451 :    45.020773415730760
 Root    452 :    45.032369758525490
 Root    453 :    45.399437999131410
 Root    454 :    45.551122922593330
 Root    455 :    45.811125819153950
 Root    456 :    46.776620056699220
 Root    457 :    46.811905721109160
 Root    458 :    46.829205412271680
 Root    459 :    46.855151934764220
 Root    460 :    47.283429129169830
 Root    461 :    47.548817364753710
 Root    462 :    48.221054453056700
 Root    463 :    48.245696037326950
 Root    464 :    48.685013811756480
 Root    465 :    48.715523165877380
 Root    466 :    48.973771350237530
 Root    467 :    48.997408585982940
 Root    468 :    49.147390193635350
 Root    469 :    49.374146923419190
 Root    470 :    49.378254870493070
 Root    471 :    49.715776692485160
 Root    472 :    49.824509883202580
 Root    473 :    49.905362304068410
 Root    474 :    50.065536236089760
 Root    475 :    50.226045796846530
 Root    476 :    50.247503743055440
 Root    477 :    50.274061001189100
 Root    478 :    50.283334281778650
 Root    479 :    50.591135428415970
 Root    480 :    50.618602668540770
 Root    481 :    50.782909993654920
 Root    482 :    50.886891010497370
 Root    483 :    51.002320829945070
 Root    484 :    51.049991927214950
 Root    485 :    51.078268299932850
 Root    486 :    51.275444071787540
 Root    487 :    51.352959566157660
 Root    488 :    51.532706930599050
 Root    489 :    51.580244898631120
 Root    490 :    51.813676218224590
 Root    491 :    51.837410170807980
 Root    492 :    52.032437457933380
 Root    493 :    52.077086529790080
 Root    494 :    52.302166144689020
 Root    495 :    52.349174115472710
 Root    496 :    52.374147198980450
 Root    497 :    52.683190923477510
 Root    498 :    52.866895325045630
 Root    499 :    52.899834464984060
 Root    500 :    53.067614069784700
 Root    501 :    53.142724571345030
 Root    502 :    53.148318638104170
 Root    503 :    53.626194493471570
 Root    504 :    53.743997530184340
 Root    505 :    53.852312740343290
 Root    506 :    54.002166079868010
 Root    507 :    54.370409589551660
 Root    508 :    54.459380412843680
 Root    509 :    54.734547993873030
 Root    510 :    54.838227067429140
 Root    511 :    54.877697384045080
 Root    512 :    54.902210857305330
 Root    513 :    55.075569567530950
 Root    514 :    55.131208352395320
 Root    515 :    55.298707118339100
 Root    516 :    55.641583766739050
 Root    517 :    55.923549409368260
 Root    518 :    56.206268407084220
 Root    519 :    56.283466531310620
 Root    520 :    56.401038358793790
 Root    521 :    56.730723874191950
 Root    522 :    56.916736541715380
 Root    523 :    57.071262306299960
 Root    524 :    57.072266559272460
 Root    525 :    57.241724182221250
 Root    526 :    57.279028676141190
 Root    527 :    57.356854018325700
 Root    528 :    57.617808802094270
 Root    529 :    57.919991247947490
 Root    530 :    57.989424774766700
 Root    531 :    58.032075165999400
 Root    532 :    58.109436505906870
 Root    533 :    58.115519448873250
 Root    534 :    58.204962902265300
 Root    535 :    58.374839181426510
 Root    536 :    58.455134093602420
 Root    537 :    58.523623253295920
 Root    538 :    58.666965789563860
 Root    539 :    59.063890827230710
 Root    540 :    59.221796679203920
 Root    541 :    59.320562594737940
 Root    542 :    59.452247684257420
 Root    543 :    59.631756867818960
 Root    544 :    59.676702901646530
 Root    545 :    59.748478448309360
 Root    546 :    59.805488345721760
 Root    547 :    59.961125160871720
 Root    548 :    59.966308369829120
 Root    549 :    60.205719124354680
 Root    550 :    60.438124295473750
 Root    551 :    60.545714041800140
 Root    552 :    60.661478001694820
 Root    553 :    60.864979926536500
 Root    554 :    61.055717081201360
 Root    555 :    61.217084664097970
 Root    556 :    61.288093444292140
 Root    557 :    61.361598028684160
 Root    558 :    61.362667291349740
 Root    559 :    61.695162425860570
 Root    560 :    61.711395811623210
 Root    561 :    61.786145448492300
 Root    562 :    61.945005619458830
 Root    563 :    61.993337872081560
 Root    564 :    62.188367531344990
 Root    565 :    62.512224727343830
 Root    566 :    62.549197251201020
 Root    567 :    62.751310036558200
 Root    568 :    62.858845640673070
 Root    569 :    63.000253984436580
 Root    570 :    63.125238478320760
 Root    571 :    63.324601087975290
 Root    572 :    63.425625746224420
 Root    573 :    63.769101003153450
 Root    574 :    63.956808632959610
 Root    575 :    64.227242269776550
 Root    576 :    64.352797302644840
 Root    577 :    64.389650681229260
 Root    578 :    64.621696888949130
 Root    579 :    64.697995898471960
 Root    580 :    64.810069019073780
 Root    581 :    64.928300533156930
 Root    582 :    64.933052789772860
 Root    583 :    65.072284605361630
 Root    584 :    65.281902132927940
 Root    585 :    65.383686335060550
 Root    586 :    65.556287733657070
 Root    587 :    65.564369964420120
 Root    588 :    65.751244887716810
 Root    589 :    65.851392362287800
 Root    590 :    66.135345817350700
 Root    591 :    66.496350126651350
 Root    592 :    66.577256400789310
 Root    593 :    67.084614656671970
 Root    594 :    67.209034565783970
 Root    595 :    67.482986991227250
 Root    596 :    67.505170538159750
 Root    597 :    67.579466287547890
 Root    598 :    68.056127631399830
 Root    599 :    68.417887578214580
 Root    600 :    68.802046923372630
 Root    601 :    68.860670956307200
 Root    602 :    68.929983764009080
 Root    603 :    69.187441263193780
 Root    604 :    69.198478696133150
 Root    605 :    69.226183134237150
 Root    606 :    69.386889591907870
 Root    607 :    69.434130254552760
 Root    608 :    69.771195475225470
 Root    609 :    70.151195330931730
 Root    610 :    70.277867791126880
 Root    611 :    70.405697271537990
 Root    612 :    70.810502398252540
 Root    613 :    70.995386655409390
 Root    614 :    71.014954091237810
 Root    615 :    71.873600248663270
 Root    616 :    72.002593334131760
 Root    617 :    72.524099013234150
 Root    618 :    72.669479955149650
 Root    619 :    73.084343221447580
 Root    620 :    73.224221631603240
 Root    621 :    73.317307967205270
 Root    622 :    73.528588286588120
 Root    623 :    74.227185197321760
 Root    624 :    74.639541005866110
 Root    625 :    74.825976970785400
 Root    626 :    74.907478779269780
 Root    627 :    75.115525094078690
 Root    628 :    75.515844692786600
 Root    629 :    75.817338797741140
 Root    630 :    76.047412274965720
 Root    631 :    76.345889444148380
 Root    632 :    76.459190447965540
 Root    633 :    76.583328040468590
 Root    634 :    76.654463122646260
 Root    635 :    76.684792454365000
 Root    636 :    76.774861807416740
 Root    637 :    76.819281285669630
 Root    638 :    77.015746228959980
 Root    639 :    77.589926754154990
 Root    640 :    77.700559262367930
 Root    641 :    77.757844160727440
 Root    642 :    77.827006667080250
 Root    643 :    78.059709089653380
 Root    644 :    78.396385371757670
 Root    645 :    78.584080504971240
 Root    646 :    78.786644832777360
 Root    647 :    79.006280833911790
 Root    648 :    79.147348393483720
 Root    649 :    79.480923057876210
 Root    650 :    79.819203762078250
 Root    651 :    79.911727568012470
 Root    652 :    80.066334779699630
 Root    653 :    80.221000591292850
 Root    654 :    80.715709609050660
 Root    655 :    81.176637126004660
 Root    656 :    81.269702469677740
 Root    657 :    81.441264556616420
 Root    658 :    82.133832373005210
 Root    659 :    82.980720781340790
 Root    660 :    83.082154869660780
 Root    661 :    83.673882373030840
 Root    662 :    83.807291955797600
 Root    663 :    83.848853937177890
 Root    664 :    84.123698239801640
 Root    665 :    84.405096636586420
 Root    666 :    84.461791092233920
 Root    667 :    84.659386550751710
 Root    668 :    84.937545341252970
 Root    669 :    85.073692457411450
 Root    670 :    85.344077044093400
 Root    671 :    85.488552103244440
 Root    672 :    85.578589997002280
 Root    673 :    85.718808216173780
 Root    674 :    85.748224188250720
 Root    675 :    85.789107356793750
 Root    676 :    85.957946151233320
 Root    677 :    86.666380577021610
 Root    678 :    86.815023245342270
 Root    679 :    86.858573754058780
 Root    680 :    87.404326363942330
 Root    681 :    87.485206265864850
 Root    682 :    87.542400221452770
 Root    683 :    88.076472210243140
 Root    684 :    88.857849743887900
 Root    685 :    89.000004516913260
 Root    686 :    89.340715326316470
 Root    687 :    89.489838505893020
 Root    688 :    89.608279027659660
 Root    689 :    89.611086190478740
 Root    690 :    90.301544312694450
 Root    691 :    90.387868521617480
 Root    692 :    90.563259702695110
 Root    693 :    90.785420704869100
 Root    694 :    90.911262446410130
 Root    695 :    91.105171179013470
 Root    696 :    91.252856262729620
 Root    697 :    91.385033272895260
 Root    698 :    91.533897857672100
 Root    699 :    91.611089876493550
 Root    700 :    91.803615679366620
 Root    701 :    91.951167827574650
 Root    702 :    92.173015512407060
 Root    703 :    92.306084449493850
 Root    704 :    92.623339164717590
 Root    705 :    93.314934563516600
 Root    706 :    93.448415091744310
 Root    707 :    93.468338337872240
 Root    708 :    94.034973646649260
 Root    709 :    94.058975223926300
 Root    710 :    94.248036131709470
 Root    711 :    94.420901376178650
 Root    712 :    94.690199135321340
 Root    713 :    95.466961598930780
 Root    714 :    95.668527554469880
 Root    715 :    95.798087532844150
 Root    716 :    95.923842150386380
 Root    717 :    97.322300336623940
 Root    718 :    98.436287297895480
 Root    719 :    98.492758014482830
 Root    720 :    98.766227526632970
 Root    721 :    98.983615290196160
 Root    722 :   100.144720938551000
 Root    723 :   100.304965178877600
 Root    724 :   100.633522402848500
 Root    725 :   101.257644917041700
 Root    726 :   101.469198673388600
 Root    727 :   102.589238133961700
 Root    728 :   102.835281617849600
 Root    729 :   103.119556577128500
 Root    730 :   103.169429946797900
 Root    731 :   103.595489454372200
 Root    732 :   105.359683053140500
 Root    733 :   106.116807880978700
 Root    734 :   106.124654273612600
 Root    735 :   106.443888371482300
 Root    736 :   107.889375608426300
 Root    737 :   108.094685598499100
 Root    738 :   108.618510189337100
 Root    739 :   109.813493279007800
 Root    740 :   110.178050009196100
 Root    741 :   110.255169531481400
 Root    742 :   111.468097379015800
 Root    743 :   111.620031369691000
 Root    744 :   113.278468431533100
 Root    745 :   117.327572385954600
 Root    746 :   118.173795241566300
 Root    747 :   125.673094085809100
 Convergence achieved for final wavefunctions.
 ***********************************************************************
 Excited states from <AA,BB:AA,BB> singles matrix:
 ***********************************************************************
 
 1PDM for each excited state written to RWF  633
 Ground to excited state transition densities written to RWF  633
 Ground to excited state transition electric dipole moments (Au):
       state          X           Y           Z        Dip. S.      Osc.
         1        -0.0000      0.0000      0.0146      0.0002      0.0000
         2         0.3729     -0.0903      0.0000      0.1472      0.0219
         3         0.1640      0.5788     -0.0000      0.3620      0.0605
         4        -0.0000      0.0000     -0.2769      0.0767      0.0144
         5         0.0000     -0.0000     -0.1070      0.0115      0.0022
         6        -0.3234     -0.4651      0.0000      0.3209      0.0622
         7        -0.2660      0.2926     -0.0000      0.1564      0.0314
         8        -0.0000      0.0000     -0.0065      0.0000      0.0000
         9        -0.6944      0.2239      0.0000      0.5323      0.1117
        10         0.7517     -0.3409     -0.0000      0.6812      0.1446
        11         0.1766     -0.1214     -0.0000      0.0459      0.0102
        12         0.0000      0.0000     -0.0190      0.0004      0.0001
        13        -0.0000      0.0000      0.1480      0.0219      0.0050
        14        -0.0000     -0.0000      0.0896      0.0080      0.0019
        15         0.3641     -0.0049     -0.0000      0.1326      0.0320
        16        -0.0000      0.0000     -0.2445      0.0598      0.0146
        17        -0.0000      0.0000      0.0970      0.0094      0.0023
        18         0.3997      0.0067     -0.0000      0.1598      0.0403
        19         0.0257     -0.1680     -0.0000      0.0289      0.0075
        20         0.0622     -0.4152     -0.0000      0.1763      0.0459
        21        -0.3042     -0.2794      0.0000      0.1707      0.0447
        22         0.4595      0.4066     -0.0000      0.3765      0.1000
[...]
      5   0.000000D+00 -0.557331D-02 -0.506298D-01  0.000000D+00  0.286983D-02
      6   0.000000D+00 -0.186031D+00 -0.423254D+00  0.000000D+00  0.469759D-01
      7  -0.241619D+00  0.000000D+00  0.000000D+00  0.260909D+00  0.000000D+00
      8  -0.481082D+00  0.000000D+00  0.000000D+00  0.146899D+00  0.000000D+00
      9  -0.930864D+00  0.000000D+00  0.000000D+00  0.438110D+00  0.000000D+00
     10   0.000000D+00 -0.112124D+00  0.466868D+00  0.000000D+00  0.101926D+00
     11   0.000000D+00  0.580091D+00  0.241640D-01  0.000000D+00  0.221320D+00
     12   0.000000D+00  0.540465D+00 -0.400343D+00  0.000000D+00  0.745295D-01
     13   0.000000D+00  0.536572D-01 -0.171779D-01  0.000000D+00 -0.638741D-01
     14   0.000000D+00 -0.343478D+00  0.456224D+00  0.000000D+00  0.739475D-01
     15   0.920530D+00  0.000000D+00  0.000000D+00 -0.384086D+00  0.000000D+00
     16  -0.667649D+00  0.000000D+00  0.000000D+00 -0.106178D-01  0.000000D+00
               681           682           683           684           685 
      1  -0.150453D+03 -0.150451D+03 -0.150432D+03 -0.150403D+03 -0.150398D+03
      2   0.223511D-01 -0.384243D-01  0.000000D+00  0.286890D-01  0.384299D-01
      3   0.587877D-01 -0.141106D-01  0.000000D+00 -0.298740D+00  0.623415D-01
      4   0.000000D+00  0.000000D+00 -0.116852D+00  0.000000D+00  0.000000D+00
      5  -0.572812D-01  0.110938D+00  0.000000D+00 -0.894333D-01 -0.101471D+00
      6  -0.150071D+00  0.177372D-01  0.000000D+00  0.832613D+00 -0.160540D+00
      7   0.000000D+00  0.000000D+00  0.324395D+00  0.000000D+00  0.000000D+00
      8   0.000000D+00  0.000000D+00  0.250776D+00  0.000000D+00  0.000000D+00
      9   0.000000D+00  0.000000D+00  0.635751D+00  0.000000D+00  0.000000D+00
     10  -0.324641D-01  0.336197D+00  0.000000D+00 -0.130579D+01  0.190163D+00
     11  -0.379749D+00  0.474593D+00  0.000000D+00  0.277536D+00 -0.101479D+01
     12  -0.686691D-02 -0.166100D+00  0.000000D+00  0.955500D+00 -0.685929D+00
     13   0.185001D+00  0.781677D-01  0.000000D+00  0.129172D+00  0.935660D-01
     14   0.118495D+00 -0.350489D-01  0.000000D+00 -0.121484D+01  0.102738D+01
     15   0.000000D+00  0.000000D+00 -0.625089D+00  0.000000D+00  0.000000D+00
     16   0.000000D+00  0.000000D+00  0.387380D+00  0.000000D+00  0.000000D+00
               686           687           688           689           690 
      1  -0.150385D+03 -0.150380D+03 -0.150375D+03 -0.150375D+03 -0.150350D+03
      2  -0.276453D-01  0.000000D+00  0.000000D+00  0.598409D-02  0.000000D+00
      3   0.262538D+00  0.000000D+00  0.000000D+00 -0.382978D-01  0.000000D+00
      4   0.000000D+00 -0.194656D-01 -0.158787D+00  0.000000D+00 -0.210237D-01
      5   0.712974D-01  0.000000D+00  0.000000D+00 -0.796885D-02  0.000000D+00
      6  -0.724363D+00  0.000000D+00  0.000000D+00  0.100773D+00  0.000000D+00
      7   0.000000D+00  0.664749D-01  0.440022D+00  0.000000D+00  0.578556D-01
      8   0.000000D+00 -0.438264D+00  0.295110D+00  0.000000D+00  0.155422D+00
      9   0.000000D+00 -0.831799D+00  0.951925D+00  0.000000D+00  0.317976D+00
     10   0.172880D+01  0.000000D+00  0.000000D+00  0.227198D-01  0.000000D+00
     11   0.615187D+00  0.000000D+00  0.000000D+00  0.885081D-01  0.000000D+00
     12  -0.117773D+01  0.000000D+00  0.000000D+00  0.378087D-01  0.000000D+00
     13   0.113518D+00  0.000000D+00  0.000000D+00  0.126963D+00  0.000000D+00
     14   0.132938D+01  0.000000D+00  0.000000D+00 -0.217062D-01  0.000000D+00
     15   0.000000D+00  0.771940D+00 -0.100298D+01  0.000000D+00 -0.273367D+00
     16   0.000000D+00 -0.410441D+00  0.508767D+00  0.000000D+00  0.828569D-01
               691           692           693           694           695 
      1  -0.150347D+03 -0.150340D+03 -0.150332D+03 -0.150327D+03 -0.150320D+03
      2   0.000000D+00  0.000000D+00  0.000000D+00 -0.921204D-01  0.707036D-01
      3   0.000000D+00  0.000000D+00  0.000000D+00  0.104957D+00  0.151251D+00
      4  -0.108931D-01  0.165201D-01  0.757819D-01  0.000000D+00  0.000000D+00
      5   0.000000D+00  0.000000D+00  0.000000D+00  0.271981D+00 -0.190249D+00
      6   0.000000D+00  0.000000D+00  0.000000D+00 -0.303147D+00 -0.429351D+00
      7   0.339983D-01 -0.582851D-01 -0.225419D+00  0.000000D+00  0.000000D+00
      8  -0.371531D-01 -0.166016D+00 -0.635534D-01  0.000000D+00  0.000000D+00
      9  -0.926271D-01 -0.381856D+00 -0.167118D+00  0.000000D+00  0.000000D+00
     10   0.000000D+00  0.000000D+00  0.000000D+00  0.112063D+01  0.457518D+00
     11   0.000000D+00  0.000000D+00  0.000000D+00  0.235514D+00 -0.775441D+00
     12   0.000000D+00  0.000000D+00  0.000000D+00 -0.595851D+00 -0.403813D+00
     13   0.000000D+00  0.000000D+00  0.000000D+00 -0.989051D-01 -0.121324D+00
     14   0.000000D+00  0.000000D+00  0.000000D+00  0.930876D+00  0.109139D+01
     15   0.468761D-01  0.447017D+00  0.245240D+00  0.000000D+00  0.000000D+00
     16   0.129938D+00  0.110817D+00 -0.161530D+00  0.000000D+00  0.000000D+00
               696           697           698           699           700 
      1  -0.150315D+03 -0.150310D+03 -0.150304D+03 -0.150302D+03 -0.150295D+03
      2   0.000000D+00 -0.759099D-02  0.458219D-01  0.000000D+00  0.203719D-01
      3   0.000000D+00 -0.116443D+00  0.501036D-01  0.000000D+00  0.574937D-01
      4  -0.194217D+00  0.000000D+00  0.000000D+00  0.525451D-01  0.000000D+00
      5   0.000000D+00  0.331836D-01 -0.148880D+00  0.000000D+00 -0.850672D-01
      6   0.000000D+00  0.336227D+00 -0.136600D+00  0.000000D+00 -0.166812D+00
      7   0.543818D+00  0.000000D+00  0.000000D+00 -0.151084D+00  0.000000D+00
      8   0.106366D+00  0.000000D+00  0.000000D+00  0.304031D+00  0.000000D+00
      9   0.810576D+00  0.000000D+00  0.000000D+00  0.371736D+00  0.000000D+00
     10   0.000000D+00  0.194570D+00  0.620180D+00  0.000000D+00  0.854474D+00
     11   0.000000D+00 -0.499241D+00  0.729229D+00  0.000000D+00  0.436825D+00
     12   0.000000D+00 -0.374784D+00 -0.926522D+00  0.000000D+00 -0.594026D+00
     13   0.000000D+00 -0.530786D-01 -0.422597D-01  0.000000D+00 -0.392921D-01
     14   0.000000D+00  0.383826D+00  0.412213D+00  0.000000D+00  0.975518D+00
     15  -0.758275D+00  0.000000D+00  0.000000D+00 -0.466915D+00  0.000000D+00
     16   0.569163D-01  0.000000D+00  0.000000D+00  0.337999D+00  0.000000D+00
               701           702           703           704           705 
      1  -0.150289D+03 -0.150281D+03 -0.150276D+03 -0.150264D+03 -0.150239D+03
      2   0.382471D-01 -0.252987D-01 -0.278506D-01  0.000000D+00 -0.402654D-01
      3  -0.619171D-02  0.153104D+00 -0.100526D+00  0.000000D+00  0.369908D-01
      4   0.000000D+00  0.000000D+00  0.000000D+00 -0.209677D-01  0.000000D+00
      5  -0.106284D+00  0.688617D-01  0.852642D-01  0.000000D+00  0.122872D+00
      6   0.206247D-01 -0.438110D+00  0.287233D+00  0.000000D+00 -0.938736D-01
      7   0.000000D+00  0.000000D+00  0.000000D+00  0.646789D-01  0.000000D+00
      8   0.000000D+00  0.000000D+00  0.000000D+00 -0.288809D+00  0.000000D+00
      9   0.000000D+00  0.000000D+00  0.000000D+00 -0.493169D+00  0.000000D+00
     10   0.503931D-01  0.832128D+00 -0.130561D-02  0.000000D+00 -0.325871D+00
     11  -0.996412D-01 -0.292368D+00  0.330137D+00  0.000000D+00  0.320289D+00
     12  -0.137665D+00 -0.907128D+00 -0.189525D+00  0.000000D+00  0.384011D+00
     13   0.978383D-01  0.266045D+00 -0.202967D-01  0.000000D+00 -0.135287D+00
     14   0.206564D+00  0.976701D+00 -0.465364D+00  0.000000D+00 -0.591241D+00
     15   0.000000D+00  0.000000D+00  0.000000D+00  0.432356D+00  0.000000D+00
     16   0.000000D+00  0.000000D+00  0.000000D+00 -0.162969D+00  0.000000D+00
               706           707           708           709           710 
      1  -0.150234D+03 -0.150233D+03 -0.150213D+03 -0.150212D+03 -0.150205D+03
      2   0.000000D+00 -0.160550D-01  0.000000D+00 -0.105628D+00 -0.111779D+00
      3   0.000000D+00  0.199750D-01  0.000000D+00  0.271215D-01 -0.615261D-01
      4  -0.781498D-01  0.000000D+00  0.429860D-01  0.000000D+00  0.000000D+00
      5   0.000000D+00  0.351707D-01  0.000000D+00  0.325888D+00  0.358422D+00
      6   0.000000D+00 -0.367250D-01  0.000000D+00 -0.659450D-01  0.193771D+00
      7   0.220829D+00  0.000000D+00 -0.117888D+00  0.000000D+00  0.000000D+00
      8   0.126827D+00  0.000000D+00  0.104310D+00  0.000000D+00  0.000000D+00
      9   0.233437D+00  0.000000D+00  0.157675D+00  0.000000D+00  0.000000D+00
     10   0.000000D+00  0.406392D-01  0.000000D+00  0.752562D-01 -0.496710D+00
     11   0.000000D+00  0.488938D-01  0.000000D+00 -0.861819D+00 -0.129759D+01
     12   0.000000D+00  0.638503D-01  0.000000D+00  0.835555D-01 -0.168315D+00
     13   0.000000D+00 -0.824835D-01  0.000000D+00 -0.130315D+00  0.127317D+00
     14   0.000000D+00 -0.149606D+00  0.000000D+00  0.285288D+00 -0.517837D-01
     15  -0.109682D+00  0.000000D+00 -0.127675D+00  0.000000D+00  0.000000D+00
     16   0.289533D+00  0.000000D+00  0.914911D-01  0.000000D+00  0.000000D+00
               711           712           713           714           715 
      1  -0.150198D+03 -0.150188D+03 -0.150160D+03 -0.150153D+03 -0.150148D+03
      2   0.000000D+00  0.000000D+00 -0.504515D-01  0.538150D-01 -0.525414D-01
      3   0.000000D+00  0.000000D+00  0.111242D+00  0.710396D-02 -0.285733D-01
      4   0.575644D-01 -0.119245D-01  0.000000D+00  0.000000D+00  0.000000D+00
      5   0.000000D+00  0.000000D+00  0.183647D+00 -0.178699D+00  0.170450D+00
      6   0.000000D+00  0.000000D+00 -0.325925D+00 -0.705850D-02  0.741031D-01
      7  -0.157933D+00  0.341707D-01  0.000000D+00  0.000000D+00  0.000000D+00
      8  -0.248316D+00 -0.976228D-01  0.000000D+00  0.000000D+00  0.000000D+00
      9  -0.609094D+00 -0.161174D+00  0.000000D+00  0.000000D+00  0.000000D+00
     10   0.000000D+00  0.000000D+00  0.189488D+00  0.246013D+00 -0.412462D+00
     11   0.000000D+00  0.000000D+00 -0.112197D+01  0.707410D+00 -0.617263D+00
     12   0.000000D+00  0.000000D+00 -0.274118D+00  0.498282D-01  0.165000D+00
     13   0.000000D+00  0.000000D+00 -0.843343D-01  0.468313D-01 -0.523816D-01
     14   0.000000D+00  0.000000D+00  0.371572D+00 -0.188930D+00  0.586316D-01
     15   0.717000D+00  0.110734D+00  0.000000D+00  0.000000D+00  0.000000D+00
     16  -0.279209D+00 -0.273030D+00  0.000000D+00  0.000000D+00  0.000000D+00
               716           717           718           719           720 
      1  -0.150143D+03 -0.150092D+03 -0.150051D+03 -0.150049D+03 -0.150039D+03
      2   0.000000D+00  0.000000D+00  0.000000D+00  0.941618D-01  0.167182D+00
      3   0.000000D+00  0.000000D+00  0.000000D+00  0.965959D-02 -0.180336D-01
      4  -0.803119D-01 -0.268869D+00 -0.941166D-01  0.000000D+00  0.000000D+00
      5   0.000000D+00  0.000000D+00  0.000000D+00 -0.279961D+00 -0.584655D+00
      6   0.000000D+00  0.000000D+00  0.000000D+00 -0.347456D-01  0.487960D-01
      7   0.251456D+00  0.845431D+00  0.278431D+00  0.000000D+00  0.000000D+00
      8   0.196341D+00  0.558859D+00 -0.358868D+00  0.000000D+00  0.000000D+00
      9   0.775320D+00  0.194432D+01 -0.395281D+00  0.000000D+00  0.000000D+00
     10   0.000000D+00  0.000000D+00  0.000000D+00 -0.117079D+00  0.429175D+00
     11   0.000000D+00  0.000000D+00  0.000000D+00  0.338967D+00  0.342107D+01
     12   0.000000D+00  0.000000D+00  0.000000D+00  0.324817D-01  0.802260D-01
     13   0.000000D+00  0.000000D+00  0.000000D+00 -0.118250D-01  0.385225D-01
     14   0.000000D+00  0.000000D+00  0.000000D+00 -0.585380D-01 -0.578362D+00
     15  -0.995312D+00 -0.256906D+01  0.187145D+00  0.000000D+00  0.000000D+00
     16   0.182933D+00  0.565626D+00 -0.391720D+00  0.000000D+00  0.000000D+00
               721           722           723           724           725 
      1  -0.150031D+03 -0.149988D+03 -0.149982D+03 -0.149970D+03 -0.149947D+03
      2   0.000000D+00  0.708374D-01  0.577788D-01  0.000000D+00  0.400599D-01
      3   0.000000D+00  0.617046D-01  0.256933D-01  0.000000D+00  0.947015D-01
      4  -0.164195D+00  0.000000D+00  0.000000D+00  0.141679D-01  0.000000D+00
      5   0.000000D+00 -0.221468D+00 -0.196000D+00  0.000000D+00 -0.156813D+00
      6   0.000000D+00 -0.177764D+00 -0.871663D-01  0.000000D+00 -0.292719D+00
      7   0.509478D+00  0.000000D+00  0.000000D+00 -0.395993D-01  0.000000D+00
      8   0.446208D+00  0.000000D+00  0.000000D+00  0.471084D-02  0.000000D+00
      9   0.114992D+01  0.000000D+00  0.000000D+00 -0.560623D-01  0.000000D+00
     10   0.000000D+00 -0.567956D+00  0.304699D+00  0.000000D+00  0.407196D+00
     11   0.000000D+00 -0.372194D+00  0.923886D+00  0.000000D+00  0.638908D+00
     12   0.000000D+00  0.445804D+00  0.288439D+00  0.000000D+00 -0.417895D+00
     13   0.000000D+00  0.103242D+00 -0.633897D+00  0.000000D+00 -0.163236D+00
     14   0.000000D+00 -0.229987D+00 -0.197976D-01  0.000000D+00  0.137647D+00
     15  -0.140859D+01  0.000000D+00  0.000000D+00  0.116905D+00  0.000000D+00
     16   0.377142D+00  0.000000D+00  0.000000D+00 -0.314749D-01  0.000000D+00
               726           727           728           729           730 
      1  -0.149939D+03 -0.149898D+03 -0.149889D+03 -0.149879D+03 -0.149877D+03
      2   0.667632D-01  0.000000D+00  0.819507D-01  0.000000D+00  0.000000D+00
      3  -0.717763D-01  0.000000D+00  0.661333D-01  0.000000D+00  0.000000D+00
      4   0.000000D+00 -0.901591D-02  0.000000D+00  0.236742D-01 -0.462455D-01
      5  -0.237267D+00  0.000000D+00 -0.284760D+00  0.000000D+00  0.000000D+00
      6   0.231581D+00  0.000000D+00 -0.204693D+00  0.000000D+00  0.000000D+00
      7   0.000000D+00  0.277852D-01  0.000000D+00 -0.699660D-01  0.133607D+00
      8   0.000000D+00 -0.221388D-01  0.000000D+00 -0.295970D-01 -0.105170D-01
      9   0.000000D+00 -0.802281D-01  0.000000D+00 -0.426021D-01 -0.650439D-01
     10  -0.508110D+00  0.000000D+00  0.108352D+01  0.000000D+00  0.000000D+00
     11   0.123647D+00  0.000000D+00  0.637966D+00  0.000000D+00  0.000000D+00
     12   0.350223D+00  0.000000D+00 -0.519169D+00  0.000000D+00  0.000000D+00
     13   0.994117D-01  0.000000D+00  0.809082D-01  0.000000D+00  0.000000D+00
     14  -0.642727D+00  0.000000D+00  0.110370D+01  0.000000D+00  0.000000D+00
     15   0.000000D+00  0.208460D-01  0.000000D+00  0.422227D-02  0.192359D-01
     16   0.000000D+00 -0.113430D+00  0.000000D+00  0.521170D+00  0.230054D+00
               731           732           733           734           735 
      1  -0.149861D+03 -0.149796D+03 -0.149769D+03 -0.149768D+03 -0.149757D+03
      2   0.819028D-01 -0.280958D-01  0.404385D-02  0.000000D+00  0.256831D-01
      3  -0.380442D-01  0.139691D+00  0.195832D+00  0.000000D+00  0.613811D-01
      4   0.000000D+00  0.000000D+00  0.000000D+00  0.131817D-01  0.000000D+00
      5  -0.294804D+00  0.997332D-01 -0.283171D-01  0.000000D+00 -0.828502D-01
      6   0.116237D+00 -0.479970D+00 -0.666062D+00  0.000000D+00 -0.208722D+00
      7   0.000000D+00  0.000000D+00  0.000000D+00 -0.452044D-01  0.000000D+00
      8   0.000000D+00  0.000000D+00  0.000000D+00 -0.109310D+00  0.000000D+00
      9   0.000000D+00  0.000000D+00  0.000000D+00 -0.204903D+00  0.000000D+00
     10  -0.892071D-01  0.118770D+01  0.134633D+01  0.000000D+00  0.339732D+00
     11   0.113317D+01 -0.482585D+00  0.203522D+00  0.000000D+00  0.246615D+00
     12  -0.946200D-01 -0.768526D+00 -0.814089D+00  0.000000D+00 -0.691217D+00
     13  -0.165784D-01  0.997328D-03 -0.224100D-01  0.000000D+00  0.189900D+00
     14  -0.873074D+00  0.167050D+01  0.157109D+01  0.000000D+00  0.246936D+00
     15   0.000000D+00  0.000000D+00  0.000000D+00  0.148699D+00  0.000000D+00
     16   0.000000D+00  0.000000D+00  0.000000D+00 -0.190227D+00  0.000000D+00
               736           737           738           739           740 
      1  -0.149703D+03 -0.149696D+03 -0.149677D+03 -0.149633D+03 -0.149619D+03
      2  -0.254428D-01  0.000000D+00  0.495401D-01  0.000000D+00  0.685967D-01
      3   0.795231D-02  0.000000D+00  0.465339D-01  0.000000D+00 -0.562075D-01
      4   0.000000D+00  0.112174D+00  0.000000D+00  0.554215D-01  0.000000D+00
      5   0.975078D-01  0.000000D+00 -0.177866D+00  0.000000D+00 -0.241174D+00
      6  -0.256804D-01  0.000000D+00 -0.155950D+00  0.000000D+00  0.174738D+00
      7   0.000000D+00 -0.397681D+00  0.000000D+00 -0.191136D+00  0.000000D+00
      8   0.000000D+00 -0.307913D+00  0.000000D+00 -0.109809D+00  0.000000D+00
      9   0.000000D+00 -0.993688D+00  0.000000D+00 -0.485853D+00  0.000000D+00
     10  -0.117297D+00  0.000000D+00  0.466218D+00  0.000000D+00 -0.187026D+00
     11  -0.740923D+00  0.000000D+00  0.838543D+00  0.000000D+00  0.109486D+01
     12   0.190326D+00  0.000000D+00 -0.191054D+00  0.000000D+00 -0.107963D-01
     13  -0.277921D-01  0.000000D+00  0.397339D-02  0.000000D+00  0.144618D-01
     14   0.832451D-01  0.000000D+00  0.285823D+00  0.000000D+00 -0.572745D+00
     15   0.000000D+00  0.123665D+01  0.000000D+00  0.678484D+00  0.000000D+00
     16   0.000000D+00 -0.274465D+00  0.000000D+00 -0.116944D+00  0.000000D+00
               741           742           743           744           745 
      1  -0.149616D+03 -0.149572D+03 -0.149566D+03 -0.149505D+03 -0.149357D+03
      2  -0.612940D-01  0.000000D+00 -0.214384D+00 -0.926391D-01  0.170533D-01
      3   0.384736D-01  0.000000D+00 -0.353816D-01  0.290239D-02  0.127468D-02
      4   0.000000D+00 -0.953942D-01  0.000000D+00  0.000000D+00  0.000000D+00
      5   0.229017D+00  0.000000D+00  0.818676D+00  0.383169D+00 -0.510274D-01
      6  -0.151058D+00  0.000000D+00  0.126879D+00 -0.968727D-02 -0.991043D-03
      7   0.000000D+00  0.337051D+00  0.000000D+00  0.000000D+00  0.000000D+00
      8   0.000000D+00  0.231370D+00  0.000000D+00  0.000000D+00  0.000000D+00
      9   0.000000D+00  0.731665D+00  0.000000D+00  0.000000D+00  0.000000D+00
     10   0.247744D+00  0.000000D+00 -0.937354D+00 -0.176690D+00  0.642685D-02
     11  -0.101479D+01  0.000000D+00 -0.393119D+01 -0.313230D+01 -0.402560D+00
     12  -0.374920D+00  0.000000D+00  0.298965D+00  0.125723D+00  0.857926D-01
     13   0.489274D-01  0.000000D+00  0.996449D-01  0.191987D+00  0.784507D-01
     14   0.924353D+00  0.000000D+00  0.169905D+00  0.340585D+00 -0.164337D+00
     15   0.000000D+00 -0.629343D+00  0.000000D+00  0.000000D+00  0.000000D+00
     16   0.000000D+00  0.237890D+00  0.000000D+00  0.000000D+00  0.000000D+00
               746           747 
      1  -0.149325D+03 -0.149050D+03
      2  -0.730761D-02  0.103209D-01
      3   0.286849D-01  0.223891D-02
      4   0.000000D+00  0.000000D+00
      5   0.281476D-01  0.210170D-01
      6  -0.121279D+00 -0.644865D-02
      7   0.000000D+00  0.000000D+00
      8   0.000000D+00  0.000000D+00
      9   0.000000D+00  0.000000D+00
     10   0.458423D+00  0.131864D-01
     11  -0.985498D-01 -0.582533D+00
     12  -0.152355D+00 -0.946057D-01
     13   0.230196D-01 -0.652448D-01
     14   0.453919D+00  0.158124D-01
     15   0.000000D+00  0.000000D+00
     16   0.000000D+00  0.000000D+00
 Unable to Open any file for archive entry.
 1\1\GINC-HEL10\SP\RPW91PW91 TD-FC\Gen\C2H4O1\SABYASACHI\21-Mar-2022\0\
 \#P TD(Nstates=10000) pw91pw91/Gen SCF(maxcycles=100) Int(Grid=ultrafi
 ne)\\xGDB7_00001_tier4.com\\0,1\C,0,0.926252,-0.719055,0.\C,0,0.,0.459
 276,0.\O,0,-1.196998,0.387135,0.\H,0,1.575966,-0.668677,0.877698\H,0,1
 .575966,-0.668677,-0.877698\H,0,0.366734,-1.652236,0.\H,0,0.499812,1.4
 51182,0.\\Version=EM64L-G16RevC.01\State=1-A'\HF=-153.6682766\RMSD=3.9
 12e-09\PG=CS [SG(C2H2O1),X(H2)]\\@
 The archive entry for this job was punched.


 ERWIN WITH HIS PSI CAN DO
 CALCULATIONS QUITE A FEW.
 BUT ONE THING HAS NOT BEEN SEEN
 JUST WHAT DOES PSI REALLY MEAN.
 -- WALTER HUCKEL, TRANS. BY FELIX BLOCH
 Job cpu time:       0 days  0 hours  6 minutes  2.4 seconds.
 Elapsed time:       0 days  0 hours  0 minutes 45.6 seconds.
 File lengths (MBytes):  RWF=    280 Int=      0 D2E=      0 Chk=    165 Scr=      1
 Normal termination of Gaussian 16 at Mon Mar 21 20:26:14 2022.
