 Entering Gaussian System, Link 0=g16
 Input=000007.com
 Output=000007.log
 Initial command:
 /home/sabyasachi/g16/l1.exe "/scratch/sabyasachi/PBS_7976504.helios/Gau-147526.inp" -scrdir="/scratch/sabyasachi/PBS_7976504.helios/"
 Entering Link 1 = /home/sabyasachi/g16/l1.exe PID=    147527.
  
 Copyright (c) 1988-2019, Gaussian, Inc.  All Rights Reserved.
  
 This is part of the Gaussian(R) 16 program.  It is based on
 the Gaussian(R) 09 system (copyright 2009, Gaussian, Inc.),
 the Gaussian(R) 03 system (copyright 2003, Gaussian, Inc.),
 the Gaussian(R) 98 system (copyright 1998, Gaussian, Inc.),
 the Gaussian(R) 94 system (copyright 1995, Gaussian, Inc.),
 the Gaussian 92(TM) system (copyright 1992, Gaussian, Inc.),
 the Gaussian 90(TM) system (copyright 1990, Gaussian, Inc.),
 the Gaussian 88(TM) system (copyright 1988, Gaussian, Inc.),
 the Gaussian 86(TM) system (copyright 1986, Carnegie Mellon
 University), and the Gaussian 82(TM) system (copyright 1983,
 Carnegie Mellon University). Gaussian is a federally registered
 trademark of Gaussian, Inc.
  
 This software contains proprietary and confidential information,
 including trade secrets, belonging to Gaussian, Inc.
  
 This software is provided under written license and may be
 used, copied, transmitted, or stored only in accord with that
 written license.
  
 The following legend is applicable only to US Government
 contracts under FAR:
  
                    RESTRICTED RIGHTS LEGEND
  
 Use, reproduction and disclosure by the US Government is
 subject to restrictions as set forth in subparagraphs (a)
 and (c) of the Commercial Computer Software - Restricted
 Rights clause in FAR 52.227-19.
  
 Gaussian, Inc.
 340 Quinnipiac St., Bldg. 40, Wallingford CT 06492
  
  
 ---------------------------------------------------------------
 Warning -- This program may not be used in any manner that
 competes with the business of Gaussian, Inc. or will provide
 assistance to any competitor of Gaussian, Inc.  The licensee
 of this program is prohibited from giving any competitor of
 Gaussian, Inc. access to this program.  By using this program,
 the user acknowledges that Gaussian, Inc. is engaged in the
 business of creating and licensing software in the field of
 computational chemistry and represents and warrants to the
 licensee that it is not a competitor of Gaussian, Inc. and that
 it will not use this program in any manner prohibited above.
 ---------------------------------------------------------------
  

 Cite this work as:
 Gaussian 16, Revision C.01,
 M. J. Frisch, G. W. Trucks, H. B. Schlegel, G. E. Scuseria, 
 M. A. Robb, J. R. Cheeseman, G. Scalmani, V. Barone, 
 G. A. Petersson, H. Nakatsuji, X. Li, M. Caricato, A. V. Marenich, 
 J. Bloino, B. G. Janesko, R. Gomperts, B. Mennucci, H. P. Hratchian, 
 J. V. Ortiz, A. F. Izmaylov, J. L. Sonnenberg, D. Williams-Young, 
 F. Ding, F. Lipparini, F. Egidi, J. Goings, B. Peng, A. Petrone, 
 T. Henderson, D. Ranasinghe, V. G. Zakrzewski, J. Gao, N. Rega, 
 G. Zheng, W. Liang, M. Hada, M. Ehara, K. Toyota, R. Fukuda, 
 J. Hasegawa, M. Ishida, T. Nakajima, Y. Honda, O. Kitao, H. Nakai, 
 T. Vreven, K. Throssell, J. A. Montgomery, Jr., J. E. Peralta, 
 F. Ogliaro, M. J. Bearpark, J. J. Heyd, E. N. Brothers, K. N. Kudin, 
 V. N. Staroverov, T. A. Keith, R. Kobayashi, J. Normand, 
 K. Raghavachari, A. P. Rendell, J. C. Burant, S. S. Iyengar, 
 J. Tomasi, M. Cossi, J. M. Millam, M. Klene, C. Adamo, R. Cammi, 
 J. W. Ochterski, R. L. Martin, K. Morokuma, O. Farkas, 
 J. B. Foresman, and D. J. Fox, Gaussian, Inc., Wallingford CT, 2019.
 
 ******************************************
 Gaussian 16:  EM64L-G16RevC.01  3-Jul-2019
                21-Mar-2022 
 ******************************************
 %mem=64gb
 %nproc=8
 Will use up to    8 processors via shared memory.
 ----------------------------------------------------------------------
 #P TD(Nstates=10000) pw91pw91/Gen SCF(maxcycles=100) Int(Grid=ultrafin
 e)
 ----------------------------------------------------------------------
 1/38=1,172=1/1;
 2/12=2,17=6,18=5,40=1/2;
 3/5=7,11=9,25=1,30=1,74=608,75=-5/1,2,3,8;
 4//1;
 5/5=2,7=100,38=5/2;
 8/6=1,10=1,108=10000/1;
 9/41=10000,42=1,70=2/14;
 6/7=2,8=2,9=2,10=2/1;
 99/5=1,9=1/99;
 Leave Link    1 at Mon Mar 21 20:11:15 2022, MaxMem=  8589934592 cpu:               0.4 elap:               0.1
 (Enter /home/sabyasachi/g16/l101.exe)
 ---------------------
 xGDB7_00001_tier4.com
 ---------------------
 Symbolic Z-matrix:
 Charge =  0 Multiplicity = 1
 6                     0.04642   0.65843   0. 
 8                     0.04642  -0.75193   0. 
 1                    -0.43891   1.07326   0.8908 
 1                    -0.43891   1.07326  -0.8908 
 1                     1.08786   0.97757   0. 
 1                    -0.85991  -1.05925   0. 
 
 ITRead=  0  0  0  0  0  0
 MicOpt= -1 -1 -1 -1 -1 -1
 NAtoms=      6 NQM=        6 NQMF=       0 NMMI=      0 NMMIF=      0
                NMic=       0 NMicF=      0.
                    Isotopes and Nuclear Properties:
 (Nuclear quadrupole moments (NQMom) in fm**2, nuclear magnetic moments (NMagM)
  in nuclear magnetons)

  Atom         1           2           3           4           5           6
 IAtWgt=          12          16           1           1           1           1
 AtmWgt=  12.0000000  15.9949146   1.0078250   1.0078250   1.0078250   1.0078250
 NucSpn=           0           0           1           1           1           1
 AtZEff=  -0.0000000  -0.0000000  -0.0000000  -0.0000000  -0.0000000  -0.0000000
 NQMom=    0.0000000   0.0000000   0.0000000   0.0000000   0.0000000   0.0000000
 NMagM=    0.0000000   0.0000000   2.7928460   2.7928460   2.7928460   2.7928460
 AtZNuc=   6.0000000   8.0000000   1.0000000   1.0000000   1.0000000   1.0000000
 Leave Link  101 at Mon Mar 21 20:11:15 2022, MaxMem=  8589934592 cpu:               0.7 elap:               0.1
 (Enter /home/sabyasachi/g16/l202.exe)
                          Input orientation:                          
 ---------------------------------------------------------------------
 Center     Atomic      Atomic             Coordinates (Angstroms)
 Number     Number       Type             X           Y           Z
 ---------------------------------------------------------------------
      1          6           0        0.046419    0.658432    0.000000
      2          8           0        0.046419   -0.751929    0.000000
      3          1           0       -0.438905    1.073261    0.890797
      4          1           0       -0.438905    1.073261   -0.890797
      5          1           0        1.087855    0.977571    0.000000
      6          1           0       -0.859911   -1.059251    0.000000
 ---------------------------------------------------------------------
                    Distance matrix (angstroms):
                    1          2          3          4          5
     1  C    0.000000
     2  O    1.410361   0.000000
     3  H    1.095966   2.088152   0.000000
     4  H    1.095966   2.088152   1.781594   0.000000
     5  H    1.089238   2.018851   1.770218   1.770218   0.000000
     6  H    1.942130   0.957017   2.349122   2.349122   2.818233
                    6
     6  H    0.000000
 Stoichiometry    CH4O
 Framework group  CS[SG(CH2O),X(H2)]
 Deg. of freedom     8
 Full point group                 CS      NOp   2
 Largest Abelian subgroup         CS      NOp   2
 Largest concise Abelian subgroup CS      NOp   2
                         Standard orientation:                         
 ---------------------------------------------------------------------
 Center     Atomic      Atomic             Coordinates (Angstroms)
 Number     Number       Type             X           Y           Z
 ---------------------------------------------------------------------
      1          6           0        0.046419    0.658432    0.000000
      2          8           0        0.046419   -0.751929    0.000000
      3          1           0       -0.438905    1.073261    0.890797
      4          1           0       -0.438905    1.073261   -0.890797
      5          1           0        1.087855    0.977571    0.000000
      6          1           0       -0.859911   -1.059251    0.000000
 ---------------------------------------------------------------------
 Rotational constants (GHZ):         128.7867885          25.0443601          24.1755020
 Leave Link  202 at Mon Mar 21 20:11:15 2022, MaxMem=  8589934592 cpu:               0.1 elap:               0.0
 (Enter /home/sabyasachi/g16/l301.exe)
 General basis read from cards:  (5D, 7F)
 Centers:       3      4      5      6
 S 3 1.00
     Exponent=  1.3010701000D+01 Coefficients=  1.9682158000D-02
     Exponent=  1.9622572000D+00 Coefficients=  1.3796524000D-01
     Exponent=  4.4453796000D-01 Coefficients=  4.7831935000D-01
 S 1 1.00
     Exponent=  1.2194962000D-01 Coefficients=  1.0000000000D+00
 P 1 1.00
     Exponent=  8.0000000000D-01 Coefficients=  1.0000000000D+00
 P 1 1.00
     Exponent=  1.1704099050D-01 Coefficients=  1.0000000000D+00
 ****
 Centers:       1
 S 5 1.00
     Exponent=  1.2384016938D+03 Coefficients=  5.4568832082D-03
     Exponent=  1.8629004992D+02 Coefficients=  4.0638409211D-02
     Exponent=  4.2251176346D+01 Coefficients=  1.8025593888D-01
     Exponent=  1.1676557932D+01 Coefficients=  4.6315121755D-01
     Exponent=  3.5930506482D+00 Coefficients=  4.4087173314D-01
 S 1 1.00
     Exponent=  4.0245147363D-01 Coefficients=  1.0000000000D+00
 S 1 1.00
     Exponent=  1.3090182668D-01 Coefficients=  1.0000000000D+00
 S 1 1.00
     Exponent=  6.7053540256D-02 Coefficients=  1.0000000000D+00
 P 3 1.00
     Exponent=  9.4680970621D+00 Coefficients=  3.8387871728D-02
     Exponent=  2.0103545142D+00 Coefficients=  2.1117025112D-01
     Exponent=  5.4771004707D-01 Coefficients=  5.1328172114D-01
 P 1 1.00
     Exponent=  1.5268613795D-01 Coefficients=  1.0000000000D+00
 D 1 1.00
     Exponent=  8.0000000000D-01 Coefficients=  1.0000000000D+00
 D 1 1.00
     Exponent=  1.1713185140D-01 Coefficients=  1.0000000000D+00
 ****
 Centers:       2
 S 5 1.00
     Exponent=  2.2661767785D+03 Coefficients= -5.3431809926D-03
     Exponent=  3.4087010191D+02 Coefficients= -3.9890039230D-02
     Exponent=  7.7363135167D+01 Coefficients= -1.7853911985D-01
     Exponent=  2.1479644940D+01 Coefficients= -4.6427684959D-01
     Exponent=  6.6589433124D+00 Coefficients= -4.4309745172D-01
 S 1 1.00
     Exponent=  8.0975975668D-01 Coefficients=  1.0000000000D+00
 S 1 1.00
     Exponent=  2.5530772234D-01 Coefficients=  1.0000000000D+00
 S 1 1.00
     Exponent=  7.6572453250D-02 Coefficients=  1.0000000000D+00
 P 3 1.00
     Exponent=  1.7721504317D+01 Coefficients=  4.3394573193D-02
     Exponent=  3.8635505440D+00 Coefficients=  2.3094120765D-01
     Exponent=  1.0480920883D+00 Coefficients=  5.1375311064D-01
 P 1 1.00
     Exponent=  2.7641544411D-01 Coefficients=  1.0000000000D+00
 P 1 1.00
     Exponent=  6.9002276350D-02 Coefficients=  1.0000000000D+00
 D 1 1.00
     Exponent=  1.2000000000D+00 Coefficients=  1.0000000000D+00
 D 1 1.00
     Exponent=  1.7992024323D-01 Coefficients=  1.0000000000D+00
 ****
 Ernie: Thresh=  0.10000D-02 Tol=  0.10000D-05 Strict=F.
 There are    54 symmetry adapted cartesian basis functions of A'  symmetry.
 There are    25 symmetry adapted cartesian basis functions of A"  symmetry.
 There are    50 symmetry adapted basis functions of A'  symmetry.
 There are    25 symmetry adapted basis functions of A"  symmetry.
    75 basis functions,   107 primitive gaussians,    79 cartesian basis functions
     9 alpha electrons        9 beta electrons
       nuclear repulsion energy        40.4621956244 Hartrees.
 IExCor=  608 DFT=T Ex=PW91 Corr=PW91 ExCW=0 ScaHFX=  0.000000
 ScaDFX=  1.000000  1.000000  1.000000  1.000000 ScalE2=  1.000000  1.000000
 IRadAn=      5 IRanWt=     -1 IRanGd=            0 ICorTp=0 IEmpDi=  4
 NAtoms=    6 NActive=    6 NUniq=    5 SFac= 1.44D+00 NAtFMM=   60 NAOKFM=F Big=F
 Integral buffers will be    131072 words long.
 Regular integral format.
 Two-electron integral symmetry is turned on.
 Leave Link  301 at Mon Mar 21 20:11:16 2022, MaxMem=  8589934592 cpu:               0.6 elap:               0.1
 (Enter /home/sabyasachi/g16/l302.exe)
 NPDir=0 NMtPBC=     1 NCelOv=     1 NCel=       1 NClECP=     1 NCelD=      1
         NCelK=      1 NCelE2=     1 NClLst=     1 CellRange=     0.0.
 One-electron integrals computed using PRISM.
 One-electron integral symmetry used in STVInt
 NBasis=    75 RedAO= T EigKep=  5.97D-04  NBF=    50    25
 NBsUse=    75 1.00D-06 EigRej= -1.00D+00 NBFU=    50    25
 Precomputing XC quadrature grid using
 IXCGrd= 4 IRadAn=           5 IRanWt=          -1 IRanGd=           0 AccXCQ= 0.00D+00.
 Generated NRdTot=       0 NPtTot=           0 NUsed=           0 NTot=          32
 NSgBfM=    79    79    79    79    79 MxSgAt=     6 MxSgA2=     6.
 Leave Link  302 at Mon Mar 21 20:11:16 2022, MaxMem=  8589934592 cpu:               0.9 elap:               0.1
 (Enter /home/sabyasachi/g16/l303.exe)
 DipDrv:  MaxL=1.
 Leave Link  303 at Mon Mar 21 20:11:16 2022, MaxMem=  8589934592 cpu:               0.2 elap:               0.0
 (Enter /home/sabyasachi/g16/l308.exe)
 Leave Link  308 at Mon Mar 21 20:11:16 2022, MaxMem=  8589934592 cpu:               0.2 elap:               0.0
 (Enter /home/sabyasachi/g16/l401.exe)
 ExpMin= 6.71D-02 ExpMax= 2.27D+03 ExpMxC= 3.41D+02 IAcc=3 IRadAn=         5 AccDes= 0.00D+00
 Harris functional with IExCor=  608 and IRadAn=       5 diagonalized for initial guess.
 HarFok:  IExCor=  608 AccDes= 0.00D+00 IRadAn=         5 IDoV= 1 UseB2=F ITyADJ=14
 ICtDFT=  3500011 ScaDFX=  1.000000  1.000000  1.000000  1.000000
 FoFCou: FMM=F IPFlag=           0 FMFlag=      100000 FMFlg1=           0
         NFxFlg=           0 DoJE=T BraDBF=F KetDBF=T FulRan=T
         wScrn=  0.000000 ICntrl=       500 IOpCl=  0 I1Cent=   200000004 NGrid=           0
         NMat0=    1 NMatS0=      1 NMatT0=    0 NMatD0=    1 NMtDS0=    0 NMtDT0=    0
 Petite list used in FoFCou.
 Harris En= -115.660525348266    
 JPrj=0 DoOrth=F DoCkMO=F.
 Initial guess orbital symmetries:
       Occupied  (A') (A') (A') (A') (A') (A") (A') (A') (A")
       Virtual   (A') (A') (A') (A") (A') (A') (A") (A') (A") (A')
                 (A') (A') (A') (A") (A") (A') (A') (A") (A') (A")
                 (A') (A') (A") (A') (A') (A") (A') (A') (A") (A')
                 (A') (A") (A') (A') (A") (A') (A") (A') (A') (A')
                 (A") (A') (A") (A') (A") (A') (A') (A") (A') (A")
                 (A') (A") (A') (A') (A') (A') (A") (A') (A') (A")
                 (A') (A") (A") (A') (A') (A')
 The electronic state of the initial guess is 1-A'.
 Leave Link  401 at Mon Mar 21 20:11:16 2022, MaxMem=  8589934592 cpu:               1.6 elap:               0.2
 (Enter /home/sabyasachi/g16/l502.exe)
 Keep J ints in memory in symmetry-blocked form, NReq=11285045.
 FoFCou: FMM=F IPFlag=           0 FMFlag=           0 FMFlg1=           0
         NFxFlg=           0 DoJE=F BraDBF=F KetDBF=F FulRan=T
         wScrn=  0.000000 ICntrl=       600 IOpCl=  0 I1Cent=           0 NGrid=           0
         NMat0=    1 NMatS0=   2850 NMatT0=    0 NMatD0=    1 NMtDS0=    0 NMtDT0=    0
 Petite list used in FoFCou.
 Closed shell SCF:
 Using DIIS extrapolation, IDIIS=  1040.
 NGot=  8589934592 LenX=  8587850961 LenY=  8587844279
 Requested convergence on RMS density matrix=1.00D-08 within 100 cycles.
 Requested convergence on MAX density matrix=1.00D-06.
 Requested convergence on             energy=1.00D-06.
 No special actions if energy rises.
 Integral accuracy reduced to 1.0D-05 until final iterations.

 Cycle   1  Pass 0  IDiag  1:
 E= -115.530713611323    
 DIIS: error= 2.76D-02 at cycle   1 NSaved=   1.
 NSaved= 1 IEnMin= 1 EnMin= -115.530713611323     IErMin= 1 ErrMin= 2.76D-02
 ErrMax= 2.76D-02  0.00D+00 EMaxC= 1.00D-01 BMatC= 7.05D-02 BMatP= 7.05D-02
 IDIUse=3 WtCom= 7.24D-01 WtEn= 2.76D-01
 Coeff-Com:  0.100D+01
 Coeff-En:   0.100D+01
 Coeff:      0.100D+01
 Gap=     0.128 Goal=   None    Shift=    0.000
 GapD=    0.128 DampG=1.000 DampE=0.500 DampFc=0.5000 IDamp=-1.
 Damping current iteration by 5.00D-01
 RMSDP=7.69D-03 MaxDP=1.53D-01              OVMax= 2.23D-01

 Cycle   2  Pass 0  IDiag  1:
 E= -115.534679943834     Delta-E=       -0.003966332511 Rises=F Damp=T
 DIIS: error= 1.55D-02 at cycle   2 NSaved=   2.
 NSaved= 2 IEnMin= 2 EnMin= -115.534679943834     IErMin= 2 ErrMin= 1.55D-02
 ErrMax= 1.55D-02  0.00D+00 EMaxC= 1.00D-01 BMatC= 1.91D-02 BMatP= 7.05D-02
 IDIUse=3 WtCom= 8.45D-01 WtEn= 1.55D-01
 Coeff-Com:  0.328D+00 0.672D+00
 Coeff-En:   0.478D+00 0.522D+00
 Coeff:      0.351D+00 0.649D+00
 Gap=     0.221 Goal=   None    Shift=    0.000
 RMSDP=1.80D-03 MaxDP=3.21D-02 DE=-3.97D-03 OVMax= 1.55D-01

 Cycle   3  Pass 0  IDiag  1:
 E= -115.597077683929     Delta-E=       -0.062397740096 Rises=F Damp=F
 DIIS: error= 6.59D-03 at cycle   3 NSaved=   3.
 NSaved= 3 IEnMin= 3 EnMin= -115.597077683929     IErMin= 3 ErrMin= 6.59D-03
 ErrMax= 6.59D-03  0.00D+00 EMaxC= 1.00D-01 BMatC= 3.59D-03 BMatP= 1.91D-02
 IDIUse=3 WtCom= 9.34D-01 WtEn= 6.59D-02
 Coeff-Com:  0.163D+00 0.357D+00 0.480D+00
 Coeff-En:   0.000D+00 0.000D+00 0.100D+01
 Coeff:      0.152D+00 0.333D+00 0.514D+00
 Gap=     0.222 Goal=   None    Shift=    0.000
 RMSDP=8.46D-04 MaxDP=2.19D-02 DE=-6.24D-02 OVMax= 2.08D-02

 Cycle   4  Pass 0  IDiag  1:
 E= -115.600014996801     Delta-E=       -0.002937312872 Rises=F Damp=F
 DIIS: error= 2.03D-03 at cycle   4 NSaved=   4.
 NSaved= 4 IEnMin= 4 EnMin= -115.600014996801     IErMin= 4 ErrMin= 2.03D-03
 ErrMax= 2.03D-03  0.00D+00 EMaxC= 1.00D-01 BMatC= 5.02D-04 BMatP= 3.59D-03
 IDIUse=3 WtCom= 9.80D-01 WtEn= 2.03D-02
 Coeff-Com:  0.487D-01 0.111D+00 0.289D+00 0.552D+00
 Coeff-En:   0.000D+00 0.000D+00 0.911D-01 0.909D+00
 Coeff:      0.477D-01 0.108D+00 0.285D+00 0.559D+00
 Gap=     0.220 Goal=   None    Shift=    0.000
 RMSDP=2.72D-04 MaxDP=6.50D-03 DE=-2.94D-03 OVMax= 6.24D-03

 Cycle   5  Pass 0  IDiag  1:
 E= -115.600448381818     Delta-E=       -0.000433385017 Rises=F Damp=F
 DIIS: error= 2.85D-04 at cycle   5 NSaved=   5.
 NSaved= 5 IEnMin= 5 EnMin= -115.600448381818     IErMin= 5 ErrMin= 2.85D-04
 ErrMax= 2.85D-04  0.00D+00 EMaxC= 1.00D-01 BMatC= 5.63D-06 BMatP= 5.02D-04
 IDIUse=3 WtCom= 9.97D-01 WtEn= 2.85D-03
 Coeff-Com:  0.220D-02 0.606D-02 0.409D-01 0.154D+00 0.797D+00
 Coeff-En:   0.000D+00 0.000D+00 0.000D+00 0.000D+00 0.100D+01
 Coeff:      0.220D-02 0.604D-02 0.408D-01 0.154D+00 0.797D+00
 Gap=     0.220 Goal=   None    Shift=    0.000
 RMSDP=4.06D-05 MaxDP=4.72D-04 DE=-4.33D-04 OVMax= 6.75D-04

 Cycle   6  Pass 0  IDiag  1:
 E= -115.600453262457     Delta-E=       -0.000004880639 Rises=F Damp=F
 DIIS: error= 2.03D-05 at cycle   6 NSaved=   6.
 NSaved= 6 IEnMin= 6 EnMin= -115.600453262457     IErMin= 6 ErrMin= 2.03D-05
 ErrMax= 2.03D-05  0.00D+00 EMaxC= 1.00D-01 BMatC= 4.57D-08 BMatP= 5.63D-06
 IDIUse=1 WtCom= 1.00D+00 WtEn= 0.00D+00
 Coeff-Com:  0.339D-03-0.209D-03 0.414D-02 0.161D-01 0.118D+00 0.862D+00
 Coeff:      0.339D-03-0.209D-03 0.414D-02 0.161D-01 0.118D+00 0.862D+00
 Gap=     0.220 Goal=   None    Shift=    0.000
 RMSDP=5.28D-06 MaxDP=5.26D-05 DE=-4.88D-06 OVMax= 6.59D-05

 Initial convergence to 1.0D-05 achieved.  Increase integral accuracy.
 Cycle   7  Pass 1  IDiag  1:
 E= -115.600450794131     Delta-E=        0.000002468326 Rises=F Damp=F
 DIIS: error= 5.44D-06 at cycle   1 NSaved=   1.
 NSaved= 1 IEnMin= 1 EnMin= -115.600450794131     IErMin= 1 ErrMin= 5.44D-06
 ErrMax= 5.44D-06  0.00D+00 EMaxC= 1.00D-01 BMatC= 2.69D-09 BMatP= 2.69D-09
 IDIUse=1 WtCom= 1.00D+00 WtEn= 0.00D+00
 Coeff-Com:  0.100D+01
 Coeff:      0.100D+01
 Gap=     0.220 Goal=   None    Shift=    0.000
 RMSDP=5.28D-06 MaxDP=5.26D-05 DE= 2.47D-06 OVMax= 3.29D-05

 Cycle   8  Pass 1  IDiag  1:
 E= -115.600450794192     Delta-E=       -0.000000000061 Rises=F Damp=F
 DIIS: error= 5.67D-06 at cycle   2 NSaved=   2.
 NSaved= 2 IEnMin= 2 EnMin= -115.600450794192     IErMin= 1 ErrMin= 5.44D-06
 ErrMax= 5.67D-06  0.00D+00 EMaxC= 1.00D-01 BMatC= 3.71D-09 BMatP= 2.69D-09
 IDIUse=1 WtCom= 1.00D+00 WtEn= 0.00D+00
 Coeff-Com:  0.545D+00 0.455D+00
 Coeff:      0.545D+00 0.455D+00
 Gap=     0.220 Goal=   None    Shift=    0.000
 RMSDP=7.43D-07 MaxDP=1.59D-05 DE=-6.05D-11 OVMax= 1.95D-05

 Cycle   9  Pass 1  IDiag  1:
 E= -115.600450797075     Delta-E=       -0.000000002883 Rises=F Damp=F
 DIIS: error= 2.22D-06 at cycle   3 NSaved=   3.
 NSaved= 3 IEnMin= 3 EnMin= -115.600450797075     IErMin= 3 ErrMin= 2.22D-06
 ErrMax= 2.22D-06  0.00D+00 EMaxC= 1.00D-01 BMatC= 4.30D-10 BMatP= 2.69D-09
 IDIUse=1 WtCom= 1.00D+00 WtEn= 0.00D+00
 Coeff-Com:  0.227D+00 0.280D+00 0.493D+00
 Coeff:      0.227D+00 0.280D+00 0.493D+00
 Gap=     0.220 Goal=   None    Shift=    0.000
 RMSDP=2.52D-07 MaxDP=4.47D-06 DE=-2.88D-09 OVMax= 5.93D-06

 Cycle  10  Pass 1  IDiag  1:
 E= -115.600450797405     Delta-E=       -0.000000000330 Rises=F Damp=F
 DIIS: error= 3.89D-07 at cycle   4 NSaved=   4.
 NSaved= 4 IEnMin= 4 EnMin= -115.600450797405     IErMin= 4 ErrMin= 3.89D-07
 ErrMax= 3.89D-07  0.00D+00 EMaxC= 1.00D-01 BMatC= 1.86D-11 BMatP= 4.30D-10
 IDIUse=1 WtCom= 1.00D+00 WtEn= 0.00D+00
 Coeff-Com:  0.365D-01 0.649D-01 0.217D+00 0.681D+00
 Coeff:      0.365D-01 0.649D-01 0.217D+00 0.681D+00
 Gap=     0.220 Goal=   None    Shift=    0.000
 RMSDP=6.25D-08 MaxDP=1.53D-06 DE=-3.30D-10 OVMax= 1.61D-06

 Cycle  11  Pass 1  IDiag  1:
 E= -115.600450797416     Delta-E=       -0.000000000012 Rises=F Damp=F
 DIIS: error= 1.85D-07 at cycle   5 NSaved=   5.
 NSaved= 5 IEnMin= 5 EnMin= -115.600450797416     IErMin= 5 ErrMin= 1.85D-07
 ErrMax= 1.85D-07  0.00D+00 EMaxC= 1.00D-01 BMatC= 3.66D-12 BMatP= 1.86D-11
 IDIUse=1 WtCom= 1.00D+00 WtEn= 0.00D+00
 Coeff-Com:  0.166D-02 0.140D-01 0.875D-01 0.397D+00 0.500D+00
 Coeff:      0.166D-02 0.140D-01 0.875D-01 0.397D+00 0.500D+00
 Gap=     0.220 Goal=   None    Shift=    0.000
 RMSDP=2.50D-08 MaxDP=6.27D-07 DE=-1.16D-11 OVMax= 6.26D-07

 Cycle  12  Pass 1  IDiag  1:
 E= -115.600450797420     Delta-E=       -0.000000000004 Rises=F Damp=F
 DIIS: error= 1.28D-08 at cycle   6 NSaved=   6.
 NSaved= 6 IEnMin= 6 EnMin= -115.600450797420     IErMin= 6 ErrMin= 1.28D-08
 ErrMax= 1.28D-08  0.00D+00 EMaxC= 1.00D-01 BMatC= 2.33D-14 BMatP= 3.66D-12
 IDIUse=1 WtCom= 1.00D+00 WtEn= 0.00D+00
 Coeff-Com: -0.142D-03 0.331D-02 0.238D-01 0.113D+00 0.174D+00 0.685D+00
 Coeff:     -0.142D-03 0.331D-02 0.238D-01 0.113D+00 0.174D+00 0.685D+00
 Gap=     0.220 Goal=   None    Shift=    0.000
 RMSDP=2.97D-09 MaxDP=4.45D-08 DE=-3.84D-12 OVMax= 5.39D-08

 SCF Done:  E(RPW91-PW91) =  -115.600450797     A.U. after   12 cycles
            NFock= 12  Conv=0.30D-08     -V/T= 2.0094
 KE= 1.145245868742D+02 PE=-3.515022204831D+02 EE= 8.091498718710D+01
 Leave Link  502 at Mon Mar 21 20:11:17 2022, MaxMem=  8589934592 cpu:               6.9 elap:               0.9
 (Enter /home/sabyasachi/g16/l801.exe)
 DoSCS=F DFT=T ScalE2(SS,OS)=  1.000000  1.000000
 ExpMin= 6.71D-02 ExpMax= 2.27D+03 ExpMxC= 3.41D+02 IAcc=3 IRadAn=         5 AccDes= 0.00D+00
 HarFok:  IExCor=  205 AccDes= 0.00D+00 IRadAn=         5 IDoV=-2 UseB2=F ITyADJ=14
 ICtDFT= 12500011 ScaDFX=  1.000000  1.000000  1.000000  1.000000
 Largest valence mixing into a core orbital is  6.67D-05
 Largest core mixing into a valence orbital is  1.32D-05
 Range of M.O.s used for correlation:     3    75
 NBasis=    75 NAE=     9 NBE=     9 NFC=     2 NFV=     0
 NROrb=     73 NOA=     7 NOB=     7 NVA=    66 NVB=    66

 **** Warning!!: The largest alpha MO coefficient is  0.21760871D+02

 Leave Link  801 at Mon Mar 21 20:11:17 2022, MaxMem=  8589934592 cpu:               0.5 elap:               0.1
 (Enter /home/sabyasachi/g16/l914.exe)
 RHF ground state
 Keep J ints in memory in symmetry-blocked form, NReq=261710113.
 FoFCou: FMM=F IPFlag=           0 FMFlag=           0 FMFlg1=           0
         NFxFlg=           0 DoJE=F BraDBF=F KetDBF=F FulRan=T
         wScrn=  0.000000 ICntrl=       600 IOpCl=  0 I1Cent=           0 NGrid=           0
         NMat0=    1 NMatS0=   2850 NMatT0=    0 NMatD0=    1 NMtDS0=    0 NMtDT0=    0
 Petite list used in FoFCou.
 MDV=  8589934592 DFT=T DoStab=F Mixed=F DoRPA=T DoScal=T NonHer=F
 Making orbital integer symmetry assigments:
 Orbital symmetries:
       Occupied  (A') (A') (A') (A') (A') (A") (A') (A') (A")
       Virtual   (A') (A') (A") (A') (A') (A') (A") (A') (A") (A')
                 (A') (A') (A") (A') (A") (A') (A") (A') (A") (A')
                 (A') (A') (A") (A') (A') (A") (A') (A') (A") (A')
                 (A') (A") (A') (A') (A") (A') (A") (A') (A') (A')
                 (A") (A') (A") (A') (A") (A') (A') (A") (A") (A')
                 (A') (A") (A') (A') (A') (A') (A") (A') (A') (A")
                 (A') (A") (A") (A') (A') (A')
   462 initial guesses have been made.
 Convergence on wavefunction:    0.001000000000000
 Davidson Disk Diagonalization:  ConvIn= 1.00D-03 SkipCon=T Conv= 1.00D-03.
 Max sub-space:  1848 roots to seek:   924 dimension of matrix:          924
 *** WARNING: Number of orthogonal guesses is          462
 Iteration     1 Dimension   462 NMult     0 NNew    462
 CISAX will form   462 AO SS matrices at one time.
 NMat=   462 NSing=   462 JSym2X=-1.
 New state      4 was old state      5
 New state      5 was old state      4
 New state      9 was old state     10
 New state     10 was old state      9
 New state     14 was old state     15
 New state     15 was old state     14
 New state     17 was old state     18
 New state     18 was old state     19
 New state     19 was old state     17
 New state     22 was old state     23
 New state     23 was old state     22
 New state     28 was old state     29
 New state     29 was old state     30
 New state     30 was old state     32
 New state     32 was old state     34
 New state     34 was old state     35
 New state     35 was old state     42
 New state     36 was old state     37
 New state     37 was old state     36
 New state     38 was old state     40
 New state     39 was old state     38
 New state     40 was old state     41
 New state     41 was old state     39
 New state     42 was old state     43
 New state     43 was old state     44
 New state     44 was old state     45
 New state     45 was old state     46
 New state     46 was old state     47
 New state     47 was old state     49
 New state     49 was old state     55
 New state     53 was old state     54
 New state     54 was old state     56
 New state     55 was old state     57
 New state     56 was old state     53
 New state     57 was old state     58
 New state     58 was old state     59
 New state     59 was old state     60
 New state     60 was old state     61
 New state     61 was old state     63
 New state     63 was old state     64
 New state     64 was old state     67
 New state     65 was old state     66
 New state     66 was old state     65
 New state     67 was old state     69
 New state     69 was old state     77
 New state     75 was old state     79
 New state     76 was old state     78
 New state     77 was old state     76
 New state     78 was old state     75
 New state     79 was old state     81
 New state     81 was old state     84
 New state     83 was old state     86
 New state     84 was old state     88
 New state     85 was old state     83
 New state     86 was old state     85
 New state     88 was old state     91
 New state     89 was old state     92
 New state     91 was old state     89
 New state     92 was old state     93
 New state     93 was old state     96
 New state     96 was old state     97
 New state     97 was old state     99
 New state     99 was old state    101
 New state    100 was old state    102
 New state    101 was old state    104
 New state    102 was old state    100
 New state    104 was old state    107
 New state    107 was old state    109
 New state    108 was old state    112
 New state    109 was old state    108
 New state    110 was old state    111
 New state    111 was old state    114
 New state    112 was old state    110
 New state    114 was old state    115
 New state    115 was old state    117
 New state    116 was old state    118
 New state    117 was old state    116
 New state    118 was old state    120
 New state    120 was old state    122
 New state    121 was old state    127
 New state    122 was old state    123
 New state    123 was old state    124
 New state    124 was old state    121
 New state    125 was old state    126
 New state    126 was old state    125
 New state    127 was old state    133
 New state    129 was old state    130
 New state    130 was old state    129
 New state    131 was old state    132
 New state    132 was old state    131
 New state    133 was old state    135
 New state    135 was old state    136
 New state    136 was old state    138
 New state    137 was old state    139
 New state    138 was old state    137
 New state    139 was old state    140
 New state    140 was old state    141
 New state    141 was old state    146
 New state    142 was old state    147
 New state    143 was old state    144
 New state    144 was old state    143
 New state    146 was old state    149
 New state    147 was old state    148
 New state    148 was old state    150
 New state    149 was old state    152
 New state    150 was old state    151
 New state    151 was old state    142
 New state    152 was old state    153
 New state    153 was old state    155
 New state    154 was old state    158
 New state    155 was old state    154
 New state    157 was old state    159
 New state    158 was old state    157
 New state    159 was old state    160
 New state    160 was old state    161
 New state    161 was old state    162
 New state    162 was old state    165
 New state    164 was old state    169
 New state    165 was old state    164
 New state    168 was old state    172
 New state    169 was old state    168
 New state    170 was old state    171
 New state    171 was old state    170
 New state    172 was old state    173
 New state    173 was old state    174
 New state    174 was old state    176
 New state    176 was old state    177
 New state    177 was old state    178
 New state    178 was old state    179
 New state    179 was old state    191
 New state    183 was old state    184
 New state    184 was old state    185
 New state    185 was old state    183
 New state    186 was old state    188
 New state    188 was old state    189
 New state    189 was old state    186
 New state    191 was old state    192
 New state    192 was old state    193
 New state    193 was old state    194
 New state    194 was old state    195
 New state    195 was old state    198
 New state    198 was old state    199
 New state    199 was old state    200
 New state    200 was old state    201
 New state    201 was old state    215
 New state    203 was old state    204
 New state    204 was old state    203
 New state    208 was old state    210
 New state    209 was old state    208
 New state    210 was old state    212
 New state    211 was old state    213
 New state    212 was old state    214
 New state    213 was old state    211
 New state    214 was old state    217
 New state    215 was old state    216
 New state    216 was old state    221
 New state    217 was old state    219
 New state    219 was old state    222
 New state    221 was old state    224
 New state    222 was old state    226
 New state    224 was old state    225
 New state    225 was old state    227
 New state    226 was old state    228
 New state    227 was old state    231
 New state    228 was old state    229
 New state    229 was old state    230
 New state    230 was old state    233
 New state    231 was old state    232
 New state    232 was old state    234
 New state    233 was old state    235
 New state    234 was old state    240
 New state    235 was old state    236
 New state    236 was old state    237
 New state    237 was old state    242
 New state    238 was old state    239
 New state    239 was old state    238
 New state    240 was old state    243
 New state    242 was old state    248
 New state    243 was old state    244
 New state    244 was old state    247
 New state    247 was old state    249
 New state    248 was old state    252
 New state    249 was old state    250
 New state    250 was old state    251
 New state    251 was old state    255
 New state    252 was old state    253
 New state    253 was old state    254
 New state    254 was old state    256
 No map to state    255
 New state    256 was old state    257
 New state    257 was old state    258
 New state    258 was old state    259
 New state    259 was old state    261
 New state    261 was old state    264
 New state    264 was old state    265
 New state    265 was old state    269
 New state    269 was old state    273
 New state    271 was old state    272
 New state    272 was old state    271
 New state    273 was old state    274
 New state    274 was old state    275
 New state    275 was old state    276
 New state    276 was old state    278
 New state    278 was old state    279
 New state    279 was old state    280
 New state    280 was old state    281
 New state    281 was old state    285
 New state    285 was old state    286
 New state    286 was old state    287
 New state    287 was old state    288
 New state    288 was old state    291
 New state    289 was old state    290
 New state    290 was old state    293
 New state    291 was old state    289
 New state    292 was old state    294
 New state    293 was old state    292
 New state    294 was old state    295
 New state    295 was old state    296
 New state    296 was old state    298
 New state    297 was old state    300
 New state    298 was old state    299
 New state    299 was old state    297
 New state    300 was old state    302
 New state    302 was old state    310
 New state    305 was old state    306
 New state    306 was old state    305
 New state    307 was old state    308
 New state    308 was old state    307
 New state    310 was old state    311
 New state    311 was old state    312
 New state    312 was old state    313
 New state    313 was old state    314
 New state    314 was old state    317
 New state    316 was old state    319
 New state    317 was old state    316
 New state    319 was old state    320
 New state    320 was old state    321
 New state    321 was old state    322
 New state    322 was old state    329
 New state    324 was old state    325
 New state    325 was old state    324
 New state    329 was old state    330
 New state    330 was old state    331
 New state    331 was old state    332
 New state    332 was old state    333
 New state    333 was old state    334
 New state    334 was old state    335
 New state    335 was old state    336
 New state    336 was old state    338
 New state    337 was old state    339
 New state    338 was old state    337
 New state    339 was old state    340
 New state    340 was old state    342
 New state    342 was old state    343
 New state    343 was old state    345
 New state    345 was old state    349
 New state    346 was old state    347
 New state    347 was old state    346
 New state    348 was old state    350
 New state    349 was old state    348
 New state    350 was old state    351
 New state    351 was old state    353
 New state    353 was old state    354
 New state    354 was old state    355
 New state    355 was old state    356
 New state    356 was old state    357
 No map to state    357
 New state    367 was old state    368
 New state    368 was old state    369
 New state    369 was old state    367
 New state    378 was old state    379
 New state    379 was old state    380
 New state    380 was old state    381
 New state    381 was old state    383
 New state    383 was old state    384
 New state    384 was old state    378
 New state    394 was old state    395
 New state    395 was old state    394
 New state    402 was old state    403
 New state    403 was old state    402
 New state    408 was old state    409
 New state    409 was old state    408
 New state    418 was old state    419
 New state    419 was old state    420
 New state    420 was old state    422
 New state    422 was old state    423
 New state    423 was old state    418
 New state    424 was old state    425
 New state    425 was old state    424
 New state    431 was old state    432
 New state    432 was old state    433
 New state    433 was old state    431
 New state    435 was old state    436
 New state    436 was old state    437
 New state    437 was old state    438
 New state    438 was old state    435
 New state    439 was old state    440
 New state    440 was old state    441
 New state    441 was old state    442
 New state    442 was old state    439
 New state    446 was old state    447
 New state    447 was old state    446
 New state    457 was old state    458
 New state    458 was old state    457
 Excitation Energies [eV] at current iteration:
 Root      1 :     6.082824935172743
 Root      2 :     7.039958201639817
 Root      3 :     7.727625721142916
 Root      4 :     8.135024974106724
 Root      5 :     8.197074506381860
 Root      6 :     8.717572106634865
 Root      7 :     9.000772772039019
 Root      8 :     9.350705155860062
 Root      9 :     9.764079579969774
 Root     10 :     9.813092693515788
 Root     11 :     9.845839802889488
 Root     12 :    10.218644580373050
 Root     13 :    10.261659798735650
 Root     14 :    10.465639679514030
 Root     15 :    10.469871329545310
 Root     16 :    10.749096950831930
 Root     17 :    11.139916236995360
 Root     18 :    11.170541107617990
 Root     19 :    11.341825883047740
 Root     20 :    11.343407667358520
 Root     21 :    11.446977321809540
 Root     22 :    11.924304756503750
 Root     23 :    12.001627612341490
 Root     24 :    12.153807175787780
 Root     25 :    12.233233918654790
 Root     26 :    12.403880396990690
 Root     27 :    12.470170634910650
 Root     28 :    12.529066357516130
 Root     29 :    13.013678259669590
 Root     30 :    13.146502637020050
 Root     31 :    13.185083879593860
 Root     32 :    13.284745290845240
 Root     33 :    13.368352308861120
 Root     34 :    13.414457616977250
 Root     35 :    13.509128161254820
 Root     36 :    13.580414553222290
 Root     37 :    13.628145504835800
 Root     38 :    13.733189045011360
 Root     39 :    13.745013430745020
 Root     40 :    13.983847600527650
 Root     41 :    14.061685895991590
 Root     42 :    14.273485653006810
 Root     43 :    14.406185439845300
 Root     44 :    14.470687536728540
 Root     45 :    14.532753830853940
 Root     46 :    14.600201733817250
 Root     47 :    14.652885322788630
 Root     48 :    14.765543543389300
 Root     49 :    14.883294589230390
 Root     50 :    14.919032003078470
 Root     51 :    15.139816955607280
 Root     52 :    15.245914501909880
 Root     53 :    15.295234783346420
 Root     54 :    15.318898154247600
 Root     55 :    15.431646292417480
 Root     56 :    15.456611981904340
 Root     57 :    15.582860302693070
 Root     58 :    15.630332093348960
 Root     59 :    15.810895272911530
 Root     60 :    15.876800741533350
 Root     61 :    15.949419477105780
 Root     62 :    16.064188245990480
 Root     63 :    16.293941292913480
 Root     64 :    16.374020093342100
 Root     65 :    16.390453166941940
 Root     66 :    16.498634939270080
 Root     67 :    16.609334858892090
 Root     68 :    16.635019070944890
 Root     69 :    16.783634884421870
 Root     70 :    16.935587468363350
 Root     71 :    17.090224318677270
 Root     72 :    17.163648374888620
 Root     73 :    17.342226680164610
 Root     74 :    17.344658428543540
 Root     75 :    17.512269107123540
 Root     76 :    17.512441088178320
 Root     77 :    17.530682305954330
 Root     78 :    17.686857562974350
 Root     79 :    17.766508187588110
 Root     80 :    17.804402338239370
 Root     81 :    17.857890624102590
 Root     82 :    17.892045948369770
 Root     83 :    18.074017680030420
 Root     84 :    18.100611702853250
 Root     85 :    18.142069981197830
 Root     86 :    18.142925368003130
 Root     87 :    18.364894567784560
 Root     88 :    18.609691480950440
 Root     89 :    18.631012544600280
 Root     90 :    18.688251840271560
 Root     91 :    18.692586062660240
 Root     92 :    18.821031710632880
 Root     93 :    18.917629608673270
 Root     94 :    19.007427458532900
 Root     95 :    19.354476257278760
 Root     96 :    19.399975388278370
 Root     97 :    19.455104675848990
 Root     98 :    19.501787239569310
 Root     99 :    19.540357670054120
 Root    100 :    19.636638456342670
 Root    101 :    19.677235433879680
 Root    102 :    19.689726103284840
 Root    103 :    19.716882272282650
 Root    104 :    19.731368221493560
 Root    105 :    19.788577889709640
 Root    106 :    19.827562434202020
 Root    107 :    19.947585360867580
 Root    108 :    20.115379016509100
 Root    109 :    20.163652972603490
 Root    110 :    20.218777345288530
 Root    111 :    20.256559700657380
 Root    112 :    20.358545728042560
 Root    113 :    20.464080526398160
 Root    114 :    20.580531144618850
 Root    115 :    20.699981750327360
 Root    116 :    20.753242841895030
 Root    117 :    20.761732099535080
 Root    118 :    20.829495413393250
 Root    119 :    20.836100305525420
 Root    120 :    21.281459481482610
 Root    121 :    21.333037716928470
 Root    122 :    21.428847236025230
 Root    123 :    21.523037344578820
 Root    124 :    21.584997837941740
 Root    125 :    21.599134281043470
 Root    126 :    21.832023869856630
 Root    127 :    21.930508312936830
 Root    128 :    21.968766528016140
 Root    129 :    22.103092255028680
 Root    130 :    22.163272982428590
 Root    131 :    22.230716052174600
 Root    132 :    22.430487622433090
 Root    133 :    22.474576965824840
 Root    134 :    22.573590942529760
 Root    135 :    22.705572220522320
 Root    136 :    22.812378122275310
 Root    137 :    22.853853895252790
 Root    138 :    22.976429799748480
 Root    139 :    23.023164491594500
 Root    140 :    23.101830461237790
 Root    141 :    23.316907872538180
 Root    142 :    23.407751849339020
 Root    143 :    23.490412947249500
 Root    144 :    23.588078557711450
 Root    145 :    23.613664043949610
 Root    146 :    23.741876116218790
 Root    147 :    23.800065210626630
 Root    148 :    23.959732024980400
 Root    149 :    23.990368617437290
 Root    150 :    24.275735524016190
 Root    151 :    24.291586548709690
 Root    152 :    24.369425326530450
 Root    153 :    24.407770582184080
 Root    154 :    24.543882794348120
 Root    155 :    24.695306509504800
 Root    156 :    25.009733651166150
 Root    157 :    25.116320919217740
 Root    158 :    25.286347654061060
 Root    159 :    25.392574496567980
 Root    160 :    25.512624371152170
 Root    161 :    25.693817150312020
 Root    162 :    25.760883174439090
 Root    163 :    25.844617320637000
 Root    164 :    26.030840001556930
 Root    165 :    26.090231701683480
 Root    166 :    26.173923674290720
 Root    167 :    26.245442681722030
 Root    168 :    26.338115214089980
 Root    169 :    26.481923372804490
 Root    170 :    26.503278301056460
 Root    171 :    26.761032957255300
 Root    172 :    27.006172096990550
 Root    173 :    27.051212807085550
 Root    174 :    27.070862895929670
 Root    175 :    27.173036518557660
 Root    176 :    27.287221542451580
 Root    177 :    27.528527943907860
 Root    178 :    27.557360228768960
 Root    179 :    27.627152843754620
 Root    180 :    27.936240106669350
 Root    181 :    27.992524142462370
 Root    182 :    28.320839219979180
 Root    183 :    28.344373047488140
 Root    184 :    28.363482143294660
 Root    185 :    28.431960841990560
 Root    186 :    28.512981278153450
 Root    187 :    28.528090572864580
 Root    188 :    28.644208418272050
 Root    189 :    28.709471851963150
 Root    190 :    28.797198786108110
 Root    191 :    29.125010870308960
 Root    192 :    29.240740971962160
 Root    193 :    29.322844747624030
 Root    194 :    29.421509994108440
 Root    195 :    29.540105286853570
 Root    196 :    29.598553041782070
 Root    197 :    29.806438473751720
 Root    198 :    30.157160889474690
 Root    199 :    30.380835106778990
 Root    200 :    30.398166209246790
 Root    201 :    30.709332199218200
 Root    202 :    30.969970308306950
 Root    203 :    31.065954330841820
 Root    204 :    31.357580933981080
 Root    205 :    31.407726922154350
 Root    206 :    31.883197049640050
 Root    207 :    32.032994291734350
 Root    208 :    32.184875329799840
 Root    209 :    32.231073253063060
 Root    210 :    32.336328762933900
 Root    211 :    32.406867107048870
 Root    212 :    32.548932793053630
 Root    213 :    32.643064023061410
 Root    214 :    32.759460811774580
 Root    215 :    32.829591500545450
 Root    216 :    33.142830089185000
 Root    217 :    33.208117698074300
 Root    218 :    33.358026939235960
 Root    219 :    33.581237451503760
 Root    220 :    33.677337362259070
 Root    221 :    33.749278305207010
 Root    222 :    33.813171475032510
 Root    223 :    33.871234915466260
 Root    224 :    34.042468717348000
 Root    225 :    34.245576083718100
 Root    226 :    34.409269769684060
 Root    227 :    34.430940773662820
 Root    228 :    34.598276095922800
 Root    229 :    34.754700074353070
 Root    230 :    34.820052415219430
 Root    231 :    34.943332511545680
 Root    232 :    35.148053972341610
 Root    233 :    35.156106668869650
 Root    234 :    35.379963112466350
 Root    235 :    35.423721815719230
 Root    236 :    35.503491153174220
 Root    237 :    35.747566487984080
 Root    238 :    36.049023442950510
 Root    239 :    36.246373898736700
 Root    240 :    36.357788597680150
 Root    241 :    36.481711003843730
 Root    242 :    36.595937638189330
 Root    243 :    36.763356281195410
 Root    244 :    36.988737895333170
 Root    245 :    36.998972148859180
 Root    246 :    37.096779626118910
 Root    247 :    37.296691136064180
 Root    248 :    37.695214667465930
 Root    249 :    38.194849572995800
 Root    250 :    38.262606016678850
 Root    251 :    38.296741057734910
 Root    252 :    38.536897747722260
 Root    253 :    38.642109971762710
 Root    254 :    38.884454226349800
 Root    255 :    39.006725726871400
 Root    256 :    39.250714454627260
 Root    257 :    39.664300626099650
 Root    258 :    39.924539101310940
 Root    259 :    40.345983448998510
 Root    260 :    40.468128889269120
 Root    261 :    41.003818823908320
 Root    262 :    41.116909618266560
 Root    263 :    41.197767046034860
 Root    264 :    41.793966664298180
 Root    265 :    41.863592347232710
 Root    266 :    42.193345445651990
 Root    267 :    42.362414925958150
 Root    268 :    42.544922732464660
 Root    269 :    42.925224644330330
 Root    270 :    43.573647924659610
 Root    271 :    44.729734304278330
 Root    272 :    45.400040254069250
 Root    273 :    45.871641762244660
 Root    274 :    46.017540985810580
 Root    275 :    46.157271949575530
 Root    276 :    46.217986155913650
 Root    277 :    46.366379114173620
 Root    278 :    47.241072814086160
 Root    279 :    47.402867792156720
 Root    280 :    47.581906299728990
 Root    281 :    47.961190498870560
 Root    282 :    48.248546838436010
 Root    283 :    48.647749071306340
 Root    284 :    48.842222139862930
 Root    285 :    49.002099016393910
 Root    286 :    49.107201580520980
 Root    287 :    49.816076833460270
 Root    288 :    50.037451503458240
 Root    289 :    50.042193864378820
 Root    290 :    50.235061540005120
 Root    291 :    50.307733625550600
 Root    292 :    50.621819520777000
 Root    293 :    50.807212159367620
 Root    294 :    50.898421330791220
 Root    295 :    50.971222691649130
 Root    296 :    51.120902780870140
 Root    297 :    51.142678768377270
 Root    298 :    51.548013917761720
 Root    299 :    51.877753462415650
 Root    300 :    52.166811529465950
 Root    301 :    52.175561374841830
 Root    302 :    53.021806419472360
 Root    303 :    53.278249951255840
 Root    304 :    53.921516036613410
 Root    305 :    54.017063032118860
 Root    306 :    54.053597425161900
 Root    307 :    54.287715538300400
 Root    308 :    54.416245261457270
 Root    309 :    54.576956185635470
 Root    310 :    54.998350459691310
 Root    311 :    55.184869249032050
 Root    312 :    55.186000712325520
 Root    313 :    55.537463227116280
 Root    314 :    55.739964886042280
 Root    315 :    56.117550180844720
 Root    316 :    56.470424225931570
 Root    317 :    56.621448371552280
 Root    318 :    56.882162020289680
 Root    319 :    56.968680103285680
 Root    320 :    57.385724017001000
 Root    321 :    57.528443153346660
 Root    322 :    57.533258731041480
 Root    323 :    57.923834413290760
 Root    324 :    58.280444534925460
 Root    325 :    58.331012627822520
 Root    326 :    58.548668836108720
 Root    327 :    58.763041623538780
 Root    328 :    59.544373787521690
 Root    329 :    59.884741867030190
 Root    330 :    60.195973315062890
 Root    331 :    60.280953095896050
 Root    332 :    60.328992897445200
 Root    333 :    60.760708391516450
 Root    334 :    60.903176198412220
 Root    335 :    61.095072976123550
 Root    336 :    61.177102075630040
 Root    337 :    61.250190634449030
 Root    338 :    61.364979242281440
 Root    339 :    61.492458133004720
 Root    340 :    62.518420793317400
 Root    341 :    62.588614584865160
 Root    342 :    62.691311377702850
 Root    343 :    62.876078227322130
 Root    344 :    63.300096631485340
 Root    345 :    63.511532854275850
 Root    346 :    63.639089265780640
 Root    347 :    63.745622120483050
 Root    348 :    63.948852629713000
 Root    349 :    64.011866082786170
 Root    350 :    64.183796619414760
 Root    351 :    64.239252043296590
 Root    352 :    64.385010026354540
 Root    353 :    64.761348484580850
 Root    354 :    64.825394039831750
 Root    355 :    65.184775592613060
 Root    356 :    65.376660601144220
 Root    357 :    65.475356666534610
 Root    358 :    65.862565188403170
 Root    359 :    66.104309521101130
 Root    360 :    66.782338144656690
 Root    361 :    66.964428871142740
 Root    362 :    67.072803618187150
 Root    363 :    67.367264225601160
 Root    364 :    67.444386082275240
 Root    365 :    68.001703579188600
 Root    366 :    68.411964576824200
 Root    367 :    68.696637157689570
 Root    368 :    68.873505571113470
 Root    369 :    68.894483218188730
 Root    370 :    69.698420338592540
 Root    371 :    69.782688631231420
 Root    372 :    69.912985913455800
 Root    373 :    70.335624202224520
 Root    374 :    70.387722711778110
 Root    375 :    71.116942194584750
 Root    376 :    71.337208082984120
 Root    377 :    72.154773115013240
 Root    378 :    72.186931469742820
 Root    379 :    72.484518547024290
 Root    380 :    72.585856595362220
 Root    381 :    72.767458240705820
 Root    382 :    72.941849647053860
 Root    383 :    73.014928229544490
 Root    384 :    73.820317218402720
 Root    385 :    73.977548667630760
 Root    386 :    74.791057013360060
 Root    387 :    75.472643049761130
 Root    388 :    75.721392290053910
 Root    389 :    75.888638728293440
 Root    390 :    76.117079580492000
 Root    391 :    76.216603740481620
 Root    392 :    76.416079605120330
 Root    393 :    76.695375809969080
 Root    394 :    77.348142486773310
 Root    395 :    77.610567846260930
 Root    396 :    78.552999843515880
 Root    397 :    78.618876263036480
 Root    398 :    78.680237461730670
 Root    399 :    79.050681696035270
 Root    400 :    80.210122586338330
 Root    401 :    80.612501786424060
 Root    402 :    81.470193245557710
 Root    403 :    81.533349157158510
 Root    404 :    82.463291993832750
 Root    405 :    83.132223817088130
 Root    406 :    83.328847703048340
 Root    407 :    84.988049479796710
 Root    408 :    85.277818312187830
 Root    409 :    85.527761195306850
 Root    410 :    85.892631482205900
 Root    411 :    86.074057604660870
 Root    412 :    87.128246055890240
 Root    413 :    87.660313666504380
 Root    414 :    88.217642419067670
 Root    415 :    88.417716733834300
 Root    416 :    88.552602400115690
 Root    417 :    88.884667448831750
 Root    418 :    89.549380690055030
 Root    419 :    90.149546525023150
 Root    420 :    90.180329743699300
 Root    421 :    90.283576496089610
 Root    422 :    90.520681451243250
 Root    423 :    90.596867238538690
 Root    424 :    90.817991034498770
 Root    425 :    90.911756864842570
 Root    426 :    90.965469244295650
 Root    427 :    91.419838087909350
 Root    428 :    92.209286445943830
 Root    429 :    92.243550068382310
 Root    430 :    92.581079666815900
 Root    431 :    93.362490429333860
 Root    432 :    93.798476505915620
 Root    433 :    93.954208011919450
 Root    434 :    94.915994687229700
 Root    435 :    95.352607515002670
 Root    436 :    95.742711370066400
 Root    437 :    96.262412242696100
 Root    438 :    96.357463564984260
 Root    439 :    96.726659654453030
 Root    440 :    97.468322169016090
 Root    441 :    98.096639197065540
 Root    442 :    98.469612452985870
 Root    443 :    98.637800552863620
 Root    444 :   100.024795249484300
 Root    445 :   101.100208579258100
 Root    446 :   101.577991769594600
 Root    447 :   101.647712577147800
 Root    448 :   103.804524591071300
 Root    449 :   103.839321647508800
 Root    450 :   105.100256503224000
 Root    451 :   106.276552647675800
 Root    452 :   107.461167728560100
 Root    453 :   108.713673742391100
 Root    454 :   110.646131575372900
 Root    455 :   110.782838174939000
 Root    456 :   112.927991968687300
 Root    457 :   114.987662966497500
 Root    458 :   115.024173373755800
 Root    459 :   116.244006688481000
 Root    460 :   117.797015761983100
 Root    461 :   121.224385523051600
 Root    462 :   130.030974065887300
 Convergence achieved for final wavefunctions.
 ***********************************************************************
 Excited states from <AA,BB:AA,BB> singles matrix:
 ***********************************************************************
 
 1PDM for each excited state written to RWF  633
 Ground to excited state transition densities written to RWF  633
 Ground to excited state transition electric dipole moments (Au):
       state          X           Y           Z        Dip. S.      Osc.
         1        -0.0000      0.0000     -0.0886      0.0079      0.0012
         2        -0.0000      0.0000      0.3779      0.1428      0.0246
         3        -0.0936      0.0193     -0.0000      0.0091      0.0017
         4        -0.0000     -0.0000      0.2549      0.0650      0.0129
         5         0.1133     -0.4886     -0.0000      0.2515      0.0505
         6         0.4289     -0.1668      0.0000      0.2118      0.0452
         7        -0.0000      0.0000      0.0764      0.0058      0.0013
         8         0.0000     -0.0000      0.1230      0.0151      0.0035
         9        -0.0000     -0.0000      0.2885      0.0832      0.0199
        10         0.1315     -0.1103     -0.0000      0.0295      0.0071
        11         0.0087     -0.5492     -0.0000      0.3017      0.0728
        12        -0.2920      0.2719     -0.0000      0.1592      0.0399
        13         0.0000      0.0000     -0.0403      0.0016      0.0004
        14         0.0000     -0.0000     -0.4818      0.2322      0.0595
        15        -0.1886      0.2106      0.0000      0.0799      0.0205
        16         0.0500     -0.0014     -0.0000      0.0025      0.0007
        17        -0.1491     -0.3135     -0.0000      0.1205      0.0329
        18         0.0000      0.0000      0.0379      0.0014      0.0004
        19        -0.3689     -0.3151     -0.0000      0.2353      0.0654
        20         0.0000      0.0000      0.1489      0.0222      0.0062
        21        -0.0000     -0.0000     -0.3812      0.1453      0.0408
        22         0.0000     -0.0000     -0.0245      0.0006      0.0002
        23        -0.0229     -0.1872     -0.0000      0.0356      0.0105
        24        -0.0000      0.0000     -0.3591      0.1289      0.0384
        25         0.0000      0.0000      0.1469      0.0216      0.0065
        26         0.4719     -0.2253      0.0000      0.2734      0.0831
        27        -0.2930     -0.1197      0.0000      0.1002      0.0306
        28        -0.0000     -0.0000     -0.0841      0.0071      0.0022
        29         0.2483      0.0426      0.0000      0.0634      0.0202
        30         0.2702      0.2265      0.0000      0.1243      0.0400
        31        -0.0000      0.0000     -0.0785      0.0062      0.0020
        32        -0.1146     -0.2472      0.0000      0.0743      0.0242
        33         0.0008      0.3507      0.0000      0.1230      0.0403
        34         0.0000     -0.0000     -0.0200      0.0004      0.0001
        35         0.3979     -0.1243      0.0000      0.1738      0.0575
        36         0.0000     -0.0000     -0.1867      0.0348      0.0116
        37         0.4040      0.3169      0.0000      0.2637      0.0880
        38         0.0000      0.0000      0.0214      0.0005      0.0002
        39        -0.0292      0.1696     -0.0000      0.0296      0.0100
        40        -0.3337     -0.9391      0.0000      0.9933      0.3403
        41        -0.0000      0.0000     -0.6305      0.3976      0.1370
        42        -0.4962     -0.0820      0.0000      0.2530      0.0885
        43        -0.0000     -0.0000     -0.0496      0.0025      0.0009
        44         0.0000     -0.0000     -0.4225      0.1785      0.0633
        45         0.3609     -0.1017      0.0000      0.1406      0.0501
        46         0.0000     -0.0000      0.2377      0.0565      0.0202
        47        -0.5969     -0.0480     -0.0000      0.3585      0.1287
        48         0.0000     -0.0000      0.5062      0.2563      0.0927
        49         0.0581     -0.6087     -0.0000      0.3739      0.1363
        50         0.3571     -0.2617      0.0000      0.1960      0.0717
        51         0.0000     -0.0000      0.7330      0.5374      0.1993
        52        -0.1346     -0.0125     -0.0000      0.0183      0.0068
        53         0.1397      0.0461     -0.0000      0.0217      0.0081
        54         0.0000      0.0000      0.2118      0.0448      0.0168
        55         0.0000      0.0000      0.0460      0.0021      0.0008
        56        -0.2391     -0.2481      0.0000      0.1187      0.0450
        57         0.0000      0.0000      0.0998      0.0100      0.0038
        58         0.2771      0.2543     -0.0000      0.1415      0.0542
        59        -0.3077      0.1014      0.0000      0.1050      0.0407
        60         0.0000      0.0000      0.1436      0.0206      0.0080
        61         0.5822     -0.0954     -0.0000      0.3481      0.1360
        62        -0.0000      0.0000     -0.7062      0.4987      0.1963
        63        -0.2727     -0.1146     -0.0000      0.0875      0.0349
        64        -0.0402     -0.5301     -0.0000      0.2827      0.1134
        65         0.0000      0.0000     -0.0351      0.0012      0.0005
        66         0.0000     -0.0000      0.1244      0.0155      0.0063
        67        -0.0000     -0.0000     -0.0763      0.0058      0.0024
        68        -0.5136      0.2196     -0.0000      0.3120      0.1271
        69        -0.0190      0.2125      0.0000      0.0455      0.0187
        70        -0.0000     -0.0000     -0.1311      0.0172      0.0071
        71         0.0885      0.1790     -0.0000      0.0399      0.0167
        72        -0.0000      0.0000     -0.1315      0.0173      0.0073
        73         0.0847     -0.0514     -0.0000      0.0098      0.0042
        74         0.0000     -0.0000     -0.2750      0.0756      0.0321
        75        -0.0000      0.0000     -0.1116      0.0125      0.0053
        76        -0.0830      0.0585      0.0000      0.0103      0.0044
        77         0.0000     -0.0000     -0.2256      0.0509      0.0219
        78        -0.0110     -0.2738      0.0000      0.0751      0.0325
        79         0.2477     -0.2607     -0.0000      0.1293      0.0563
        80         0.3690      0.1020      0.0000      0.1465      0.0639
        81        -0.0584     -0.3032      0.0000      0.0953      0.0417
        82         0.0000      0.0000      0.2220      0.0493      0.0216
        83        -0.0000     -0.0000     -0.1824      0.0333      0.0147
        84         0.0142      0.0807      0.0000      0.0067      0.0030
        85         0.0000      0.0000      0.3498      0.1224      0.0544
        86        -0.1453      0.0703     -0.0000      0.0261      0.0116
        87        -0.1479      0.2399      0.0000      0.0794      0.0357
        88         0.0000      0.0000     -0.0412      0.0017      0.0008
        89         0.1501      0.3399      0.0000      0.1380      0.0630
        90         0.2834      0.1067      0.0000      0.0917      0.0420
        91         0.0000      0.0000      0.1468      0.0215      0.0099
        92         0.1589     -0.0579     -0.0000      0.0286      0.0132
        93        -0.1605     -0.3151     -0.0000      0.1250      0.0580
        94         0.0000      0.0000      0.3770      0.1421      0.0662
        95         0.0459      0.2735      0.0000      0.0769      0.0365
        96         0.0000      0.0000      0.0913      0.0083      0.0040
        97         0.0000     -0.0000      0.0729      0.0053      0.0025
        98        -0.1027      0.0192     -0.0000      0.0109      0.0052
        99        -0.0000     -0.0000     -0.0875      0.0077      0.0037
       100         0.0661      0.5182     -0.0000      0.2729      0.1313
       101         0.0000      0.0000      0.0067      0.0000      0.0000
       102        -0.1181     -0.2709     -0.0000      0.0873      0.0421
       103         0.0000      0.0000      0.2089      0.0436      0.0211
       104        -0.1332      0.0055      0.0000      0.0178      0.0086
       105        -0.0000     -0.0000      0.0387      0.0015      0.0007
       106         0.1258      0.1764      0.0000      0.0469      0.0228
       107        -0.2135      0.2734      0.0000      0.1203      0.0588
       108         0.0000      0.0000     -0.1491      0.0222      0.0110
       109         0.5194     -0.0101      0.0000      0.2699      0.1333
       110         0.0000     -0.0000      0.0239      0.0006      0.0003
       111         0.1478     -0.1658     -0.0000      0.0493      0.0245
       112         0.1332      0.1509     -0.0000      0.0405      0.0202
       113         0.0000      0.0000     -0.3776      0.1426      0.0715
       114        -0.0256      0.1451     -0.0000      0.0217      0.0109
       115        -0.0000     -0.0000     -0.1837      0.0338      0.0171
       116         0.0000      0.0000      0.1526      0.0233      0.0118
       117         0.2464      0.0297     -0.0000      0.0616      0.0313
       118        -0.0952     -0.0477     -0.0000      0.0113      0.0058
       119        -0.0000     -0.0000      0.1372      0.0188      0.0096
       120        -0.0780     -0.0152      0.0000      0.0063      0.0033
       121         0.2868     -0.0916      0.0000      0.0906      0.0474
       122        -0.0000     -0.0000     -0.2308      0.0532      0.0280
       123        -0.0000     -0.0000      0.0275      0.0008      0.0004
       124         0.1648      0.4916      0.0000      0.2688      0.1422
       125        -0.0000     -0.0000      0.1854      0.0344      0.0182
       126         0.0478      0.2386      0.0000      0.0592      0.0317
       127         0.1518     -0.2876     -0.0000      0.1058      0.0568
       128        -0.0000     -0.0000      0.1037      0.0107      0.0058
       129         0.0000      0.0000     -0.2952      0.0871      0.0472
       130         0.0194     -0.5446     -0.0000      0.2969      0.1612
       131         0.0537     -0.0424      0.0000      0.0047      0.0025
       132         0.0122     -0.1889      0.0000      0.0358      0.0197
       133        -0.0000     -0.0000     -0.0092      0.0001      0.0000
       134        -0.1759     -0.1202     -0.0000      0.0454      0.0251
       135        -0.0000     -0.0000      0.1778      0.0316      0.0176
       136         0.0973     -0.2857     -0.0000      0.0911      0.0509
       137        -0.0427      0.3203      0.0000      0.1044      0.0585
       138        -0.0594     -0.2976     -0.0000      0.0921      0.0518
       139        -0.0000      0.0000     -0.0003      0.0000      0.0000
       140        -0.0000     -0.0000      0.1270      0.0161      0.0091
       141         0.0516     -0.3816     -0.0000      0.1483      0.0847
       142        -0.0000      0.0000     -0.2666      0.0711      0.0408
       143         0.0429      0.0329     -0.0000      0.0029      0.0017
       144        -0.2123      0.1497      0.0000      0.0675      0.0390
       145        -0.0074      0.1572      0.0000      0.0248      0.0143
       146         0.0000     -0.0000      0.1769      0.0313      0.0182
       147         0.0000      0.0000     -0.1067      0.0114      0.0066
       148        -0.0561     -0.4338      0.0000      0.1913      0.1123
       149         0.0000      0.0000      0.6366      0.4052      0.2382
       150        -0.0000     -0.0000      0.0124      0.0002      0.0001
       151        -0.0000      0.0000     -0.4922      0.2423      0.1442
       152         0.2033      0.0948      0.0000      0.0503      0.0300
       153         0.0162      0.2438      0.0000      0.0597      0.0357
       154        -0.0181      0.2498     -0.0000      0.0627      0.0377
       155        -0.0401     -0.4226      0.0000      0.1802      0.1090
       156         0.2428     -0.2258      0.0000      0.1099      0.0674
       157        -0.4153      0.2903     -0.0000      0.2567      0.1580
       158        -0.0252      0.0055      0.0000      0.0007      0.0004
       159         0.0000      0.0000      0.0656      0.0043      0.0027
       160        -0.3772     -0.0299      0.0000      0.1432      0.0895
       161         0.0000      0.0000     -0.0040      0.0000      0.0000
       162         0.0000      0.0000     -0.0798      0.0064      0.0040
       163        -0.0456     -0.1451      0.0000      0.0231      0.0147
       164         0.0000      0.0000     -0.0613      0.0038      0.0024
       165         0.5916     -0.0884     -0.0000      0.3579      0.2287
       166        -0.2545     -0.0253      0.0000      0.0654      0.0420
       167        -0.0000     -0.0000     -0.4836      0.2339      0.1504
       168         0.4263      0.0548     -0.0000      0.1847      0.1192
       169        -0.0000      0.0000      0.4493      0.2019      0.1310
       170        -0.2298      0.0333      0.0000      0.0539      0.0350
       171         0.2394      0.0879     -0.0000      0.0650      0.0426
       172         0.2137     -0.1296     -0.0000      0.0625      0.0413
       173        -0.0000      0.0000      0.1201      0.0144      0.0096
       174         0.0072     -0.0282     -0.0000      0.0008      0.0006
       175         0.0000      0.0000     -0.0772      0.0060      0.0040
       176        -0.2144     -0.0106     -0.0000      0.0461      0.0308
       177         0.0000      0.0000      0.0253      0.0006      0.0004
       178        -0.1254     -0.2013     -0.0000      0.0563      0.0380
       179        -0.1987      0.0715      0.0000      0.0446      0.0302
       180        -0.1305      0.1482     -0.0000      0.0390      0.0267
       181         0.0000     -0.0000      0.0582      0.0034      0.0023
       182        -0.0562      0.0041     -0.0000      0.0032      0.0022
       183         0.0000     -0.0000     -0.2091      0.0437      0.0304
       184        -0.0000      0.0000     -0.0461      0.0021      0.0015
       185        -0.1717     -0.0344     -0.0000      0.0307      0.0214
       186         0.0000      0.0000     -0.0584      0.0034      0.0024
       187         0.0075     -0.0296     -0.0000      0.0009      0.0007
       188        -0.0000      0.0000     -0.1575      0.0248      0.0174
       189        -0.0000      0.0000     -0.2269      0.0515      0.0362
       190         0.0073     -0.0530      0.0000      0.0029      0.0020
       191        -0.2361      0.0784      0.0000      0.0619      0.0442
       192         0.0001     -0.0793      0.0000      0.0063      0.0045
       193        -0.0000      0.0000      0.0376      0.0014      0.0010
       194        -0.2582     -0.0937     -0.0000      0.0754      0.0544
       195         0.2150      0.1317     -0.0000      0.0636      0.0460
       196        -0.0000     -0.0000     -0.1907      0.0364      0.0264
       197         0.0037     -0.1619      0.0000      0.0262      0.0192
       198         0.2486     -0.0281     -0.0000      0.0626      0.0462
       199         0.0954     -0.0399      0.0000      0.0107      0.0080
       200        -0.2682     -0.0270      0.0000      0.0726      0.0541
       201        -0.0176     -0.0900     -0.0000      0.0084      0.0063
       202        -0.0000      0.0000      0.2650      0.0702      0.0533
       203        -0.0000      0.0000      0.3233      0.1045      0.0796
       204         0.0325      0.0522      0.0000      0.0038      0.0029
       205        -0.0000     -0.0000     -0.0529      0.0028      0.0022
       206         0.0940      0.3145     -0.0000      0.1077      0.0841
       207        -0.0019      0.2708      0.0000      0.0734      0.0576
       208        -0.0000      0.0000      0.0828      0.0069      0.0054
       209        -0.0612     -0.0362     -0.0000      0.0051      0.0040
       210        -0.0000      0.0000     -0.0918      0.0084      0.0067
       211         0.0000      0.0000     -0.2783      0.0775      0.0615
       212        -0.1496      0.0251      0.0000      0.0230      0.0184
       213        -0.0000      0.0000     -0.0603      0.0036      0.0029
       214        -0.0000     -0.0000     -0.0444      0.0020      0.0016
       215        -0.0642     -0.0470     -0.0000      0.0063      0.0051
       216         0.0469     -0.1693      0.0000      0.0308      0.0250
       217        -0.2520     -0.0851      0.0000      0.0707      0.0576
       218        -0.0000     -0.0000      0.1072      0.0115      0.0094
       219         0.0000     -0.0000     -0.0871      0.0076      0.0062
       220         0.0242      0.1485      0.0000      0.0226      0.0187
       221        -0.0914      0.0730      0.0000      0.0137      0.0113
       222         0.2133     -0.0684      0.0000      0.0502      0.0416
       223        -0.0000     -0.0000     -0.2434      0.0592      0.0492
       224         0.0709      0.1829      0.0000      0.0385      0.0321
       225         0.0000     -0.0000     -0.0092      0.0001      0.0001
       226         0.0302      0.0949      0.0000      0.0099      0.0084
       227        -0.0499     -0.0152     -0.0000      0.0027      0.0023
       228         0.0000      0.0000     -0.0126      0.0002      0.0001
       229        -0.1291     -0.0462     -0.0000      0.0188      0.0160
       230         0.0000     -0.0000     -0.0926      0.0086      0.0073
       231         0.0000      0.0000      0.1354      0.0183      0.0157
       232        -0.0754      0.0104     -0.0000      0.0058      0.0050
       233         0.1333     -0.0604     -0.0000      0.0214      0.0185
       234        -0.1522     -0.0361      0.0000      0.0245      0.0212
       235        -0.0000     -0.0000      0.0489      0.0024      0.0021
       236        -0.0000     -0.0000      0.1377      0.0190      0.0165
       237         0.0276     -0.1453     -0.0000      0.0219      0.0191
       238        -0.0000      0.0000     -0.0234      0.0005      0.0005
       239         0.0000     -0.0000     -0.0885      0.0078      0.0070
       240         0.1505     -0.1248      0.0000      0.0382      0.0340
       241        -0.0296      0.0572     -0.0000      0.0042      0.0037
       242        -0.1043     -0.0391     -0.0000      0.0124      0.0111
       243        -0.0000     -0.0000      0.2801      0.0784      0.0706
       244         0.0400     -0.1803      0.0000      0.0341      0.0309
       245         0.0000      0.0000     -0.0365      0.0013      0.0012
       246         0.0136      0.0517      0.0000      0.0029      0.0026
       247         0.1275     -0.0830     -0.0000      0.0231      0.0211
       248         0.0449     -0.0411      0.0000      0.0037      0.0034
       249         0.0000     -0.0000      0.1197      0.0143      0.0134
       250         0.0000     -0.0000      0.0974      0.0095      0.0089
       251         0.0136      0.0726     -0.0000      0.0055      0.0051
       252         0.1590      0.0242     -0.0000      0.0259      0.0244
       253        -0.0739     -0.0450      0.0000      0.0075      0.0071
       254        -0.0930     -0.0938      0.0000      0.0175      0.0166
       255         0.0407      0.0444      0.0000      0.0036      0.0035
       256         0.0000     -0.0000     -0.0165      0.0003      0.0003
       257        -0.1011     -0.0075     -0.0000      0.0103      0.0100
       258         0.0000     -0.0000      0.1354      0.0183      0.0179
       259         0.1182     -0.0267      0.0000      0.0147      0.0145
       260        -0.0000      0.0000      0.1610      0.0259      0.0257
       261        -0.0794     -0.0011      0.0000      0.0063      0.0063
       262        -0.0000      0.0000      0.0245      0.0006      0.0006
       263        -0.0026      0.0004      0.0000      0.0000      0.0000
       264         0.0647     -0.0668      0.0000      0.0086      0.0088
       265        -0.2415      0.1088      0.0000      0.0702      0.0720
       266         0.0225      0.0261     -0.0000      0.0012      0.0012
       267         0.1217      0.0164      0.0000      0.0151      0.0157
       268        -0.0000     -0.0000      0.2894      0.0838      0.0873
       269         0.1376      0.1625     -0.0000      0.0453      0.0477
       270         0.0000      0.0000     -0.0591      0.0035      0.0037
       271        -0.0000     -0.0000     -0.0810      0.0066      0.0072
       272        -0.0696     -0.1298      0.0000      0.0217      0.0241
       273        -0.0969     -0.2046      0.0000      0.0512      0.0576
       274        -0.0353     -0.0417     -0.0000      0.0030      0.0034
       275         0.0000      0.0000      0.0278      0.0008      0.0009
       276         0.0910      0.0300     -0.0000      0.0092      0.0104
       277         0.0000      0.0000     -0.1033      0.0107      0.0121
       278        -0.0816      0.0278     -0.0000      0.0074      0.0086
       279        -0.0000     -0.0000     -0.0664      0.0044      0.0051
       280        -0.0704      0.0134      0.0000      0.0051      0.0060
       281        -0.0515      0.0896     -0.0000      0.0107      0.0126
       282        -0.0361      0.2673     -0.0000      0.0728      0.0860
       283        -0.0000     -0.0000     -0.0098      0.0001      0.0001
       284        -0.0000      0.0000      0.0465      0.0022      0.0026
       285         0.0699     -0.0994     -0.0000      0.0148      0.0177
       286         0.0000      0.0000      0.0437      0.0019      0.0023
       287        -0.0869      0.0363      0.0000      0.0089      0.0108
       288         0.0000     -0.0000     -0.0113      0.0001      0.0002
       289        -0.0508      0.1311      0.0000      0.0198      0.0242
       290        -0.0039      0.0650     -0.0000      0.0042      0.0052
       291         0.0000     -0.0000      0.2327      0.0541      0.0667
       292        -0.0000     -0.0000     -0.2025      0.0410      0.0508
       293         0.3511      0.1917      0.0000      0.1600      0.1992
       294        -0.0000     -0.0000      0.1288      0.0166      0.0207
       295         0.0000     -0.0000     -0.1725      0.0298      0.0372
       296         0.0378      0.1020      0.0000      0.0118      0.0148
       297         0.0157     -0.1816      0.0000      0.0332      0.0416
       298         0.0000     -0.0000      0.1558      0.0243      0.0307
       299        -0.0081     -0.0862     -0.0000      0.0075      0.0095
       300        -0.0252      0.2445     -0.0000      0.0604      0.0772
       301        -0.0000      0.0000     -0.0878      0.0077      0.0098
       302         0.1971      0.0243      0.0000      0.0395      0.0513
       303        -0.0000     -0.0000      0.1393      0.0194      0.0253
       304        -0.0133     -0.0359      0.0000      0.0015      0.0019
       305         0.0000      0.0000     -0.1213      0.0147      0.0195
       306        -0.0762      0.0304     -0.0000      0.0067      0.0089
       307         0.0458     -0.1272      0.0000      0.0183      0.0243
       308         0.1619      0.0069     -0.0000      0.0263      0.0350
       309        -0.0000      0.0000     -0.0804      0.0065      0.0087
       310         0.1596     -0.0413     -0.0000      0.0272      0.0366
       311         0.0000     -0.0000      0.1446      0.0209      0.0283
       312         0.3003     -0.1180     -0.0000      0.1041      0.1407
       313        -0.0000     -0.0000     -0.1872      0.0350      0.0477
       314        -0.0558     -0.1112     -0.0000      0.0155      0.0211
       315        -0.0000     -0.0000     -0.0971      0.0094      0.0130
       316         0.0211     -0.0803      0.0000      0.0069      0.0095
       317        -0.0000      0.0000      0.0689      0.0048      0.0066
       318        -0.0175     -0.1597     -0.0000      0.0258      0.0360
       319         0.0000      0.0000      0.0133      0.0002      0.0002
       320        -0.0406     -0.0593     -0.0000      0.0052      0.0073
       321         0.0000      0.0000      0.0318      0.0010      0.0014
       322         0.1053      0.1416      0.0000      0.0311      0.0439
       323         0.0000      0.0000      0.0901      0.0081      0.0115
       324         0.0000      0.0000     -0.0485      0.0024      0.0034
       325        -0.0639     -0.1543      0.0000      0.0279      0.0399
       326        -0.0000     -0.0000     -0.0211      0.0004      0.0006
       327        -0.0640     -0.1243      0.0000      0.0195      0.0281
       328         0.0108      0.0685      0.0000      0.0048      0.0070
       329        -0.0823      0.0025     -0.0000      0.0068      0.0099
       330         0.0000     -0.0000     -0.0763      0.0058      0.0086
       331         0.0000     -0.0000     -0.0087      0.0001      0.0001
       332         0.0499     -0.0247      0.0000      0.0031      0.0046
       333         0.0000      0.0000      0.1446      0.0209      0.0311
       334        -0.0000      0.0000      0.0463      0.0021      0.0032
       335         0.0208      0.0519     -0.0000      0.0031      0.0047
       336        -0.0255      0.0077     -0.0000      0.0007      0.0011
       337         0.0000      0.0000      0.1261      0.0159      0.0238
       338         0.0000      0.0000     -0.1271      0.0162      0.0243
       339        -0.1096     -0.0196      0.0000      0.0124      0.0187
       340        -0.0000      0.0000      0.0925      0.0086      0.0131
[...]
      4   0.000000D+00  0.210631D-01  0.000000D+00 -0.317280D-02  0.000000D+00
      5  -0.169149D+00  0.000000D+00 -0.226221D+00  0.000000D+00  0.798780D-01
      6  -0.404168D-01  0.000000D+00 -0.140096D+00  0.000000D+00 -0.623036D-01
      7   0.000000D+00 -0.821418D-01  0.000000D+00  0.156213D-01  0.000000D+00
      8   0.000000D+00 -0.124876D+00  0.000000D+00 -0.269093D-02  0.000000D+00
      9   0.000000D+00  0.187823D+00  0.000000D+00 -0.880457D-01  0.000000D+00
     10  -0.152180D+00  0.000000D+00 -0.886309D-01  0.000000D+00  0.325023D-01
     11  -0.453655D+00  0.000000D+00  0.255319D-01  0.000000D+00  0.458443D+00
     12  -0.195405D+00  0.000000D+00 -0.376551D+00  0.000000D+00  0.255755D+00
     13  -0.117323D+00  0.000000D+00  0.140429D+00  0.000000D+00  0.464588D+00
     14   0.292757D+00  0.000000D+00  0.102514D+00  0.000000D+00 -0.301418D+00
     15   0.000000D+00  0.109218D+00  0.000000D+00 -0.207210D+00  0.000000D+00
     16   0.000000D+00 -0.162425D+00  0.000000D+00 -0.155277D+00  0.000000D+00
               396           397           398           399           400 
      1  -0.112714D+03 -0.112711D+03 -0.112709D+03 -0.112695D+03 -0.112653D+03
      2  -0.454887D-01  0.000000D+00 -0.542407D-01  0.000000D+00 -0.178873D-01
      3  -0.317742D-01  0.000000D+00  0.126141D-01  0.000000D+00 -0.103686D-01
      4   0.000000D+00  0.892308D-02  0.000000D+00 -0.386090D-01  0.000000D+00
      5   0.120108D+00  0.000000D+00  0.154095D+00  0.000000D+00  0.926666D-01
      6   0.542542D-01  0.000000D+00  0.206804D-02  0.000000D+00 -0.408428D-01
      7   0.000000D+00  0.268159D-01  0.000000D+00  0.880116D-01  0.000000D+00
      8   0.000000D+00 -0.107808D+00  0.000000D+00 -0.247689D+00  0.000000D+00
      9   0.000000D+00 -0.501537D-01  0.000000D+00  0.139282D-01  0.000000D+00
     10  -0.145956D+00  0.000000D+00  0.157247D+00  0.000000D+00 -0.252492D-01
     11  -0.104741D+00  0.000000D+00 -0.926312D-02  0.000000D+00 -0.398273D-01
     12  -0.285418D+00  0.000000D+00 -0.422296D+00  0.000000D+00 -0.759480D-02
     13  -0.290800D+00  0.000000D+00  0.249326D-01  0.000000D+00 -0.856288D+00
     14   0.194708D+00  0.000000D+00  0.364689D-01  0.000000D+00 -0.358728D+00
     15   0.000000D+00  0.202771D+00  0.000000D+00  0.510513D-01  0.000000D+00
     16   0.000000D+00 -0.325830D+00  0.000000D+00 -0.407737D+00  0.000000D+00
               401           402           403           404           405 
      1  -0.112638D+03 -0.112606D+03 -0.112604D+03 -0.112570D+03 -0.112545D+03
      2   0.488883D-01  0.000000D+00 -0.225119D-01 -0.224861D-01 -0.183691D-01
      3  -0.873448D-02  0.000000D+00 -0.171393D-01  0.267476D-02  0.191495D-01
      4   0.000000D+00 -0.417924D-01  0.000000D+00  0.000000D+00  0.000000D+00
      5  -0.109918D+00  0.000000D+00  0.731566D-01  0.362312D-01  0.119922D-01
      6   0.144980D-01  0.000000D+00  0.610318D-01 -0.211685D-01 -0.585077D-01
      7   0.000000D+00  0.996935D-01  0.000000D+00  0.000000D+00  0.000000D+00
      8   0.000000D+00 -0.160671D-01  0.000000D+00  0.000000D+00  0.000000D+00
      9   0.000000D+00 -0.241194D-01  0.000000D+00  0.000000D+00  0.000000D+00
     10  -0.575365D-02  0.000000D+00  0.264685D+00 -0.729560D-01 -0.102852D+00
     11  -0.807342D-01  0.000000D+00 -0.284321D-01 -0.176756D+00  0.633973D-01
     12  -0.254943D+00  0.000000D+00 -0.420760D+00 -0.790614D-01 -0.461278D+00
     13   0.104465D+00  0.000000D+00 -0.174654D+00  0.148774D+00  0.115084D+00
     14  -0.157877D+00  0.000000D+00 -0.114593D+00  0.217714D+00  0.191957D+00
     15   0.000000D+00  0.243139D+00  0.000000D+00  0.000000D+00  0.000000D+00
     16   0.000000D+00  0.300881D-01  0.000000D+00  0.000000D+00  0.000000D+00
               406           407           408           409           410 
      1  -0.112538D+03 -0.112477D+03 -0.112467D+03 -0.112457D+03 -0.112444D+03
      2   0.000000D+00 -0.870834D-01 -0.224267D-01 -0.558737D-01  0.000000D+00
      3   0.000000D+00 -0.119275D+00 -0.250841D-01 -0.278509D-01  0.000000D+00
      4  -0.680080D-01  0.000000D+00  0.000000D+00  0.000000D+00 -0.239687D-01
      5   0.000000D+00  0.219044D+00  0.691508D-01  0.204588D+00  0.000000D+00
      6   0.000000D+00  0.312638D+00  0.943345D-01  0.899829D-01  0.000000D+00
      7   0.125452D+00  0.000000D+00  0.000000D+00  0.000000D+00  0.456496D-01
      8   0.284817D-01  0.000000D+00  0.000000D+00  0.000000D+00 -0.220685D+00
      9  -0.162584D-01  0.000000D+00  0.000000D+00  0.000000D+00  0.707691D-02
     10   0.000000D+00  0.508746D+00  0.510811D-01  0.433749D+00  0.000000D+00
     11   0.000000D+00  0.856294D-01 -0.982555D-01  0.213164D+00  0.000000D+00
     12   0.000000D+00 -0.277646D+00 -0.398091D-01 -0.800631D+00  0.000000D+00
     13   0.000000D+00 -0.101471D+00  0.855396D-01  0.163486D+00  0.000000D+00
     14   0.000000D+00 -0.304982D+00 -0.838195D-01 -0.486799D+00  0.000000D+00
     15   0.167532D-01  0.000000D+00  0.000000D+00  0.000000D+00  0.134413D-01
     16   0.169512D+00  0.000000D+00  0.000000D+00  0.000000D+00 -0.184871D+00
               411           412           413           414           415 
      1  -0.112437D+03 -0.112399D+03 -0.112379D+03 -0.112359D+03 -0.112351D+03
      2   0.000000D+00  0.980532D-01  0.299392D-01  0.917738D-01  0.000000D+00
      3   0.000000D+00 -0.639680D-01  0.310267D-01 -0.144087D+00  0.000000D+00
      4   0.194239D-01  0.000000D+00  0.000000D+00  0.000000D+00  0.907767D-01
      5   0.000000D+00 -0.285530D+00 -0.141777D+00 -0.269809D+00  0.000000D+00
      6   0.000000D+00  0.182532D+00 -0.846892D-01  0.385443D+00  0.000000D+00
      7  -0.529055D-01  0.000000D+00  0.000000D+00  0.000000D+00 -0.248029D+00
      8  -0.365581D+00  0.000000D+00  0.000000D+00  0.000000D+00  0.269078D+00
      9  -0.273774D-02  0.000000D+00  0.000000D+00  0.000000D+00  0.991393D-02
     10   0.000000D+00 -0.189694D+00 -0.240388D+00 -0.666758D+00  0.000000D+00
     11   0.000000D+00 -0.135025D+00  0.210046D+00 -0.341484D-01  0.000000D+00
     12   0.000000D+00 -0.111210D+01  0.594291D-01 -0.100308D+01  0.000000D+00
     13   0.000000D+00  0.156167D+00 -0.299570D-01  0.323592D-01  0.000000D+00
     14   0.000000D+00  0.654535D-01  0.268313D+00  0.579557D+00  0.000000D+00
     15   0.194423D+00  0.000000D+00  0.000000D+00  0.000000D+00 -0.566281D-02
     16  -0.199824D+00  0.000000D+00  0.000000D+00  0.000000D+00  0.281819D+00
               416           417           418           419           420 
      1  -0.112346D+03 -0.112334D+03 -0.112310D+03 -0.112288D+03 -0.112286D+03
      2   0.000000D+00 -0.817310D-01  0.341616D-01  0.146622D-01  0.000000D+00
      3   0.000000D+00  0.611003D-01 -0.182624D-01 -0.432654D-01  0.000000D+00
      4   0.547758D-01  0.000000D+00  0.000000D+00  0.000000D+00 -0.562270D-01
      5   0.000000D+00  0.212110D+00 -0.889800D-01 -0.218662D-01  0.000000D+00
      6   0.000000D+00 -0.174962D+00  0.543191D-01  0.137678D+00  0.000000D+00
      7  -0.170003D+00  0.000000D+00  0.000000D+00  0.000000D+00  0.163349D+00
      8   0.424381D+00  0.000000D+00  0.000000D+00  0.000000D+00  0.937742D-01
      9  -0.115459D-01  0.000000D+00  0.000000D+00  0.000000D+00 -0.911810D-02
     10   0.000000D+00 -0.913831D-02  0.543604D-01  0.293874D+00  0.000000D+00
     11   0.000000D+00  0.617615D-01  0.165271D+00  0.573180D-01  0.000000D+00
     12   0.000000D+00 -0.143353D+00 -0.914851D+00 -0.879528D+00  0.000000D+00
     13   0.000000D+00 -0.123294D+00  0.935855D-01 -0.137992D+00  0.000000D+00
     14   0.000000D+00  0.125341D-01 -0.140979D+00 -0.446601D+00  0.000000D+00
     15  -0.112638D+00  0.000000D+00  0.000000D+00  0.000000D+00  0.506437D-02
     16   0.334265D+00  0.000000D+00  0.000000D+00  0.000000D+00 -0.691090D-01
               421           422           423           424           425 
      1  -0.112283D+03 -0.112274D+03 -0.112271D+03 -0.112263D+03 -0.112260D+03
      2   0.000000D+00  0.000000D+00  0.225486D+00  0.000000D+00  0.854482D-01
      3   0.000000D+00  0.000000D+00  0.101255D+00  0.000000D+00 -0.701190D-01
      4  -0.520504D-01 -0.228958D-01  0.000000D+00 -0.129630D-01  0.000000D+00
      5   0.000000D+00  0.000000D+00 -0.652429D+00  0.000000D+00 -0.225621D+00
      6   0.000000D+00  0.000000D+00 -0.317231D+00  0.000000D+00  0.216449D+00
      7   0.116033D+00  0.853065D-01  0.000000D+00  0.174987D-01  0.000000D+00
      8   0.550429D-01  0.337740D+00  0.000000D+00 -0.130912D+00  0.000000D+00
      9   0.183132D-01  0.271165D-02  0.000000D+00 -0.948026D-02  0.000000D+00
     10   0.000000D+00  0.000000D+00 -0.297237D+00  0.000000D+00 -0.290722D+00
     11   0.000000D+00  0.000000D+00 -0.327572D+00  0.000000D+00 -0.860890D-01
     12   0.000000D+00  0.000000D+00  0.137412D+01  0.000000D+00 -0.322850D+00
     13   0.000000D+00  0.000000D+00  0.139670D+00  0.000000D+00  0.694855D-02
     14   0.000000D+00  0.000000D+00  0.304877D+00  0.000000D+00  0.310568D+00
     15  -0.259159D+00 -0.311832D-02  0.000000D+00 -0.344022D-01  0.000000D+00
     16   0.551002D-01  0.520765D+00  0.000000D+00  0.158224D-01  0.000000D+00
               426           427           428           429           430 
      1  -0.112258D+03 -0.112241D+03 -0.112212D+03 -0.112211D+03 -0.112198D+03
      2   0.000000D+00 -0.175310D+00  0.000000D+00 -0.262567D-03  0.000000D+00
      3   0.000000D+00 -0.564067D-02  0.000000D+00 -0.171328D-01  0.000000D+00
      4   0.706196D-01  0.000000D+00  0.226550D+00  0.000000D+00  0.634411D-01
      5   0.000000D+00  0.519132D+00  0.000000D+00  0.245097D-01  0.000000D+00
      6   0.000000D+00  0.386986D-01  0.000000D+00  0.598912D-01  0.000000D+00
      7  -0.191494D+00  0.000000D+00 -0.654697D+00  0.000000D+00 -0.179279D+00
      8  -0.260028D+00  0.000000D+00  0.671556D+00  0.000000D+00  0.862436D-01
      9   0.608570D-01  0.000000D+00  0.353623D-01  0.000000D+00  0.423991D-01
     10   0.000000D+00  0.329141D+00  0.000000D+00  0.267304D+00  0.000000D+00
     11   0.000000D+00 -0.146453D-01  0.000000D+00 -0.113602D+00  0.000000D+00
     12   0.000000D+00 -0.322563D+00  0.000000D+00 -0.480151D+00  0.000000D+00
     13   0.000000D+00  0.161628D+00  0.000000D+00  0.408256D-01  0.000000D+00
     14   0.000000D+00 -0.170306D+00  0.000000D+00 -0.155694D+00  0.000000D+00
     15  -0.227555D+00  0.000000D+00 -0.236076D+00  0.000000D+00 -0.262688D+00
     16  -0.527416D+00  0.000000D+00  0.671548D+00  0.000000D+00  0.861067D-01
               431           432           433           434           435 
      1  -0.112169D+03 -0.112153D+03 -0.112148D+03 -0.112112D+03 -0.112096D+03
      2   0.000000D+00 -0.506775D-01 -0.130454D+00  0.000000D+00  0.000000D+00
      3   0.000000D+00  0.151954D+00  0.182771D-02  0.000000D+00  0.000000D+00
      4  -0.794749D-01  0.000000D+00  0.000000D+00 -0.126446D+00 -0.419494D-02
      5   0.000000D+00  0.141708D+00  0.402982D+00  0.000000D+00  0.000000D+00
      6   0.000000D+00 -0.474385D+00 -0.501644D-02  0.000000D+00  0.000000D+00
      7   0.233994D+00  0.000000D+00  0.000000D+00  0.350171D+00  0.710473D-02
      8  -0.233106D+00  0.000000D+00  0.000000D+00  0.169352D+00  0.145282D+00
      9  -0.203981D-01  0.000000D+00  0.000000D+00 -0.368451D-01  0.907992D-02
     10   0.000000D+00 -0.211430D+00  0.550045D+00  0.000000D+00  0.000000D+00
     11   0.000000D+00  0.536239D-01  0.268613D+00  0.000000D+00  0.000000D+00
     12   0.000000D+00  0.131474D+01  0.119837D+01  0.000000D+00  0.000000D+00
     13   0.000000D+00 -0.576778D-01 -0.144920D+00  0.000000D+00  0.000000D+00
     14   0.000000D+00 -0.164876D+00 -0.759493D+00  0.000000D+00  0.000000D+00
     15  -0.584889D-01  0.000000D+00  0.000000D+00  0.146356D+00  0.541122D-01
     16  -0.530203D+00  0.000000D+00  0.000000D+00  0.427709D-01  0.109528D+00
               436           437           438           439           440 
      1  -0.112082D+03 -0.112063D+03 -0.112059D+03 -0.112046D+03 -0.112019D+03
      2   0.000000D+00  0.260771D-01 -0.223595D+00  0.000000D+00 -0.403481D-01
      3   0.000000D+00 -0.114440D+00  0.126505D+00  0.000000D+00  0.883097D-01
      4   0.257209D-01  0.000000D+00  0.000000D+00  0.428980D-02  0.000000D+00
      5   0.000000D+00 -0.117134D+00  0.695014D+00  0.000000D+00  0.131011D+00
      6   0.000000D+00  0.360580D+00 -0.392967D+00  0.000000D+00 -0.302529D+00
      7  -0.760605D-01  0.000000D+00  0.000000D+00 -0.313063D-01  0.000000D+00
      8   0.465506D+00  0.000000D+00  0.000000D+00  0.169745D+00  0.000000D+00
      9   0.267486D-01  0.000000D+00  0.000000D+00  0.964234D-02  0.000000D+00
     10   0.000000D+00 -0.800671D+00  0.883220D+00  0.000000D+00  0.181174D-01
     11   0.000000D+00 -0.255740D+00  0.213608D+00  0.000000D+00  0.222760D+00
     12   0.000000D+00 -0.829090D+00  0.887998D+00  0.000000D+00  0.740350D+00
     13   0.000000D+00  0.177212D+00 -0.166129D+00  0.000000D+00 -0.713046D-01
     14   0.000000D+00  0.797338D+00 -0.109027D+01  0.000000D+00 -0.192068D+00
     15  -0.233521D+00  0.000000D+00  0.000000D+00 -0.207522D-01  0.000000D+00
     16   0.517373D+00  0.000000D+00  0.000000D+00 -0.597201D-01  0.000000D+00
               441           442           443           444           445 
      1  -0.111995D+03 -0.111982D+03 -0.111976D+03 -0.111925D+03 -0.111885D+03
      2   0.296648D-01  0.000000D+00  0.131797D+00  0.000000D+00  0.199097D-01
      3   0.317027D-01  0.000000D+00 -0.477297D-02  0.000000D+00  0.747183D-01
      4   0.000000D+00  0.303357D+00  0.000000D+00  0.141769D+00  0.000000D+00
      5  -0.924781D-01  0.000000D+00 -0.425171D+00  0.000000D+00 -0.896063D-01
      6  -0.104807D+00  0.000000D+00  0.747063D-02  0.000000D+00 -0.249783D+00
      7   0.000000D+00 -0.946912D+00  0.000000D+00 -0.462787D+00  0.000000D+00
      8   0.000000D+00  0.968492D+00  0.000000D+00  0.786284D+00  0.000000D+00
      9   0.000000D+00  0.703272D-01  0.000000D+00  0.421581D-01  0.000000D+00
     10  -0.804168D-01  0.000000D+00 -0.403875D+00  0.000000D+00 -0.308887D+00
     11  -0.108483D+00  0.000000D+00 -0.131740D+00  0.000000D+00 -0.116162D+00
     12   0.264840D+00  0.000000D+00 -0.656839D-01  0.000000D+00  0.999263D+00
     13   0.305083D-01  0.000000D+00 -0.114231D+00  0.000000D+00 -0.109588D+00
     14   0.161499D+00  0.000000D+00  0.642354D+00  0.000000D+00  0.412110D+00
     15   0.000000D+00 -0.339179D+00  0.000000D+00 -0.113449D+00  0.000000D+00
     16   0.000000D+00  0.107840D+01  0.000000D+00  0.826324D+00  0.000000D+00
               446           447           448           449           450 
      1  -0.111868D+03 -0.111865D+03 -0.111786D+03 -0.111784D+03 -0.111738D+03
      2   0.405014D-01  0.000000D+00 -0.126032D-01  0.000000D+00 -0.711337D-01
      3   0.692653D-01  0.000000D+00 -0.234612D+00  0.000000D+00  0.261118D-01
      4   0.000000D+00  0.237931D+00  0.000000D+00 -0.274536D-01  0.000000D+00
      5  -0.145938D+00  0.000000D+00  0.476957D-01  0.000000D+00  0.222986D+00
      6  -0.220712D+00  0.000000D+00  0.814099D+00  0.000000D+00 -0.872486D-01
      7   0.000000D+00 -0.769706D+00  0.000000D+00  0.731827D-01  0.000000D+00
      8   0.000000D+00  0.130834D+01  0.000000D+00  0.235975D+00  0.000000D+00
      9   0.000000D+00  0.416449D-01  0.000000D+00 -0.109681D-01  0.000000D+00
     10  -0.498027D+00  0.000000D+00  0.121297D+00  0.000000D+00 -0.440064D-01
     11  -0.182999D+00  0.000000D+00 -0.241600D-01  0.000000D+00 -0.139662D+00
     12   0.101232D+00  0.000000D+00 -0.141402D+01  0.000000D+00  0.172606D+00
     13   0.189386D+00  0.000000D+00 -0.490638D-02  0.000000D+00  0.208504D+00
     14   0.552501D+00  0.000000D+00  0.192895D+00  0.000000D+00  0.134627D+00
     15   0.000000D+00 -0.163828D+00  0.000000D+00  0.288998D+00  0.000000D+00
     16   0.000000D+00  0.160055D+01  0.000000D+00  0.361096D+00  0.000000D+00
               451           452           453           454           455 
      1  -0.111695D+03 -0.111651D+03 -0.111605D+03 -0.111534D+03 -0.111529D+03
      2   0.000000D+00 -0.186372D-02  0.000000D+00  0.182033D-01  0.000000D+00
      3   0.000000D+00 -0.615422D-01  0.000000D+00 -0.328420D-01  0.000000D+00
      4  -0.871098D-01  0.000000D+00 -0.414129D-01  0.000000D+00 -0.133860D+00
      5   0.000000D+00  0.101428D-01  0.000000D+00 -0.750053D-01  0.000000D+00
      6   0.000000D+00  0.279781D+00  0.000000D+00  0.143807D+00  0.000000D+00
      7   0.289710D+00  0.000000D+00  0.140860D+00  0.000000D+00  0.501088D+00
      8  -0.390892D+00  0.000000D+00  0.616146D-02  0.000000D+00 -0.727247D+00
      9  -0.197995D-01  0.000000D+00 -0.564393D-02  0.000000D+00 -0.180436D-01
     10   0.000000D+00  0.575187D-01  0.000000D+00 -0.234253D+00  0.000000D+00
     11   0.000000D+00  0.915323D-01  0.000000D+00  0.111063D+00  0.000000D+00
     12   0.000000D+00 -0.193832D+01  0.000000D+00 -0.385488D+00  0.000000D+00
     13   0.000000D+00  0.157832D+00  0.000000D+00 -0.194565D+00  0.000000D+00
     14   0.000000D+00  0.120388D-01  0.000000D+00  0.940291D-01  0.000000D+00
     15  -0.286472D+00  0.000000D+00 -0.133812D+00  0.000000D+00  0.253079D+00
     16  -0.946660D-01  0.000000D+00 -0.217449D+00  0.000000D+00 -0.625760D+00
               456           457           458           459           460 
      1  -0.111450D+03 -0.111375D+03 -0.111373D+03 -0.111329D+03 -0.111271D+03
      2   0.111256D+00  0.000000D+00  0.103485D-02 -0.176945D-01  0.181312D+00
      3   0.126425D+00  0.000000D+00  0.137588D+00 -0.546596D-02  0.818672D-02
      4   0.000000D+00 -0.619505D-01  0.000000D+00  0.000000D+00  0.000000D+00
      5  -0.410034D+00  0.000000D+00  0.308652D-02  0.653929D-01 -0.692101D+00
      6  -0.484975D+00  0.000000D+00 -0.543204D+00  0.790549D-01 -0.288257D-01
      7   0.000000D+00  0.236541D+00  0.000000D+00  0.000000D+00  0.000000D+00
      8   0.000000D+00 -0.289960D+00  0.000000D+00  0.000000D+00  0.000000D+00
      9   0.000000D+00  0.158976D-02  0.000000D+00  0.000000D+00  0.000000D+00
     10  -0.480789D+00  0.000000D+00 -0.805587D-01  0.125811D+00 -0.992654D+00
     11  -0.256629D+00  0.000000D+00 -0.134786D-01  0.180563D-02 -0.528766D+00
     12   0.142855D+01  0.000000D+00  0.152492D+01 -0.229410D-01  0.408270D+00
     13   0.680684D-01  0.000000D+00  0.240253D-01 -0.300092D+00  0.207094D+00
     14   0.249364D+00  0.000000D+00 -0.355506D-01 -0.385990D-01  0.950818D+00
     15   0.000000D+00  0.184007D+00  0.000000D+00  0.000000D+00  0.000000D+00
     16   0.000000D+00 -0.235041D+00  0.000000D+00  0.000000D+00  0.000000D+00
               461           462 
      1  -0.111146D+03 -0.110822D+03
      2   0.853276D-01  0.326879D-01
      3  -0.520670D-02 -0.115596D-02
      4   0.000000D+00  0.000000D+00
      5  -0.329510D+00 -0.123832D+00
      6   0.501788D-01  0.386247D-01
      7   0.000000D+00  0.000000D+00
      8   0.000000D+00  0.000000D+00
      9   0.000000D+00  0.000000D+00
     10  -0.433517D+00 -0.150483D+00
     11  -0.175456D+00 -0.223530D+00
     12  -0.541786D+00  0.112632D-01
     13   0.393813D-01  0.166895D+00
     14   0.478540D+00  0.648943D-01
     15   0.000000D+00  0.000000D+00
     16   0.000000D+00  0.000000D+00
 Unable to Open any file for archive entry.
 1\1\GINC-HEL12\SP\RPW91PW91 TD-FC\Gen\C1H4O1\SABYASACHI\21-Mar-2022\0\
 \#P TD(Nstates=10000) pw91pw91/Gen SCF(maxcycles=100) Int(Grid=ultrafi
 ne)\\xGDB7_00001_tier4.com\\0,1\C,0,0.046419,0.658432,0.\O,0,0.046419,
 -0.751929,0.\H,0,-0.438905,1.073261,0.890797\H,0,-0.438905,1.073261,-0
 .890797\H,0,1.087855,0.977571,0.\H,0,-0.859911,-1.059251,0.\\Version=E
 M64L-G16RevC.01\State=1-A'\HF=-115.6004508\RMSD=2.965e-09\PG=CS [SG(C1
 H2O1),X(H2)]\\@
 The archive entry for this job was punched.


 MUD THROWN IS GROUND LOST -- FROM A TEA BAG
 Job cpu time:       0 days  0 hours  2 minutes 10.8 seconds.
 Elapsed time:       0 days  0 hours  0 minutes 16.6 seconds.
 File lengths (MBytes):  RWF=    110 Int=      0 D2E=      0 Chk=     64 Scr=      1
 Normal termination of Gaussian 16 at Mon Mar 21 20:11:32 2022.
