 Entering Gaussian System, Link 0=g16
 Input=000023.com
 Output=000023.log
 Initial command:
 /home/sabyasachi/g16/l1.exe "/scratch/sabyasachi/PBS_7976520.helios/Gau-113347.inp" -scrdir="/scratch/sabyasachi/PBS_7976520.helios/"
 Entering Link 1 = /home/sabyasachi/g16/l1.exe PID=    113348.
  
 Copyright (c) 1988-2019, Gaussian, Inc.  All Rights Reserved.
  
 This is part of the Gaussian(R) 16 program.  It is based on
 the Gaussian(R) 09 system (copyright 2009, Gaussian, Inc.),
 the Gaussian(R) 03 system (copyright 2003, Gaussian, Inc.),
 the Gaussian(R) 98 system (copyright 1998, Gaussian, Inc.),
 the Gaussian(R) 94 system (copyright 1995, Gaussian, Inc.),
 the Gaussian 92(TM) system (copyright 1992, Gaussian, Inc.),
 the Gaussian 90(TM) system (copyright 1990, Gaussian, Inc.),
 the Gaussian 88(TM) system (copyright 1988, Gaussian, Inc.),
 the Gaussian 86(TM) system (copyright 1986, Carnegie Mellon
 University), and the Gaussian 82(TM) system (copyright 1983,
 Carnegie Mellon University). Gaussian is a federally registered
 trademark of Gaussian, Inc.
  
 This software contains proprietary and confidential information,
 including trade secrets, belonging to Gaussian, Inc.
  
 This software is provided under written license and may be
 used, copied, transmitted, or stored only in accord with that
 written license.
  
 The following legend is applicable only to US Government
 contracts under FAR:
  
                    RESTRICTED RIGHTS LEGEND
  
 Use, reproduction and disclosure by the US Government is
 subject to restrictions as set forth in subparagraphs (a)
 and (c) of the Commercial Computer Software - Restricted
 Rights clause in FAR 52.227-19.
  
 Gaussian, Inc.
 340 Quinnipiac St., Bldg. 40, Wallingford CT 06492
  
  
 ---------------------------------------------------------------
 Warning -- This program may not be used in any manner that
 competes with the business of Gaussian, Inc. or will provide
 assistance to any competitor of Gaussian, Inc.  The licensee
 of this program is prohibited from giving any competitor of
 Gaussian, Inc. access to this program.  By using this program,
 the user acknowledges that Gaussian, Inc. is engaged in the
 business of creating and licensing software in the field of
 computational chemistry and represents and warrants to the
 licensee that it is not a competitor of Gaussian, Inc. and that
 it will not use this program in any manner prohibited above.
 ---------------------------------------------------------------
  

 Cite this work as:
 Gaussian 16, Revision C.01,
 M. J. Frisch, G. W. Trucks, H. B. Schlegel, G. E. Scuseria, 
 M. A. Robb, J. R. Cheeseman, G. Scalmani, V. Barone, 
 G. A. Petersson, H. Nakatsuji, X. Li, M. Caricato, A. V. Marenich, 
 J. Bloino, B. G. Janesko, R. Gomperts, B. Mennucci, H. P. Hratchian, 
 J. V. Ortiz, A. F. Izmaylov, J. L. Sonnenberg, D. Williams-Young, 
 F. Ding, F. Lipparini, F. Egidi, J. Goings, B. Peng, A. Petrone, 
 T. Henderson, D. Ranasinghe, V. G. Zakrzewski, J. Gao, N. Rega, 
 G. Zheng, W. Liang, M. Hada, M. Ehara, K. Toyota, R. Fukuda, 
 J. Hasegawa, M. Ishida, T. Nakajima, Y. Honda, O. Kitao, H. Nakai, 
 T. Vreven, K. Throssell, J. A. Montgomery, Jr., J. E. Peralta, 
 F. Ogliaro, M. J. Bearpark, J. J. Heyd, E. N. Brothers, K. N. Kudin, 
 V. N. Staroverov, T. A. Keith, R. Kobayashi, J. Normand, 
 K. Raghavachari, A. P. Rendell, J. C. Burant, S. S. Iyengar, 
 J. Tomasi, M. Cossi, J. M. Millam, M. Klene, C. Adamo, R. Cammi, 
 J. W. Ochterski, R. L. Martin, K. Morokuma, O. Farkas, 
 J. B. Foresman, and D. J. Fox, Gaussian, Inc., Wallingford CT, 2019.
 
 ******************************************
 Gaussian 16:  EM64L-G16RevC.01  3-Jul-2019
                21-Mar-2022 
 ******************************************
 %mem=64gb
 %nproc=8
 Will use up to    8 processors via shared memory.
 ----------------------------------------------------------------------
 #P TD(Nstates=10000) pw91pw91/Gen SCF(maxcycles=100) Int(Grid=ultrafin
 e)
 ----------------------------------------------------------------------
 1/38=1,172=1/1;
 2/12=2,17=6,18=5,40=1/2;
 3/5=7,11=9,25=1,30=1,74=608,75=-5/1,2,3,8;
 4//1;
 5/5=2,7=100,38=5/2;
 8/6=1,10=1,108=10000/1;
 9/41=10000,42=1,70=2/14;
 6/7=2,8=2,9=2,10=2/1;
 99/5=1,9=1/99;
 Leave Link    1 at Mon Mar 21 20:14:27 2022, MaxMem=  8589934592 cpu:               0.4 elap:               0.1
 (Enter /home/sabyasachi/g16/l101.exe)
 ---------------------
 xGDB7_00001_tier4.com
 ---------------------
 Symbolic Z-matrix:
 Charge =  0 Multiplicity = 1
 6                     0.        0.       -1.17365 
 6                     0.        0.        0.28099 
 7                     0.        0.        1.42744 
 1                     0.        1.02409  -1.54537 
 1                    -0.88689  -0.51204  -1.54537 
 1                     0.88689  -0.51204  -1.54537 
 
 ITRead=  0  0  0  0  0  0
 MicOpt= -1 -1 -1 -1 -1 -1
 NAtoms=      6 NQM=        6 NQMF=       0 NMMI=      0 NMMIF=      0
                NMic=       0 NMicF=      0.
                    Isotopes and Nuclear Properties:
 (Nuclear quadrupole moments (NQMom) in fm**2, nuclear magnetic moments (NMagM)
  in nuclear magnetons)

  Atom         1           2           3           4           5           6
 IAtWgt=          12          12          14           1           1           1
 AtmWgt=  12.0000000  12.0000000  14.0030740   1.0078250   1.0078250   1.0078250
 NucSpn=           0           0           2           1           1           1
 AtZEff=  -0.0000000  -0.0000000  -0.0000000  -0.0000000  -0.0000000  -0.0000000
 NQMom=    0.0000000   0.0000000   2.0440000   0.0000000   0.0000000   0.0000000
 NMagM=    0.0000000   0.0000000   0.4037610   2.7928460   2.7928460   2.7928460
 AtZNuc=   6.0000000   6.0000000   7.0000000   1.0000000   1.0000000   1.0000000
 Leave Link  101 at Mon Mar 21 20:14:27 2022, MaxMem=  8589934592 cpu:               0.6 elap:               0.1
 (Enter /home/sabyasachi/g16/l202.exe)
                          Input orientation:                          
 ---------------------------------------------------------------------
 Center     Atomic      Atomic             Coordinates (Angstroms)
 Number     Number       Type             X           Y           Z
 ---------------------------------------------------------------------
      1          6           0        0.000000    0.000000   -1.173653
      2          6           0        0.000000    0.000000    0.280989
      3          7           0        0.000000    0.000000    1.427442
      4          1           0        0.000000    1.024088   -1.545371
      5          1           0       -0.886886   -0.512044   -1.545371
      6          1           0        0.886886   -0.512044   -1.545371
 ---------------------------------------------------------------------
                    Distance matrix (angstroms):
                    1          2          3          4          5
     1  C    0.000000
     2  C    1.454642   0.000000
     3  N    2.601095   1.146453   0.000000
     4  H    1.089463   2.093883   3.144260   0.000000
     5  H    1.089463   2.093883   3.144260   1.773772   0.000000
     6  H    1.089463   2.093883   3.144260   1.773772   1.773772
                    6
     6  H    0.000000
 Stoichiometry    C2H3N
 Framework group  C3V[C3(CCN),3SGV(H)]
 Deg. of freedom     4
 Full point group                 C3V     NOp   6
 Largest Abelian subgroup         CS      NOp   2
 Largest concise Abelian subgroup CS      NOp   2
                         Standard orientation:                         
 ---------------------------------------------------------------------
 Center     Atomic      Atomic             Coordinates (Angstroms)
 Number     Number       Type             X           Y           Z
 ---------------------------------------------------------------------
      1          6           0        0.000000    0.000000   -1.173653
      2          6           0        0.000000    0.000000    0.280989
      3          7           0        0.000000    0.000000    1.427442
      4          1           0        0.000000    1.024088   -1.545371
      5          1           0       -0.886886   -0.512044   -1.545371
      6          1           0        0.886886   -0.512044   -1.545371
 ---------------------------------------------------------------------
 Rotational constants (GHZ):         159.3808899           9.3073631           9.3073631
 Leave Link  202 at Mon Mar 21 20:14:27 2022, MaxMem=  8589934592 cpu:               0.1 elap:               0.0
 (Enter /home/sabyasachi/g16/l301.exe)
 General basis read from cards:  (5D, 7F)
 Centers:       4      5      6
 S 3 1.00
     Exponent=  1.3010701000D+01 Coefficients=  1.9682158000D-02
     Exponent=  1.9622572000D+00 Coefficients=  1.3796524000D-01
     Exponent=  4.4453796000D-01 Coefficients=  4.7831935000D-01
 S 1 1.00
     Exponent=  1.2194962000D-01 Coefficients=  1.0000000000D+00
 P 1 1.00
     Exponent=  8.0000000000D-01 Coefficients=  1.0000000000D+00
 P 1 1.00
     Exponent=  1.1704099050D-01 Coefficients=  1.0000000000D+00
 ****
 Centers:       1      2
 S 5 1.00
     Exponent=  1.2384016938D+03 Coefficients=  5.4568832082D-03
     Exponent=  1.8629004992D+02 Coefficients=  4.0638409211D-02
     Exponent=  4.2251176346D+01 Coefficients=  1.8025593888D-01
     Exponent=  1.1676557932D+01 Coefficients=  4.6315121755D-01
     Exponent=  3.5930506482D+00 Coefficients=  4.4087173314D-01
 S 1 1.00
     Exponent=  4.0245147363D-01 Coefficients=  1.0000000000D+00
 S 1 1.00
     Exponent=  1.3090182668D-01 Coefficients=  1.0000000000D+00
 S 1 1.00
     Exponent=  6.7053540256D-02 Coefficients=  1.0000000000D+00
 P 3 1.00
     Exponent=  9.4680970621D+00 Coefficients=  3.8387871728D-02
     Exponent=  2.0103545142D+00 Coefficients=  2.1117025112D-01
     Exponent=  5.4771004707D-01 Coefficients=  5.1328172114D-01
 P 1 1.00
     Exponent=  1.5268613795D-01 Coefficients=  1.0000000000D+00
 D 1 1.00
     Exponent=  8.0000000000D-01 Coefficients=  1.0000000000D+00
 D 1 1.00
     Exponent=  1.1713185140D-01 Coefficients=  1.0000000000D+00
 ****
 Centers:       3
 S 5 1.00
     Exponent=  1.7128415853D+03 Coefficients= -5.3934125305D-03
     Exponent=  2.5764812677D+02 Coefficients= -4.0221581118D-02
     Exponent=  5.8458245853D+01 Coefficients= -1.7931144990D-01
     Exponent=  1.6198367905D+01 Coefficients= -4.6376317823D-01
     Exponent=  5.0052600809D+00 Coefficients= -4.4171422662D-01
 S 1 1.00
     Exponent=  5.8731856571D-01 Coefficients=  1.0000000000D+00
 S 1 1.00
     Exponent=  1.8764592253D-01 Coefficients=  1.0000000000D+00
 S 1 1.00
     Exponent=  9.6171241529D-02 Coefficients=  1.0000000000D+00
 P 3 1.00
     Exponent=  1.3571470233D+01 Coefficients= -4.0072398852D-02
     Exponent=  2.9257372874D+00 Coefficients= -2.1807045028D-01
     Exponent=  7.9927750754D-01 Coefficients= -5.1294466049D-01
 P 1 1.00
     Exponent=  2.1954348034D-01 Coefficients=  1.0000000000D+00
 D 1 1.00
     Exponent=  1.0000000000D+00 Coefficients=  1.0000000000D+00
 D 1 1.00
     Exponent=  1.6697708112D-01 Coefficients=  1.0000000000D+00
 ****
 Ernie: Thresh=  0.10000D-02 Tol=  0.10000D-05 Strict=F.
 There are    62 symmetry adapted cartesian basis functions of A'  symmetry.
 There are    28 symmetry adapted cartesian basis functions of A"  symmetry.
 There are    56 symmetry adapted basis functions of A'  symmetry.
 There are    28 symmetry adapted basis functions of A"  symmetry.
    84 basis functions,   126 primitive gaussians,    90 cartesian basis functions
    11 alpha electrons       11 beta electrons
       nuclear repulsion energy        58.7485374816 Hartrees.
 IExCor=  608 DFT=T Ex=PW91 Corr=PW91 ExCW=0 ScaHFX=  0.000000
 ScaDFX=  1.000000  1.000000  1.000000  1.000000 ScalE2=  1.000000  1.000000
 IRadAn=      5 IRanWt=     -1 IRanGd=            0 ICorTp=0 IEmpDi=  4
 NAtoms=    6 NActive=    6 NUniq=    4 SFac= 2.25D+00 NAtFMM=   60 NAOKFM=F Big=F
 Integral buffers will be    131072 words long.
 Regular integral format.
 Two-electron integral symmetry is turned on.
 Leave Link  301 at Mon Mar 21 20:14:27 2022, MaxMem=  8589934592 cpu:               0.6 elap:               0.1
 (Enter /home/sabyasachi/g16/l302.exe)
 NPDir=0 NMtPBC=     1 NCelOv=     1 NCel=       1 NClECP=     1 NCelD=      1
         NCelK=      1 NCelE2=     1 NClLst=     1 CellRange=     0.0.
 One-electron integrals computed using PRISM.
 One-electron integral symmetry used in STVInt
 NBasis=    84 RedAO= T EigKep=  2.41D-04  NBF=    56    28
 NBsUse=    84 1.00D-06 EigRej= -1.00D+00 NBFU=    56    28
 Precomputing XC quadrature grid using
 IXCGrd= 4 IRadAn=           5 IRanWt=          -1 IRanGd=           0 AccXCQ= 0.00D+00.
 Generated NRdTot=       0 NPtTot=           0 NUsed=           0 NTot=          32
 NSgBfM=    90    90    90    90    90 MxSgAt=     6 MxSgA2=     6.
 Leave Link  302 at Mon Mar 21 20:14:28 2022, MaxMem=  8589934592 cpu:               0.9 elap:               0.1
 (Enter /home/sabyasachi/g16/l303.exe)
 DipDrv:  MaxL=1.
 Leave Link  303 at Mon Mar 21 20:14:28 2022, MaxMem=  8589934592 cpu:               0.2 elap:               0.0
 (Enter /home/sabyasachi/g16/l308.exe)
 Leave Link  308 at Mon Mar 21 20:14:28 2022, MaxMem=  8589934592 cpu:               0.2 elap:               0.0
 (Enter /home/sabyasachi/g16/l401.exe)
 ExpMin= 6.71D-02 ExpMax= 1.71D+03 ExpMxC= 2.58D+02 IAcc=3 IRadAn=         5 AccDes= 0.00D+00
 Harris functional with IExCor=  608 and IRadAn=       5 diagonalized for initial guess.
 HarFok:  IExCor=  608 AccDes= 0.00D+00 IRadAn=         5 IDoV= 1 UseB2=F ITyADJ=14
 ICtDFT=  3500011 ScaDFX=  1.000000  1.000000  1.000000  1.000000
 FoFCou: FMM=F IPFlag=           0 FMFlag=      100000 FMFlg1=           0
         NFxFlg=           0 DoJE=T BraDBF=F KetDBF=T FulRan=T
         wScrn=  0.000000 ICntrl=       500 IOpCl=  0 I1Cent=   200000004 NGrid=           0
         NMat0=    1 NMatS0=      1 NMatT0=    0 NMatD0=    1 NMtDS0=    0 NMtDT0=    0
 Petite list used in FoFCou.
 Harris En= -132.661801387478    
 JPrj=0 DoOrth=F DoCkMO=F.
 Initial guess orbital symmetries:
       Occupied  (A1) (A1) (A1) (A1) (A1) (A1) (E) (E) (A1) (E)
                 (E)
       Virtual   (E) (E) (A1) (A1) (E) (E) (A1) (E) (E) (A1) (E)
                 (E) (A1) (E) (E) (A1) (E) (E) (E) (E) (A1) (A2)
                 (A1) (A1) (E) (E) (E) (E) (E) (E) (A1) (E) (E)
                 (A1) (E) (E) (A1) (A1) (E) (E) (A1) (E) (E) (A1)
                 (A1) (E) (E) (A1) (E) (E) (A1) (A2) (E) (E) (E)
                 (E) (E) (E) (A1) (E) (E) (A1) (E) (E) (E) (E)
                 (A1) (E) (E) (A1) (E) (E) (A1)
 The electronic state of the initial guess is 1-A1.
 Leave Link  401 at Mon Mar 21 20:14:28 2022, MaxMem=  8589934592 cpu:               1.6 elap:               0.2
 (Enter /home/sabyasachi/g16/l502.exe)
 Keep J ints in memory in symmetry-blocked form, NReq=13697361.
 FoFCou: FMM=F IPFlag=           0 FMFlag=           0 FMFlg1=           0
         NFxFlg=           0 DoJE=F BraDBF=F KetDBF=F FulRan=T
         wScrn=  0.000000 ICntrl=       600 IOpCl=  0 I1Cent=           0 NGrid=           0
         NMat0=    1 NMatS0=   3570 NMatT0=    0 NMatD0=    1 NMtDS0=    0 NMtDT0=    0
 Petite list used in FoFCou.
 Closed shell SCF:
 Using DIIS extrapolation, IDIIS=  1040.
 NGot=  8589934592 LenX=  8586672929 LenY=  8586664388
 Requested convergence on RMS density matrix=1.00D-08 within 100 cycles.
 Requested convergence on MAX density matrix=1.00D-06.
 Requested convergence on             energy=1.00D-06.
 No special actions if energy rises.
 Integral accuracy reduced to 1.0D-05 until final iterations.

 Cycle   1  Pass 0  IDiag  1:
 E= -132.532607420370    
 DIIS: error= 2.96D-02 at cycle   1 NSaved=   1.
 NSaved= 1 IEnMin= 1 EnMin= -132.532607420370     IErMin= 1 ErrMin= 2.96D-02
 ErrMax= 2.96D-02  0.00D+00 EMaxC= 1.00D-01 BMatC= 6.86D-02 BMatP= 6.86D-02
 IDIUse=3 WtCom= 7.04D-01 WtEn= 2.96D-01
 Coeff-Com:  0.100D+01
 Coeff-En:   0.100D+01
 Coeff:      0.100D+01
 Gap=     0.263 Goal=   None    Shift=    0.000
 GapD=    0.263 DampG=1.000 DampE=0.500 DampFc=0.5000 IDamp=-1.
 Damping current iteration by 5.00D-01
 RMSDP=1.21D-02 MaxDP=1.91D-01              OVMax= 2.39D-01

 Cycle   2  Pass 0  IDiag  1:
 E= -132.534090078577     Delta-E=       -0.001482658207 Rises=F Damp=T
 DIIS: error= 1.89D-02 at cycle   2 NSaved=   2.
 NSaved= 2 IEnMin= 2 EnMin= -132.534090078577     IErMin= 2 ErrMin= 1.89D-02
 ErrMax= 1.89D-02  0.00D+00 EMaxC= 1.00D-01 BMatC= 2.61D-02 BMatP= 6.86D-02
 IDIUse=3 WtCom= 8.11D-01 WtEn= 1.89D-01
 Coeff-Com:  0.351D+00 0.649D+00
 Coeff-En:   0.492D+00 0.508D+00
 Coeff:      0.378D+00 0.622D+00
 Gap=     0.267 Goal=   None    Shift=    0.000
 RMSDP=3.96D-03 MaxDP=6.74D-02 DE=-1.48D-03 OVMax= 2.17D-01

 Cycle   3  Pass 0  IDiag  1:
 E= -132.574981577214     Delta-E=       -0.040891498637 Rises=F Damp=F
 DIIS: error= 1.61D-02 at cycle   3 NSaved=   3.
 NSaved= 3 IEnMin= 3 EnMin= -132.574981577214     IErMin= 3 ErrMin= 1.61D-02
 ErrMax= 1.61D-02  0.00D+00 EMaxC= 1.00D-01 BMatC= 3.04D-02 BMatP= 2.61D-02
 IDIUse=2 WtCom= 0.00D+00 WtEn= 1.00D+00
 EnCoef did     1 forward-backward iterations
 Coeff-En:   0.544D-01 0.193D+00 0.753D+00
 Coeff:      0.544D-01 0.193D+00 0.753D+00
 Gap=     0.271 Goal=   None    Shift=    0.000
 RMSDP=5.39D-03 MaxDP=9.64D-02 DE=-4.09D-02 OVMax= 1.68D-01

 Cycle   4  Pass 0  IDiag  1:
 E= -132.498596169925     Delta-E=        0.076385407289 Rises=F Damp=F
 DIIS: error= 3.67D-02 at cycle   4 NSaved=   4.
 NSaved= 4 IEnMin= 3 EnMin= -132.574981577214     IErMin= 3 ErrMin= 1.61D-02
 ErrMax= 3.67D-02  0.00D+00 EMaxC= 1.00D-01 BMatC= 1.15D-01 BMatP= 2.61D-02
 IDIUse=2 WtCom= 0.00D+00 WtEn= 1.00D+00
 Coeff-En:   0.000D+00 0.000D+00 0.710D+00 0.290D+00
 Coeff:      0.000D+00 0.000D+00 0.710D+00 0.290D+00
 Gap=     0.288 Goal=   None    Shift=    0.000
 RMSDP=3.05D-03 MaxDP=5.62D-02 DE= 7.64D-02 OVMax= 9.70D-02

 Cycle   5  Pass 0  IDiag  1:
 E= -132.599724323689     Delta-E=       -0.101128153764 Rises=F Damp=F
 DIIS: error= 6.61D-03 at cycle   5 NSaved=   5.
 NSaved= 5 IEnMin= 5 EnMin= -132.599724323689     IErMin= 5 ErrMin= 6.61D-03
 ErrMax= 6.61D-03  0.00D+00 EMaxC= 1.00D-01 BMatC= 4.56D-03 BMatP= 2.61D-02
 IDIUse=3 WtCom= 9.34D-01 WtEn= 6.61D-02
 Coeff-Com: -0.433D-01 0.105D+00 0.225D+00-0.811D-01 0.794D+00
 Coeff-En:   0.000D+00 0.000D+00 0.187D+00 0.000D+00 0.813D+00
 Coeff:     -0.404D-01 0.984D-01 0.222D+00-0.757D-01 0.795D+00
 Gap=     0.286 Goal=   None    Shift=    0.000
 RMSDP=8.66D-04 MaxDP=1.74D-02 DE=-1.01D-01 OVMax= 1.86D-02

 Cycle   6  Pass 0  IDiag  1:
 E= -132.604212786513     Delta-E=       -0.004488462824 Rises=F Damp=F
 DIIS: error= 2.33D-04 at cycle   6 NSaved=   6.
 NSaved= 6 IEnMin= 6 EnMin= -132.604212786513     IErMin= 6 ErrMin= 2.33D-04
 ErrMax= 2.33D-04  0.00D+00 EMaxC= 1.00D-01 BMatC= 7.02D-06 BMatP= 4.56D-03
 IDIUse=3 WtCom= 9.98D-01 WtEn= 2.33D-03
 Coeff-Com: -0.124D-01 0.179D-01 0.553D-01-0.162D-01 0.219D+00 0.737D+00
 Coeff-En:   0.000D+00 0.000D+00 0.000D+00 0.000D+00 0.000D+00 0.100D+01
 Coeff:     -0.124D-01 0.179D-01 0.552D-01-0.162D-01 0.218D+00 0.737D+00
 Gap=     0.285 Goal=   None    Shift=    0.000
 RMSDP=4.12D-05 MaxDP=7.68D-04 DE=-4.49D-03 OVMax= 6.66D-04

 Cycle   7  Pass 0  IDiag  1:
 E= -132.604219133487     Delta-E=       -0.000006346974 Rises=F Damp=F
 DIIS: error= 4.44D-05 at cycle   7 NSaved=   7.
 NSaved= 7 IEnMin= 7 EnMin= -132.604219133487     IErMin= 7 ErrMin= 4.44D-05
 ErrMax= 4.44D-05  0.00D+00 EMaxC= 1.00D-01 BMatC= 1.81D-07 BMatP= 7.02D-06
 IDIUse=1 WtCom= 1.00D+00 WtEn= 0.00D+00
 Coeff-Com: -0.362D-02 0.507D-02 0.150D-01-0.499D-02 0.647D-01 0.326D+00
 Coeff-Com:  0.598D+00
 Coeff:     -0.362D-02 0.507D-02 0.150D-01-0.499D-02 0.647D-01 0.326D+00
 Coeff:      0.598D+00
 Gap=     0.286 Goal=   None    Shift=    0.000
 RMSDP=8.08D-06 MaxDP=1.59D-04 DE=-6.35D-06 OVMax= 1.48D-04

 Initial convergence to 1.0D-05 achieved.  Increase integral accuracy.
 Cycle   8  Pass 1  IDiag  1:
 E= -132.604217628861     Delta-E=        0.000001504625 Rises=F Damp=F
 DIIS: error= 1.08D-05 at cycle   1 NSaved=   1.
 NSaved= 1 IEnMin= 1 EnMin= -132.604217628861     IErMin= 1 ErrMin= 1.08D-05
 ErrMax= 1.08D-05  0.00D+00 EMaxC= 1.00D-01 BMatC= 8.15D-09 BMatP= 8.15D-09
 IDIUse=1 WtCom= 1.00D+00 WtEn= 0.00D+00
 Coeff-Com:  0.100D+01
 Coeff:      0.100D+01
 Gap=     0.286 Goal=   None    Shift=    0.000
 RMSDP=8.08D-06 MaxDP=1.59D-04 DE= 1.50D-06 OVMax= 7.02D-05

 Cycle   9  Pass 1  IDiag  1:
 E= -132.604217621537     Delta-E=        0.000000007324 Rises=F Damp=F
 DIIS: error= 1.28D-05 at cycle   2 NSaved=   2.
 NSaved= 2 IEnMin= 1 EnMin= -132.604217628861     IErMin= 1 ErrMin= 1.08D-05
 ErrMax= 1.28D-05  0.00D+00 EMaxC= 1.00D-01 BMatC= 1.70D-08 BMatP= 8.15D-09
 IDIUse=1 WtCom= 1.00D+00 WtEn= 0.00D+00
 Coeff-Com:  0.596D+00 0.404D+00
 Coeff:      0.596D+00 0.404D+00
 Gap=     0.286 Goal=   None    Shift=    0.000
 RMSDP=2.12D-06 MaxDP=4.34D-05 DE= 7.32D-09 OVMax= 4.77D-05

 Cycle  10  Pass 1  IDiag  1:
 E= -132.604217634845     Delta-E=       -0.000000013307 Rises=F Damp=F
 DIIS: error= 8.71D-06 at cycle   3 NSaved=   3.
 NSaved= 3 IEnMin= 3 EnMin= -132.604217634845     IErMin= 3 ErrMin= 8.71D-06
 ErrMax= 8.71D-06  0.00D+00 EMaxC= 1.00D-01 BMatC= 4.05D-09 BMatP= 8.15D-09
 IDIUse=1 WtCom= 1.00D+00 WtEn= 0.00D+00
 Coeff-Com:  0.393D+00 0.322D+00 0.285D+00
 Coeff:      0.393D+00 0.322D+00 0.285D+00
 Gap=     0.286 Goal=   None    Shift=    0.000
 RMSDP=7.76D-07 MaxDP=1.44D-05 DE=-1.33D-08 OVMax= 2.52D-05

 Cycle  11  Pass 1  IDiag  1:
 E= -132.604217638523     Delta-E=       -0.000000003679 Rises=F Damp=F
 DIIS: error= 9.32D-07 at cycle   4 NSaved=   4.
 NSaved= 4 IEnMin= 4 EnMin= -132.604217638523     IErMin= 4 ErrMin= 9.32D-07
 ErrMax= 9.32D-07  0.00D+00 EMaxC= 1.00D-01 BMatC= 6.88D-11 BMatP= 4.05D-09
 IDIUse=1 WtCom= 1.00D+00 WtEn= 0.00D+00
 Coeff-Com:  0.116D+00 0.108D+00 0.144D+00 0.631D+00
 Coeff:      0.116D+00 0.108D+00 0.144D+00 0.631D+00
 Gap=     0.286 Goal=   None    Shift=    0.000
 RMSDP=1.46D-07 MaxDP=2.25D-06 DE=-3.68D-09 OVMax= 2.20D-06

 Cycle  12  Pass 1  IDiag  1:
 E= -132.604217638581     Delta-E=       -0.000000000058 Rises=F Damp=F
 DIIS: error= 2.43D-07 at cycle   5 NSaved=   5.
 NSaved= 5 IEnMin= 5 EnMin= -132.604217638581     IErMin= 5 ErrMin= 2.43D-07
 ErrMax= 2.43D-07  0.00D+00 EMaxC= 1.00D-01 BMatC= 4.66D-12 BMatP= 6.88D-11
 IDIUse=1 WtCom= 1.00D+00 WtEn= 0.00D+00
 Coeff-Com:  0.215D-01 0.233D-01 0.430D-01 0.277D+00 0.635D+00
 Coeff:      0.215D-01 0.233D-01 0.430D-01 0.277D+00 0.635D+00
 Gap=     0.286 Goal=   None    Shift=    0.000
 RMSDP=3.94D-08 MaxDP=9.08D-07 DE=-5.84D-11 OVMax= 8.45D-07

 Cycle  13  Pass 1  IDiag  1:
 E= -132.604217638585     Delta-E=       -0.000000000003 Rises=F Damp=F
 DIIS: error= 9.06D-08 at cycle   6 NSaved=   6.
 NSaved= 6 IEnMin= 6 EnMin= -132.604217638585     IErMin= 6 ErrMin= 9.06D-08
 ErrMax= 9.06D-08  0.00D+00 EMaxC= 1.00D-01 BMatC= 4.75D-13 BMatP= 4.66D-12
 IDIUse=1 WtCom= 1.00D+00 WtEn= 0.00D+00
 Coeff-Com:  0.456D-03 0.199D-02 0.989D-02 0.768D-01 0.306D+00 0.605D+00
 Coeff:      0.456D-03 0.199D-02 0.989D-02 0.768D-01 0.306D+00 0.605D+00
 Gap=     0.286 Goal=   None    Shift=    0.000
 RMSDP=1.31D-08 MaxDP=2.11D-07 DE=-3.04D-12 OVMax= 1.87D-07

 Cycle  14  Pass 1  IDiag  1:
 E= -132.604217638586     Delta-E=       -0.000000000001 Rises=F Damp=F
 DIIS: error= 4.37D-09 at cycle   7 NSaved=   7.
 NSaved= 7 IEnMin= 7 EnMin= -132.604217638586     IErMin= 7 ErrMin= 4.37D-09
 ErrMax= 4.37D-09  0.00D+00 EMaxC= 1.00D-01 BMatC= 1.50D-15 BMatP= 4.75D-13
 IDIUse=1 WtCom= 1.00D+00 WtEn= 0.00D+00
 Coeff-Com: -0.988D-04 0.255D-03 0.235D-02 0.167D-01 0.708D-01 0.155D+00
 Coeff-Com:  0.755D+00
 Coeff:     -0.988D-04 0.255D-03 0.235D-02 0.167D-01 0.708D-01 0.155D+00
 Coeff:      0.755D+00
 Gap=     0.286 Goal=   None    Shift=    0.000
 RMSDP=6.75D-10 MaxDP=1.86D-08 DE=-1.39D-12 OVMax= 1.26D-08

 SCF Done:  E(RPW91-PW91) =  -132.604217639     A.U. after   14 cycles
            NFock= 14  Conv=0.67D-09     -V/T= 2.0101
 KE= 1.312823783326D+02 PE=-4.252075035596D+02 EE= 1.025723701067D+02
 Leave Link  502 at Mon Mar 21 20:14:29 2022, MaxMem=  8589934592 cpu:               8.4 elap:               1.1
 (Enter /home/sabyasachi/g16/l801.exe)
 DoSCS=F DFT=T ScalE2(SS,OS)=  1.000000  1.000000
 ExpMin= 6.71D-02 ExpMax= 1.71D+03 ExpMxC= 2.58D+02 IAcc=3 IRadAn=         5 AccDes= 0.00D+00
 HarFok:  IExCor=  205 AccDes= 0.00D+00 IRadAn=         5 IDoV=-2 UseB2=F ITyADJ=14
 ICtDFT= 12500011 ScaDFX=  1.000000  1.000000  1.000000  1.000000
 Largest valence mixing into a core orbital is  6.57D-05
 Largest core mixing into a valence orbital is  1.25D-05
 Range of M.O.s used for correlation:     4    84
 NBasis=    84 NAE=    11 NBE=    11 NFC=     3 NFV=     0
 NROrb=     81 NOA=     8 NOB=     8 NVA=    73 NVB=    73

 **** Warning!!: The largest alpha MO coefficient is  0.40154570D+02

 Leave Link  801 at Mon Mar 21 20:14:29 2022, MaxMem=  8589934592 cpu:               0.5 elap:               0.1
 (Enter /home/sabyasachi/g16/l914.exe)
 RHF ground state
 Keep J ints in memory in symmetry-blocked form, NReq=409355741.
 FoFCou: FMM=F IPFlag=           0 FMFlag=           0 FMFlg1=           0
         NFxFlg=           0 DoJE=F BraDBF=F KetDBF=F FulRan=T
         wScrn=  0.000000 ICntrl=       600 IOpCl=  0 I1Cent=           0 NGrid=           0
         NMat0=    1 NMatS0=   3570 NMatT0=    0 NMatD0=    1 NMtDS0=    0 NMtDT0=    0
 Petite list used in FoFCou.
 MDV=  8589934592 DFT=T DoStab=F Mixed=F DoRPA=T DoScal=T NonHer=F
 Making orbital integer symmetry assigments:
 Orbital symmetries:
       Occupied  (A1) (A1) (A1) (A1) (A1) (A1) (E) (E) (A1) (E)
                 (E)
       Virtual   (A1) (E) (E) (A1) (E) (E) (A1) (E) (E) (E) (E)
                 (A1) (A1) (E) (E) (A1) (E) (E) (A1) (A2) (E) (E)
                 (A1) (A1) (E) (E) (E) (E) (A1) (E) (E) (E) (E)
                 (A1) (E) (E) (A1) (A1) (E) (E) (A1) (E) (E) (A1)
                 (A1) (E) (E) (A1) (E) (E) (A1) (A2) (E) (E) (E)
                 (E) (E) (E) (A1) (E) (E) (A1) (E) (E) (E) (E)
                 (A1) (E) (E) (A1) (E) (E) (A1)
   584 initial guesses have been made.
 Convergence on wavefunction:    0.001000000000000
 Davidson Disk Diagonalization:  ConvIn= 1.00D-03 SkipCon=T Conv= 1.00D-03.
 Max sub-space:  2336 roots to seek:  1168 dimension of matrix:         1168
 *** WARNING: Number of orthogonal guesses is          584
 Iteration     1 Dimension   584 NMult     0 NNew    584
 CISAX will form   584 AO SS matrices at one time.
 NMat=   584 NSing=   584 JSym2X=-1.
 New state      3 was old state      5
 New state      4 was old state      7
 New state      5 was old state      3
 New state      6 was old state      4
 New state      7 was old state      9
 New state      9 was old state     10
 New state     10 was old state     11
 New state     11 was old state     12
 New state     12 was old state     15
 New state     13 was old state     16
 New state     15 was old state     13
 New state     16 was old state     18
 New state     18 was old state     24
 New state     19 was old state     23
 New state     20 was old state     22
 New state     22 was old state     20
 New state     23 was old state     19
 New state     24 was old state     29
 New state     27 was old state     33
 New state     28 was old state     32
 New state     29 was old state     31
 New state     31 was old state     28
 New state     32 was old state     27
 New state     33 was old state     34
 New state     34 was old state     51
 New state     35 was old state     37
 New state     36 was old state     38
 New state     37 was old state     35
 New state     38 was old state     36
 New state     39 was old state     40
 New state     40 was old state     39
 New state     41 was old state     42
 New state     42 was old state     43
 New state     43 was old state     44
 New state     44 was old state     48
 New state     47 was old state     41
 New state     48 was old state     49
 New state     49 was old state     50
 New state     50 was old state     52
 New state     51 was old state     53
 New state     52 was old state     54
 New state     53 was old state     59
 New state     54 was old state     58
 New state     56 was old state     57
 New state     57 was old state     56
 New state     58 was old state     66
 New state     59 was old state     62
 New state     60 was old state     63
 New state     62 was old state     60
 New state     63 was old state     47
 New state     64 was old state     67
 New state     66 was old state     70
 New state     67 was old state     69
 New state     68 was old state     72
 New state     69 was old state     71
 New state     70 was old state     73
 New state     71 was old state     64
 New state     72 was old state     74
 New state     73 was old state     77
 New state     74 was old state     78
 New state     75 was old state     81
 New state     76 was old state     80
 New state     77 was old state     79
 New state     78 was old state     83
 New state     79 was old state     82
 New state     80 was old state     84
 New state     81 was old state     85
 No map to state     82
 No map to state     83
 New state     84 was old state     86
 New state     85 was old state     90
 New state     86 was old state     89
 New state     88 was old state     68
 New state     89 was old state     91
 New state     90 was old state     95
 New state     91 was old state     88
 New state     93 was old state     94
 New state     94 was old state     76
 New state     95 was old state     97
 New state     97 was old state     99
 New state     99 was old state    100
 New state    100 was old state    101
 New state    101 was old state     93
 New state    102 was old state    103
 New state    103 was old state    102
 New state    104 was old state    105
 New state    105 was old state    104
 New state    106 was old state    107
 New state    107 was old state    106
 New state    108 was old state    110
 New state    110 was old state    114
 New state    111 was old state    113
 New state    113 was old state    111
 New state    114 was old state    108
 New state    115 was old state    116
 New state    116 was old state    115
 New state    117 was old state    119
 New state    118 was old state    120
 New state    119 was old state    121
 New state    120 was old state    117
 New state    121 was old state    118
 New state    122 was old state    123
 New state    123 was old state    124
 New state    124 was old state    122
 New state    125 was old state    127
 New state    126 was old state    129
 New state    127 was old state    130
 New state    128 was old state    125
 New state    129 was old state    131
 New state    130 was old state    132
 New state    131 was old state    134
 New state    132 was old state    133
 New state    133 was old state    135
 New state    134 was old state    136
 New state    135 was old state    141
 New state    136 was old state    143
 New state    137 was old state    140
 New state    138 was old state    145
 New state    139 was old state    142
 New state    140 was old state    137
 New state    141 was old state    139
 New state    142 was old state    146
 New state    143 was old state    144
 New state    144 was old state    148
 New state    145 was old state    150
 New state    146 was old state    147
 No map to state    147
 New state    148 was old state    149
 New state    149 was old state    151
 New state    150 was old state    152
 New state    151 was old state    167
 New state    152 was old state    156
 New state    153 was old state    155
 New state    155 was old state    153
 New state    156 was old state    157
 New state    157 was old state    158
 New state    158 was old state    159
 New state    159 was old state    161
 New state    161 was old state    138
 New state    162 was old state    163
 New state    163 was old state    164
 New state    164 was old state    162
 New state    167 was old state    176
 New state    168 was old state    177
 New state    169 was old state    170
 New state    170 was old state    172
 New state    171 was old state    173
 New state    172 was old state    171
 New state    173 was old state    175
 New state    174 was old state    179
 New state    175 was old state    168
 New state    176 was old state    169
 New state    177 was old state    178
 New state    178 was old state    181
 New state    179 was old state    180
 New state    180 was old state    182
 New state    181 was old state    183
 New state    182 was old state    185
 New state    183 was old state    189
 New state    184 was old state    191
 New state    185 was old state    192
 New state    187 was old state    188
 New state    188 was old state    190
 New state    189 was old state    187
 New state    190 was old state    198
 New state    191 was old state    184
 New state    192 was old state    193
 New state    193 was old state    194
 New state    194 was old state    195
 New state    195 was old state    196
 New state    196 was old state    210
 New state    197 was old state    206
 New state    198 was old state    197
 New state    202 was old state    205
 New state    203 was old state    204
 New state    204 was old state    203
 New state    205 was old state    202
 New state    206 was old state    208
 New state    208 was old state    214
 New state    210 was old state    211
 New state    211 was old state    213
 New state    213 was old state    215
 New state    214 was old state    216
 New state    215 was old state    217
 New state    216 was old state    224
 New state    217 was old state    220
 New state    220 was old state    227
 New state    221 was old state    222
 New state    222 was old state    223
 New state    223 was old state    221
 New state    224 was old state    228
 No map to state    227
 New state    228 was old state    245
 New state    229 was old state    230
 New state    230 was old state    229
 New state    231 was old state    233
 New state    232 was old state    231
 New state    233 was old state    232
 New state    238 was old state    243
 New state    239 was old state    242
 New state    240 was old state    244
 New state    242 was old state    240
 New state    243 was old state    238
 New state    244 was old state    239
 New state    245 was old state    246
 New state    246 was old state    247
 New state    247 was old state    248
 New state    248 was old state    249
 New state    249 was old state    252
 New state    252 was old state    261
 New state    253 was old state    254
 New state    254 was old state    255
 New state    255 was old state    256
 New state    256 was old state    257
 New state    257 was old state    258
 New state    258 was old state    260
 New state    260 was old state    253
 New state    261 was old state    262
 New state    262 was old state    263
 New state    263 was old state    267
 New state    264 was old state    266
 New state    266 was old state    264
 New state    267 was old state    270
 New state    270 was old state    272
 New state    272 was old state    273
 New state    273 was old state    274
 New state    274 was old state    277
 New state    277 was old state    278
 New state    278 was old state    283
 New state    279 was old state    280
 New state    280 was old state    279
 New state    281 was old state    282
 New state    282 was old state    281
 New state    283 was old state    284
 New state    284 was old state    285
 New state    285 was old state    290
 New state    286 was old state    288
 New state    287 was old state    289
 New state    288 was old state    297
 New state    289 was old state    291
 New state    290 was old state    292
 New state    291 was old state    286
 New state    292 was old state    287
 New state    297 was old state    300
 New state    300 was old state    303
 New state    301 was old state    305
 New state    302 was old state    304
 New state    303 was old state    308
 New state    304 was old state    307
 New state    305 was old state    306
 New state    306 was old state    302
 New state    307 was old state    319
 New state    308 was old state    310
 New state    310 was old state    311
 New state    311 was old state    312
 New state    312 was old state    314
 New state    314 was old state    316
 New state    316 was old state    317
 New state    317 was old state    318
 New state    318 was old state    320
 New state    319 was old state    321
 New state    320 was old state    322
 New state    321 was old state    323
 New state    322 was old state    325
 New state    323 was old state    328
 New state    325 was old state    326
 New state    326 was old state    327
 New state    327 was old state    329
 New state    328 was old state    301
 New state    329 was old state    345
 New state    330 was old state    335
 New state    331 was old state    333
 New state    332 was old state    330
 New state    333 was old state    331
 New state    335 was old state    338
 New state    336 was old state    337
 New state    337 was old state    332
 New state    338 was old state    339
 New state    339 was old state    340
 New state    340 was old state    341
 New state    341 was old state    342
 New state    342 was old state    343
 New state    343 was old state    344
 New state    344 was old state    348
 New state    345 was old state    347
 New state    347 was old state    349
 New state    348 was old state    350
 New state    349 was old state    351
 New state    350 was old state    353
 New state    351 was old state    352
 New state    352 was old state    354
 New state    353 was old state    357
 New state    354 was old state    355
 New state    355 was old state    356
 New state    356 was old state    363
 New state    357 was old state    359
 New state    359 was old state    362
 New state    360 was old state    361
 New state    361 was old state    360
 New state    362 was old state    365
 New state    363 was old state    364
 New state    364 was old state    366
 New state    365 was old state    371
 New state    366 was old state    367
 New state    367 was old state    368
 No map to state    368
 New state    371 was old state    372
 New state    372 was old state    374
 New state    374 was old state    375
 New state    375 was old state    377
 New state    377 was old state    379
 New state    379 was old state    380
 New state    380 was old state    381
 New state    381 was old state    382
 New state    382 was old state    395
 New state    383 was old state    384
 New state    384 was old state    385
 New state    385 was old state    383
 New state    388 was old state    390
 New state    389 was old state    392
 New state    390 was old state    391
 New state    391 was old state    389
 New state    392 was old state    388
 New state    395 was old state    398
 New state    396 was old state    400
 New state    397 was old state    402
 New state    398 was old state    401
 New state    399 was old state    396
 New state    400 was old state    397
 New state    401 was old state    403
 New state    402 was old state    404
 New state    403 was old state    405
 New state    404 was old state    406
 New state    405 was old state    407
 New state    406 was old state    408
 New state    407 was old state    412
 New state    408 was old state    414
 New state    409 was old state    424
 New state    411 was old state    409
 New state    412 was old state    416
 New state    413 was old state    415
 New state    414 was old state    399
 New state    415 was old state    418
 New state    416 was old state    417
 New state    417 was old state    419
 New state    418 was old state    411
 New state    419 was old state    413
 New state    420 was old state    421
 New state    421 was old state    422
 New state    422 was old state    423
 New state    423 was old state    420
 No map to state    424
 New state    425 was old state    426
 New state    426 was old state    425
 New state    427 was old state    429
 New state    428 was old state    427
 New state    429 was old state    428
 New state    431 was old state    434
 New state    432 was old state    438
 New state    433 was old state    437
 New state    434 was old state    433
 New state    435 was old state    440
 New state    436 was old state    439
 New state    437 was old state    432
 New state    438 was old state    431
 New state    439 was old state    435
 New state    440 was old state    436
 New state    442 was old state    443
 New state    443 was old state    442
 New state    445 was old state    446
 New state    446 was old state    448
 New state    447 was old state    450
 New state    448 was old state    449
 New state    449 was old state    447
 New state    450 was old state    445
 New state    454 was old state    457
 New state    455 was old state    458
 New state    456 was old state    459
 New state    457 was old state    455
 New state    458 was old state    456
 New state    459 was old state    462
 New state    460 was old state    461
 New state    461 was old state    460
 New state    462 was old state    463
 New state    463 was old state    465
 New state    465 was old state    454
 New state    466 was old state    467
 New state    467 was old state    466
 New state    468 was old state    470
 New state    469 was old state    473
 New state    470 was old state    475
 New state    471 was old state    476
 New state    473 was old state    474
 New state    474 was old state    468
 New state    475 was old state    469
 New state    476 was old state    477
 New state    477 was old state    471
 New state    478 was old state    481
 New state    479 was old state    480
 New state    480 was old state    478
 New state    481 was old state    479
 New state    487 was old state    489
 New state    488 was old state    487
 New state    489 was old state    492
 New state    490 was old state    491
 New state    491 was old state    493
 New state    492 was old state    494
 New state    493 was old state    495
 New state    494 was old state    497
 New state    495 was old state    496
 New state    496 was old state    499
 New state    497 was old state    501
 New state    498 was old state    500
 New state    499 was old state    498
 New state    500 was old state    503
 New state    501 was old state    502
 New state    502 was old state    490
 New state    503 was old state    488
 New state    504 was old state    505
 New state    505 was old state    504
 New state    506 was old state    507
 New state    507 was old state    506
 New state    509 was old state    511
 New state    511 was old state    509
 New state    515 was old state    519
 New state    516 was old state    518
 New state    518 was old state    515
 New state    519 was old state    516
 New state    520 was old state    521
 New state    521 was old state    520
 New state    524 was old state    525
 New state    525 was old state    524
 New state    526 was old state    527
 New state    527 was old state    526
 New state    531 was old state    532
 New state    532 was old state    534
 New state    534 was old state    531
 New state    535 was old state    537
 New state    536 was old state    538
 New state    537 was old state    536
 New state    538 was old state    535
 New state    539 was old state    540
 New state    540 was old state    539
 New state    541 was old state    542
 New state    542 was old state    541
 New state    543 was old state    545
 New state    544 was old state    548
 New state    545 was old state    549
 New state    546 was old state    544
 New state    547 was old state    543
 New state    548 was old state    546
 New state    549 was old state    547
 New state    550 was old state    551
 New state    551 was old state    554
 New state    552 was old state    555
 New state    553 was old state    556
 New state    554 was old state    552
 New state    555 was old state    553
 New state    556 was old state    550
 New state    557 was old state    558
 New state    558 was old state    557
 New state    561 was old state    562
 New state    562 was old state    561
 New state    574 was old state    576
 New state    576 was old state    574
 New state    580 was old state    581
 New state    581 was old state    580
 Excitation Energies [eV] at current iteration:
 Root      1 :     7.811125539970154
 Root      2 :     7.811152951129402
 Root      3 :     7.964495988170942
 Root      4 :     8.042600141356996
 Root      5 :     8.225889928040594
 Root      6 :     8.225893480918776
 Root      7 :     8.898875330311229
 Root      8 :     8.898875354677170
 Root      9 :     9.699596162557876
 Root     10 :     9.699657486250947
 Root     11 :     9.823759462387788
 Root     12 :    10.037115109599620
 Root     13 :    10.260236046283170
 Root     14 :    10.306954657756480
 Root     15 :    10.306960746086780
 Root     16 :    10.651707588254890
 Root     17 :    10.651708818959240
 Root     18 :    11.078637093082170
 Root     19 :    11.097964110213620
 Root     20 :    11.134691244626430
 Root     21 :    11.134705044718220
 Root     22 :    11.208063517472660
 Root     23 :    11.208081316979030
 Root     24 :    11.326473016367430
 Root     25 :    11.345999560184900
 Root     26 :    11.346019514039650
 Root     27 :    11.370876562615530
 Root     28 :    11.370877509036750
 Root     29 :    11.371671242186580
 Root     30 :    11.571948927400490
 Root     31 :    11.571950779116080
 Root     32 :    11.614292381820680
 Root     33 :    12.491684012054290
 Root     34 :    12.670717357088830
 Root     35 :    13.023400780567880
 Root     36 :    13.023422844408910
 Root     37 :    13.113908044032910
 Root     38 :    13.113917085108880
 Root     39 :    13.278076472826750
 Root     40 :    13.278115870006140
 Root     41 :    13.296463507262070
 Root     42 :    13.590481586017550
 Root     43 :    13.590481705062900
 Root     44 :    13.627539749330280
 Root     45 :    13.776455463427270
 Root     46 :    13.776457572648160
 Root     47 :    13.943290299284460
 Root     48 :    13.946999377943430
 Root     49 :    13.947003308171410
 Root     50 :    14.234327248016470
 Root     51 :    14.234368421276230
 Root     52 :    14.273105184360230
 Root     53 :    14.444423300773510
 Root     54 :    14.468368746614320
 Root     55 :    14.501095489033850
 Root     56 :    14.547269224573850
 Root     57 :    14.547270878143150
 Root     58 :    14.852083013710720
 Root     59 :    14.926536414741390
 Root     60 :    14.926540291847290
 Root     61 :    15.085142246780950
 Root     62 :    15.085153793764240
 Root     63 :    15.270452708951790
 Root     64 :    15.397150182302830
 Root     65 :    15.559502403628960
 Root     66 :    15.703624919973020
 Root     67 :    15.703649636398400
 Root     68 :    15.751359365265170
 Root     69 :    15.751368260162570
 Root     70 :    15.898672571081650
 Root     71 :    15.898757157072610
 Root     72 :    16.081791619895390
 Root     73 :    16.081824390084360
 Root     74 :    16.135300011535290
 Root     75 :    16.322003281023770
 Root     76 :    16.322059814625050
 Root     77 :    16.362485636167050
 Root     78 :    16.403444147666630
 Root     79 :    16.403449893333290
 Root     80 :    16.518359994235620
 Root     81 :    16.518362885947430
 Root     82 :    16.539740826166840
 Root     83 :    16.539741338679810
 Root     84 :    16.566268864434550
 Root     85 :    16.656776535241260
 Root     86 :    16.659374414731040
 Root     87 :    16.659391819084400
 Root     88 :    16.736737254504210
 Root     89 :    16.795734411826080
 Root     90 :    16.852539966608380
 Root     91 :    16.870496670564530
 Root     92 :    16.960240515901440
 Root     93 :    16.960245162117740
 Root     94 :    17.014988828658100
 Root     95 :    17.146180713683590
 Root     96 :    17.146181516810890
 Root     97 :    17.260980146184000
 Root     98 :    17.260980247975040
 Root     99 :    17.774592947114730
 Root    100 :    17.774596935482530
 Root    101 :    17.804641742281180
 Root    102 :    17.900877099504550
 Root    103 :    17.900883317939040
 Root    104 :    18.272035974208500
 Root    105 :    18.272052635162310
 Root    106 :    18.564053264424510
 Root    107 :    18.644439537854690
 Root    108 :    18.790428312559240
 Root    109 :    18.790439491754610
 Root    110 :    18.812951315122550
 Root    111 :    18.853390702878790
 Root    112 :    18.960635964506670
 Root    113 :    18.960653222151660
 Root    114 :    19.005820998160200
 Root    115 :    19.221685252837670
 Root    116 :    19.346915333944950
 Root    117 :    19.398026673517350
 Root    118 :    19.398036823554610
 Root    119 :    19.515204862013670
 Root    120 :    19.549922994184710
 Root    121 :    19.549936601419980
 Root    122 :    19.612437136149510
 Root    123 :    19.612443051408540
 Root    124 :    19.621644673152000
 Root    125 :    19.636564010173740
 Root    126 :    19.727038695001680
 Root    127 :    19.727046785986710
 Root    128 :    19.813817416972680
 Root    129 :    19.839779391861800
 Root    130 :    19.839780780807900
 Root    131 :    19.923887447039220
 Root    132 :    19.923896272433670
 Root    133 :    19.946162606212270
 Root    134 :    19.946169674221850
 Root    135 :    20.140342283921990
 Root    136 :    20.140345743045810
 Root    137 :    20.224868425827680
 Root    138 :    20.490180689173760
 Root    139 :    20.561207996140330
 Root    140 :    20.607910632706840
 Root    141 :    20.607930385191310
 Root    142 :    20.663909197751020
 Root    143 :    20.663919459984910
 Root    144 :    20.848587521195410
 Root    145 :    20.874326702628140
 Root    146 :    20.874332263212350
 Root    147 :    20.892455028837000
 Root    148 :    20.892471007306060
 Root    149 :    20.898785592833250
 Root    150 :    21.086943421551210
 Root    151 :    21.432680178060240
 Root    152 :    21.560050183839800
 Root    153 :    21.560052421610700
 Root    154 :    21.602388930472380
 Root    155 :    21.602391825916010
 Root    156 :    21.757212551809410
 Root    157 :    21.757217233493400
 Root    158 :    21.998268048208800
 Root    159 :    22.134266319109400
 Root    160 :    22.134308079085970
 Root    161 :    22.183352738143150
 Root    162 :    22.328630450280690
 Root    163 :    22.328642151170090
 Root    164 :    22.583755175830500
 Root    165 :    22.754512518167700
 Root    166 :    22.754514820042920
 Root    167 :    22.946756286244980
 Root    168 :    22.946762751282940
 Root    169 :    22.995836582248640
 Root    170 :    22.998003322712940
 Root    171 :    22.998150475474710
 Root    172 :    23.046815827226140
 Root    173 :    23.076215187655190
 Root    174 :    23.172101640194370
 Root    175 :    23.298503498231530
 Root    176 :    23.298508170176750
 Root    177 :    23.317444840110690
 Root    178 :    23.419642107012280
 Root    179 :    23.419648773912090
 Root    180 :    23.506863412074500
 Root    181 :    23.641954348563900
 Root    182 :    23.784998443671910
 Root    183 :    23.930674386106780
 Root    184 :    23.985669889575790
 Root    185 :    23.985692226927960
 Root    186 :    24.041087868334440
 Root    187 :    24.151589857689600
 Root    188 :    24.151605598312420
 Root    189 :    24.207581066819300
 Root    190 :    24.278658362779090
 Root    191 :    24.278713557754780
 Root    192 :    24.298696112907170
 Root    193 :    24.298707105608680
 Root    194 :    24.408832458150230
 Root    195 :    24.408834169470500
 Root    196 :    24.416565930522240
 Root    197 :    24.693586416268920
 Root    198 :    24.693602716304960
 Root    199 :    25.140990287922410
 Root    200 :    25.239421153185940
 Root    201 :    25.239421725356420
 Root    202 :    25.360447374775770
 Root    203 :    25.360447882842170
 Root    204 :    25.738088323644600
 Root    205 :    26.329570375886030
 Root    206 :    26.368856338563830
 Root    207 :    26.368872699476920
 Root    208 :    26.405193429687670
 Root    209 :    26.405272912429080
 Root    210 :    26.426025783255750
 Root    211 :    26.426087569270870
 Root    212 :    26.436424725945390
 Root    213 :    26.619470003194230
 Root    214 :    26.619471017811990
 Root    215 :    26.863414648161630
 Root    216 :    26.989201661174550
 Root    217 :    27.132428538986120
 Root    218 :    27.237559738301170
 Root    219 :    27.237573478543880
 Root    220 :    27.335793773053550
 Root    221 :    27.359649396034200
 Root    222 :    27.359657909490610
 Root    223 :    27.391406075394280
 Root    224 :    27.619873220713690
 Root    225 :    27.717228087843790
 Root    226 :    27.717228511799400
 Root    227 :    27.767354460082390
 Root    228 :    27.814606992912720
 Root    229 :    27.815365368675460
 Root    230 :    27.815368983868830
 Root    231 :    28.281655492353490
 Root    232 :    28.369690267160540
 Root    233 :    28.369695382346570
 Root    234 :    28.444257932257530
 Root    235 :    28.444259442847000
 Root    236 :    28.805887012560110
 Root    237 :    29.522732435308320
 Root    238 :    29.631134506735040
 Root    239 :    29.631170525670650
 Root    240 :    29.687908385202490
 Root    241 :    29.808520637345780
 Root    242 :    29.808529021360330
 Root    243 :    29.935896548066540
 Root    244 :    29.935914059809080
 Root    245 :    29.974574167371430
 Root    246 :    30.022912737550310
 Root    247 :    30.022936801248590
 Root    248 :    30.148007894406810
 Root    249 :    30.384160622585740
 Root    250 :    30.511943650697360
 Root    251 :    30.511955191315260
 Root    252 :    30.672309365586450
 Root    253 :    30.768856988433680
 Root    254 :    30.877271784659020
 Root    255 :    30.877273663783370
 Root    256 :    31.116930380981510
 Root    257 :    31.116993431941310
 Root    258 :    31.201920707881360
 Root    259 :    31.201936981105140
 Root    260 :    31.329383620074800
 Root    261 :    31.424303702971670
 Root    262 :    31.424322295718140
 Root    263 :    31.558112763347130
 Root    264 :    31.791235374984740
 Root    265 :    31.791244552235280
 Root    266 :    31.822051714298530
 Root    267 :    32.044033873060670
 Root    268 :    32.044070568763840
 Root    269 :    32.110529385067790
 Root    270 :    32.384360422156160
 Root    271 :    32.384360559920520
 Root    272 :    32.434757434876200
 Root    273 :    32.723699886279910
 Root    274 :    33.038216683332490
 Root    275 :    33.146594429892540
 Root    276 :    33.146615421059310
 Root    277 :    33.211710125644490
 Root    278 :    33.801526819797670
 Root    279 :    33.935677012978740
 Root    280 :    33.935677584726010
 Root    281 :    33.984241337934320
 Root    282 :    33.984247120054360
 Root    283 :    34.268072680517540
 Root    284 :    34.268077910679900
 Root    285 :    34.268933757210470
 Root    286 :    34.326583713799830
 Root    287 :    34.326594059325690
 Root    288 :    34.365787508118340
 Root    289 :    34.599011425737790
 Root    290 :    34.599038912997840
 Root    291 :    34.720747918596610
 Root    292 :    34.720767572357900
 Root    293 :    34.924386520986880
 Root    294 :    34.924389384783520
 Root    295 :    35.000499779343630
 Root    296 :    35.000504281497930
 Root    297 :    35.451634159972230
 Root    298 :    35.451687390415800
 Root    299 :    35.459482395796620
 Root    300 :    35.506227009926380
 Root    301 :    35.585920331981490
 Root    302 :    35.585940006921150
 Root    303 :    35.622286565600980
 Root    304 :    35.746076010106260
 Root    305 :    35.746076119976020
 Root    306 :    35.748418911694980
 Root    307 :    36.369534950488600
 Root    308 :    36.629015781657790
 Root    309 :    36.629016740070380
 Root    310 :    37.170672303333310
 Root    311 :    37.362612841115590
 Root    312 :    37.362736456006140
 Root    313 :    37.362747446250290
 Root    314 :    37.380901090205090
 Root    315 :    37.380902843632190
 Root    316 :    37.659619264531680
 Root    317 :    37.659621294378270
 Root    318 :    37.834326810984810
 Root    319 :    37.834332472146440
 Root    320 :    38.099803485530410
 Root    321 :    38.099812132410090
 Root    322 :    38.392549845085700
 Root    323 :    38.845204734143840
 Root    324 :    38.931805941578960
 Root    325 :    39.055445158321920
 Root    326 :    39.264121103426700
 Root    327 :    39.264128388608550
 Root    328 :    39.517267206382680
 Root    329 :    40.075094108635020
 Root    330 :    40.240087921257750
 Root    331 :    40.240094493396730
 Root    332 :    40.425977315813990
 Root    333 :    40.425983131732930
 Root    334 :    40.517985681057470
 Root    335 :    40.730908713002020
 Root    336 :    40.730909458902510
 Root    337 :    40.734824865288390
 Root    338 :    40.814304107695340
 Root    339 :    40.814323448721380
 Root    340 :    40.939775501317380
 Root    341 :    40.939797419275380
 Root    342 :    41.212573313780180
 Root    343 :    41.212573342579950
 Root    344 :    42.034961973751250
 Root    345 :    42.034994513203020
 Root    346 :    42.045899742556930
 Root    347 :    42.244796675449460
 Root    348 :    42.382444161540040
 Root    349 :    42.614345992858830
 Root    350 :    43.336892955516820
 Root    351 :    43.336893550972430
 Root    352 :    43.431515574889030
 Root    353 :    43.861897049109470
 Root    354 :    43.861901985929090
 Root    355 :    43.874358912858540
 Root    356 :    43.979533197617560
 Root    357 :    44.000999531800960
 Root    358 :    44.001001985045460
 Root    359 :    44.406565501544040
 Root    360 :    45.094459992063400
 Root    361 :    45.094460112902480
 Root    362 :    45.402084831922710
 Root    363 :    45.402085526931970
 Root    364 :    45.442412423752890
 Root    365 :    45.993818889525900
 Root    366 :    46.399466244932460
 Root    367 :    46.399467733969520
 Root    368 :    46.862854089816680
 Root    369 :    46.873295268783300
 Root    370 :    46.873295715295220
 Root    371 :    47.296760316734490
 Root    372 :    47.314477871959750
 Root    373 :    47.396026387284440
 Root    374 :    47.396029491123100
 Root    375 :    47.632488320663700
 Root    376 :    47.632488325840140
 Root    377 :    47.939166756515280
 Root    378 :    48.320182736989270
 Root    379 :    48.634668861159070
 Root    380 :    49.136913332401090
 Root    381 :    49.137313131881500
 Root    382 :    49.347212701534270
 Root    383 :    49.766345093560680
 Root    384 :    49.766353382016750
 Root    385 :    49.841303130181560
 Root    386 :    50.589327257199480
 Root    387 :    50.589327597975720
 Root    388 :    50.708670552749250
 Root    389 :    50.804626352018770
 Root    390 :    51.136930733708280
 Root    391 :    51.136949462822760
 Root    392 :    51.584055942676940
 Root    393 :    51.635387151801670
 Root    394 :    51.635393278601930
 Root    395 :    52.317633252937280
 Root    396 :    52.397975157748420
 Root    397 :    52.397980313919920
 Root    398 :    52.428022532516240
 Root    399 :    52.449963652328580
 Root    400 :    52.449965620906230
 Root    401 :    52.576156982444220
 Root    402 :    52.576186433172130
 Root    403 :    52.992174469792870
 Root    404 :    52.992176017949910
 Root    405 :    53.200804793735160
 Root    406 :    53.319727499135640
 Root    407 :    53.815651359568510
 Root    408 :    53.815880503671970
 Root    409 :    53.992926494626920
 Root    410 :    54.296082546130130
 Root    411 :    54.296093203513680
 Root    412 :    54.438551275297700
 Root    413 :    54.438551745410760
 Root    414 :    54.504326424251650
 Root    415 :    54.884668129860160
 Root    416 :    54.884672525461060
 Root    417 :    55.142368843538270
 Root    418 :    55.554008999842800
 Root    419 :    55.554017518933480
 Root    420 :    55.764989524536500
 Root    421 :    55.863064208608710
 Root    422 :    55.863072302815260
 Root    423 :    56.335866559477180
 Root    424 :    56.659024474963790
 Root    425 :    57.190249261653490
 Root    426 :    57.190249370331270
 Root    427 :    57.414628675333600
 Root    428 :    57.424173803444400
 Root    429 :    58.214252298803660
 Root    430 :    58.214258451644110
 Root    431 :    58.670245057853040
 Root    432 :    58.758915039946240
 Root    433 :    58.758918272008220
 Root    434 :    58.819650806312860
 Root    435 :    58.883225020627300
 Root    436 :    58.883236532826960
 Root    437 :    58.986846093950810
 Root    438 :    58.986867661501380
 Root    439 :    59.608627783154400
 Root    440 :    59.608632487860060
 Root    441 :    60.459465581748210
 Root    442 :    61.639449801299510
 Root    443 :    61.639451419047160
 Root    444 :    61.718760446200900
 Root    445 :    61.995167022706230
 Root    446 :    61.995185163486530
 Root    447 :    62.185680319723860
 Root    448 :    62.185682882700170
 Root    449 :    62.186726094357090
 Root    450 :    62.236807605061100
 Root    451 :    62.495508385479720
 Root    452 :    63.327245724632310
 Root    453 :    63.327247331899660
 Root    454 :    63.801742500800950
 Root    455 :    63.801745075316160
 Root    456 :    63.825755760275090
 Root    457 :    64.029247613650480
 Root    458 :    64.029249296743760
 Root    459 :    64.583625439304680
 Root    460 :    64.583625604340010
 Root    461 :    64.756182397641610
 Root    462 :    64.781149979603230
 Root    463 :    65.284611689232960
 Root    464 :    65.284616953299800
 Root    465 :    65.427888307050750
 Root    466 :    65.592356584561600
 Root    467 :    65.592386720138660
 Root    468 :    66.929794133536230
 Root    469 :    67.057727261071490
 Root    470 :    67.297369186410900
 Root    471 :    67.297370437422880
 Root    472 :    67.377587226089430
 Root    473 :    67.377588441455200
 Root    474 :    67.443322967352070
 Root    475 :    67.443323194805930
 Root    476 :    67.627431271665440
 Root    477 :    67.821579004527110
 Root    478 :    68.591833370429280
 Root    479 :    68.591834076144790
 Root    480 :    68.777602120098590
 Root    481 :    68.777602442847540
 Root    482 :    69.839010872027690
 Root    483 :    69.839014019344460
 Root    484 :    70.681774853318520
 Root    485 :    70.681783784250370
 Root    486 :    72.226051469365360
 Root    487 :    72.240869194509400
 Root    488 :    72.278505134672600
 Root    489 :    72.934099544720710
 Root    490 :    72.934099687236040
 Root    491 :    73.002185450737640
 Root    492 :    73.002185700342340
 Root    493 :    73.488103120629390
 Root    494 :    73.609178458610710
 Root    495 :    73.609179591084500
 Root    496 :    73.857225716988010
 Root    497 :    74.148077864576850
 Root    498 :    74.148080897139140
 Root    499 :    74.304791912704360
 Root    500 :    75.054506928573930
 Root    501 :    75.054510578105730
 Root    502 :    75.375810348152310
 Root    503 :    75.375811636042300
 Root    504 :    75.923769335582460
 Root    505 :    75.984350445579690
 Root    506 :    76.474431067990540
 Root    507 :    76.474441524622900
 Root    508 :    76.581548905731140
 Root    509 :    77.047467487826110
 Root    510 :    77.240949536251350
 Root    511 :    77.240949819484440
 Root    512 :    77.377730514540370
 Root    513 :    77.421195076314180
 Root    514 :    77.421199064311640
 Root    515 :    78.536213837714360
 Root    516 :    78.536215153872320
 Root    517 :    78.620408690638630
 Root    518 :    78.835727807318610
 Root    519 :    78.835727944385450
 Root    520 :    79.580212823322670
 Root    521 :    79.580216874143010
 Root    522 :    79.984166524851190
 Root    523 :    81.708711874942850
 Root    524 :    82.876258351005150
 Root    525 :    82.876262499980260
 Root    526 :    83.795526823054570
 Root    527 :    83.795527851628520
 Root    528 :    84.353868234848260
 Root    529 :    85.081449940212510
 Root    530 :    85.081457795577080
 Root    531 :    86.771261828759490
 Root    532 :    86.771264823576300
 Root    533 :    86.816056275024180
 Root    534 :    86.994314635157270
 Root    535 :    87.247673496735560
 Root    536 :    87.247673518747620
 Root    537 :    87.335317630241970
 Root    538 :    87.335317767167990
 Root    539 :    88.425268449533180
 Root    540 :    88.425268966128930
 Root    541 :    89.689810204003810
 Root    542 :    89.689821526682660
 Root    543 :    89.979469996129150
 Root    544 :    90.042277791348940
 Root    545 :    90.042286692427610
 Root    546 :    90.113828097501550
 Root    547 :    90.174115703424350
 Root    548 :    90.307652070623020
 Root    549 :    90.307674145036190
 Root    550 :    90.336256481580750
 Root    551 :    91.117354893186440
 Root    552 :    91.273543171668900
 Root    553 :    91.273550035259180
 Root    554 :    91.378282429862150
 Root    555 :    91.378282789227110
 Root    556 :    91.644899892771120
 Root    557 :    93.013205671264980
 Root    558 :    93.013221008448440
 Root    559 :    93.522671674295340
 Root    560 :    93.522678669365220
 Root    561 :    93.665759227043950
 Root    562 :    93.769384617936410
 Root    563 :    93.984566234108870
 Root    564 :    94.670590679723180
 Root    565 :    94.949433542331450
 Root    566 :    94.949436166029840
 Root    567 :    97.915483246635760
 Root    568 :    97.915492817292640
 Root    569 :   100.938436959266300
 Root    570 :   101.112278077002200
 Root    571 :   101.112278536383100
 Root    572 :   101.406036209495700
 Root    573 :   101.406041672591500
 Root    574 :   104.606992469533600
 Root    575 :   104.607001050771200
 Root    576 :   104.649140157215300
 Root    577 :   104.886769328473900
 Root    578 :   104.886786932511600
 Root    579 :   106.270404746173600
 Root    580 :   108.251573504936600
 Root    581 :   108.251574904254900
 Root    582 :   109.623559195549800
 Root    583 :   116.128391135771000
 Root    584 :   119.751290356732300
 Convergence achieved for final wavefunctions.
 ***********************************************************************
 Excited states from <AA,BB:AA,BB> singles matrix:
 ***********************************************************************
 
 1PDM for each excited state written to RWF  633
 Ground to excited state transition densities written to RWF  633
 Ground to excited state transition electric dipole moments (Au):
       state          X           Y           Z        Dip. S.      Osc.
         1        -0.0000      0.0243      0.0000      0.0006      0.0001
         2         0.0242      0.0000      0.0000      0.0006      0.0001
         3        -0.0000     -0.0000     -0.0000      0.0000      0.0000
         4         0.0000     -0.0000     -0.2223      0.0494      0.0097
         5        -0.0000      0.1185     -0.0000      0.0140      0.0028
         6        -0.1185      0.0000      0.0000      0.0140      0.0028
         7         0.2376      0.0000     -0.0000      0.0565      0.0123
         8         0.0000      0.2376     -0.0000      0.0565      0.0123
         9        -0.0000      0.4199      0.0002      0.1763      0.0419
        10         0.4199      0.0000     -0.0000      0.1763      0.0419
        11        -0.0000      0.0001     -1.0000      1.0000      0.2407
        12        -0.0000     -0.0000      0.4269      0.1822      0.0448
        13         0.0000      0.0000     -0.0000      0.0000      0.0000
        14        -0.0000      0.1217      0.0000      0.0148      0.0037
        15         0.1217     -0.0000      0.0000      0.0148      0.0037
        16         0.0000      0.1457      0.0000      0.0212      0.0055
        17         0.1457      0.0000     -0.0000      0.0212      0.0055
        18         0.0000      0.0000     -0.0000      0.0000      0.0000
        19         0.0000     -0.0000     -0.0496      0.0025      0.0007
        20        -0.0000     -0.0229     -0.0001      0.0005      0.0001
        21        -0.0230      0.0000      0.0000      0.0005      0.0001
        22         0.0511     -0.0000     -0.0000      0.0026      0.0007
        23         0.0000      0.0511      0.0000      0.0026      0.0007
        24        -0.0000      0.0000     -0.0000      0.0000      0.0000
        25         0.0000     -0.6032      0.0001      0.3639      0.1012
        26        -0.6031      0.0000      0.0000      0.3638      0.1011
        27         0.0000     -0.3428      0.0006      0.1175      0.0327
        28        -0.3429     -0.0000      0.0000      0.1176      0.0328
        29        -0.0000     -0.0009     -0.2725      0.0743      0.0207
        30        -0.0000     -0.3579     -0.0001      0.1281      0.0363
        31        -0.3579      0.0000      0.0000      0.1281      0.0363
        32         0.0000     -0.0000      1.6896      2.8547      0.8123
        33         0.0000     -0.0000     -0.5270      0.2777      0.0850
        34         0.0000     -0.0000      0.7533      0.5674      0.1761
        35         0.0000      0.1491     -0.0000      0.0222      0.0071
        36         0.1492     -0.0000     -0.0000      0.0223      0.0071
        37         0.0000     -0.2465      0.0000      0.0607      0.0195
        38        -0.2464      0.0000      0.0000      0.0607      0.0195
        39        -0.0000      0.0943      0.0000      0.0089      0.0029
        40         0.0943      0.0000      0.0000      0.0089      0.0029
        41        -0.0000     -0.0000      0.0000      0.0000      0.0000
        42         0.3061     -0.0000      0.0000      0.0937      0.0312
        43        -0.0000     -0.3061      0.0000      0.0937      0.0312
        44         0.0000      0.0000     -0.0000      0.0000      0.0000
        45         0.4478      0.0000      0.0000      0.2005      0.0677
        46         0.0000      0.4478      0.0000      0.2005      0.0677
        47        -0.0000      0.0003      0.2636      0.0695      0.0237
        48         0.0000     -0.1400      0.0006      0.0196      0.0067
        49        -0.1400      0.0000     -0.0000      0.0196      0.0067
        50         0.0000      0.0456      0.0000      0.0021      0.0007
        51         0.0457     -0.0000      0.0000      0.0021      0.0007
        52         0.0000     -0.0000     -0.0778      0.0061      0.0021
        53         0.0000      0.0000     -0.4796      0.2300      0.0814
        54        -0.0000      0.0000      0.0000      0.0000      0.0000
        55         0.0000     -0.0000      0.8085      0.6538      0.2323
        56         0.1677     -0.0000     -0.0000      0.0281      0.0100
        57         0.0000      0.1678      0.0001      0.0281      0.0100
        58        -0.0000     -0.0000      0.0993      0.0099      0.0036
        59         0.4064     -0.0000     -0.0000      0.1652      0.0604
        60         0.0000      0.4064      0.0000      0.1651      0.0604
        61        -0.5586      0.0000      0.0000      0.3120      0.1153
        62        -0.0000     -0.5586     -0.0000      0.3120      0.1153
        63         0.0000      0.0000      0.0935      0.0087      0.0033
        64         0.0001     -0.0000      0.0000      0.0000      0.0000
        65         0.0000     -0.0002     -0.0084      0.0001      0.0000
        66        -0.0000     -0.1382     -0.0000      0.0191      0.0073
        67        -0.1379     -0.0000     -0.0000      0.0190      0.0073
        68        -0.0000     -0.3264     -0.0000      0.1065      0.0411
        69         0.3263      0.0000     -0.0000      0.1065      0.0411
        70        -0.0000     -0.7009     -0.0000      0.4913      0.1914
        71        -0.7009      0.0000      0.0000      0.4913      0.1914
        72         0.3703     -0.0000      0.0000      0.1371      0.0540
        73        -0.0000      0.3705     -0.0000      0.1372      0.0541
        74         0.0001      0.0000      0.0000      0.0000      0.0000
        75        -0.6152      0.0000      0.0000      0.3785      0.1513
        76        -0.0000     -0.6150      0.0001      0.3782      0.1512
        77         0.0000     -0.0002     -0.4822      0.2325      0.0932
        78         0.0000      0.3717      0.0000      0.1382      0.0555
        79         0.3717      0.0000      0.0000      0.1381      0.0555
        80        -0.1837     -0.0000      0.0000      0.0337      0.0137
        81         0.0000      0.1838     -0.0000      0.0338      0.0137
        82         0.0000      0.2003      0.0000      0.0401      0.0163
        83        -0.2004      0.0000      0.0000      0.0402      0.0163
        84         0.0000     -0.0000      0.3981      0.1585      0.0643
        85         0.0001     -0.0000      0.0000      0.0000      0.0000
        86         0.0000     -0.0980     -0.0001      0.0096      0.0039
        87        -0.0980      0.0000      0.0000      0.0096      0.0039
        88        -0.0000     -0.0000     -0.6328      0.4004      0.1642
        89        -0.0000     -0.0000      0.0000      0.0000      0.0000
        90        -0.0000     -0.0000      0.0000      0.0000      0.0000
        91         0.0000     -0.0000      0.5763      0.3321      0.1373
        92        -0.4153      0.0000      0.0000      0.1725      0.0717
        93         0.0000     -0.4153     -0.0002      0.1725      0.0717
        94        -0.0000      0.0002     -0.2432      0.0592      0.0247
        95        -0.0000      0.5151     -0.0000      0.2654      0.1115
        96        -0.5152      0.0000      0.0000      0.2654      0.1115
        97         0.0876      0.0000      0.0000      0.0077      0.0032
        98        -0.0000      0.0876     -0.0000      0.0077      0.0032
        99         0.0000      0.7020      0.0001      0.4928      0.2146
       100         0.7020      0.0000      0.0000      0.4928      0.2146
       101        -0.0000     -0.0006      0.0006      0.0000      0.0000
       102        -0.0000     -0.1183     -0.0000      0.0140      0.0061
       103         0.1183      0.0000      0.0000      0.0140      0.0061
       104         0.2868      0.0000      0.0000      0.0822      0.0368
       105         0.0000      0.2868      0.0000      0.0822      0.0368
       106        -0.0000      0.0000      0.2435      0.0593      0.0270
       107        -0.0000      0.0000      0.3277      0.1074      0.0490
       108         0.4365      0.0000     -0.0000      0.1905      0.0877
       109        -0.0000      0.4365      0.0000      0.1905      0.0877
       110         0.0007     -0.0000      0.0000      0.0000      0.0000
       111         0.0000     -0.0001     -0.0633      0.0040      0.0018
       112        -0.0000      0.0387     -0.0000      0.0015      0.0007
       113         0.0387      0.0000      0.0000      0.0015      0.0007
       114         0.0000      0.0000      0.3563      0.1270      0.0591
       115         0.0000      0.0000      0.5491      0.3015      0.1420
       116        -0.0000      0.0000     -0.5326      0.2837      0.1345
       117        -0.0000      0.1310     -0.0000      0.0172      0.0082
       118         0.1310      0.0000      0.0000      0.0172      0.0082
       119        -0.0000      0.0000      0.0000      0.0000      0.0000
       120        -0.0000      0.1439     -0.0000      0.0207      0.0099
       121         0.1439      0.0000      0.0000      0.0207      0.0099
       122         0.0000     -0.0946      0.0002      0.0090      0.0043
       123        -0.0946     -0.0000      0.0000      0.0090      0.0043
       124        -0.0000     -0.0001     -0.2284      0.0522      0.0251
       125        -0.0000      0.0000      0.0000      0.0000      0.0000
       126         0.0000      0.0429      0.0000      0.0018      0.0009
       127         0.0429      0.0000      0.0000      0.0018      0.0009
       128         0.0000      0.0000      0.4467      0.1995      0.0969
       129         0.4072      0.0000      0.0000      0.1658      0.0806
       130         0.0000     -0.4072      0.0001      0.1658      0.0806
       131         0.1152      0.0000      0.0000      0.0133      0.0065
       132        -0.0000     -0.1152      0.0000      0.0133      0.0065
       133        -0.3623      0.0000      0.0000      0.1312      0.0641
       134         0.0000      0.3624     -0.0000      0.1313      0.0642
       135        -0.0000     -0.1906      0.0000      0.0363      0.0179
       136         0.1906     -0.0000     -0.0000      0.0363      0.0179
       137        -0.0000      0.0000      0.0000      0.0000      0.0000
       138        -0.0000     -0.0000     -0.0187      0.0004      0.0002
       139        -0.0002      0.0000     -0.0000      0.0000      0.0000
       140         0.5845     -0.0000     -0.0000      0.3416      0.1725
       141        -0.0000     -0.5845      0.0000      0.3416      0.1725
       142        -0.1804      0.0000      0.0000      0.0326      0.0165
       143        -0.0000     -0.1807      0.0000      0.0326      0.0165
       144         0.0000      0.0000     -0.3374      0.1139      0.0582
       145        -0.4157      0.0000      0.0000      0.1728      0.0884
       146        -0.0000      0.4157      0.0000      0.1728      0.0884
       147         0.0715     -0.0000     -0.0000      0.0051      0.0026
       148        -0.0000      0.0716      0.0001      0.0051      0.0026
       149         0.0000     -0.0000     -0.1287      0.0166      0.0085
       150         0.0000      0.0000      0.0000      0.0000      0.0000
       151         0.0000      0.0000     -0.2167      0.0469      0.0247
       152        -0.0000      0.2709     -0.0000      0.0734      0.0388
       153        -0.2709      0.0000     -0.0000      0.0734      0.0388
       154         0.0000     -0.2520     -0.0000      0.0635      0.0336
       155        -0.2520      0.0000     -0.0000      0.0635      0.0336
       156         0.0000      0.0871     -0.0000      0.0076      0.0040
       157         0.0871      0.0000      0.0000      0.0076      0.0040
       158        -0.0000     -0.0000      0.1742      0.0303      0.0164
       159        -0.0497      0.0000     -0.0000      0.0025      0.0013
       160         0.0000     -0.0497     -0.0000      0.0025      0.0013
       161         0.0000     -0.0000     -0.0538      0.0029      0.0016
       162        -0.1219     -0.0000      0.0000      0.0149      0.0081
       163        -0.0000     -0.1219     -0.0000      0.0149      0.0081
       164        -0.0000     -0.0000      0.0497      0.0025      0.0014
       165         0.0000     -0.0920     -0.0000      0.0085      0.0047
       166        -0.0920      0.0000      0.0000      0.0085      0.0047
       167         0.0039     -0.0000      0.0000      0.0000      0.0000
       168         0.0000      0.0038      0.0001      0.0000      0.0000
       169         0.0003      0.0000      0.0000      0.0000      0.0000
       170        -0.0000     -0.0481      0.0000      0.0023      0.0013
       171        -0.0481     -0.0000      0.0000      0.0023      0.0013
       172         0.0000     -0.0000     -0.0411      0.0017      0.0010
       173        -0.0000      0.0000      0.0000      0.0000      0.0000
       174         0.0000      0.0000      0.3681      0.1355      0.0769
       175         0.0000      0.2564     -0.0003      0.0657      0.0375
       176        -0.2564     -0.0000     -0.0000      0.0657      0.0375
       177         0.0000      0.0003      0.3406      0.1160      0.0663
[...]
     10   0.000000D+00  0.000000D+00  0.000000D+00  0.244534D-05  0.000000D+00
     11  -0.316297D+00  0.327989D+00 -0.221673D+00  0.000000D+00 -0.172269D+00
     12   0.316316D+00  0.328077D+00  0.221573D+00  0.000000D+00  0.172304D+00
     13  -0.284833D-04  0.561194D+00 -0.128882D-03  0.000000D+00 -0.408097D-05
     14   0.000000D+00  0.000000D+00  0.000000D+00  0.221620D+00  0.000000D+00
     15   0.000000D+00  0.000000D+00  0.000000D+00 -0.468718D-01  0.000000D+00
     16  -0.110517D+00  0.340222D-04  0.468660D-01  0.000000D+00  0.814792D-01
               516           517           518           519           520 
      1  -0.129718D+03 -0.129715D+03 -0.129707D+03 -0.129707D+03 -0.129680D+03
      2   0.119539D+00  0.000000D+00  0.000000D+00 -0.212424D+00  0.852098D-01
      3   0.000000D+00  0.299604D-05  0.212424D+00  0.000000D+00  0.000000D+00
      4   0.000000D+00  0.778763D-01 -0.468932D-05  0.000000D+00  0.000000D+00
      5  -0.308986D+00  0.000000D+00  0.000000D+00  0.529154D+00 -0.208147D+00
      6   0.000000D+00 -0.101940D-04 -0.529153D+00  0.000000D+00  0.000000D+00
      7   0.000000D+00 -0.192995D+00  0.132396D-04  0.000000D+00  0.000000D+00
      8   0.000000D+00 -0.261685D-04  0.124062D+01  0.000000D+00  0.000000D+00
      9   0.458180D-01  0.000000D+00  0.000000D+00  0.124062D+01 -0.527700D+00
     10   0.290764D-04  0.000000D+00  0.000000D+00  0.124878D-04 -0.215595D-05
     11   0.000000D+00  0.913015D-02  0.130987D-01  0.000000D+00  0.000000D+00
     12   0.000000D+00  0.919950D-02 -0.131015D-01  0.000000D+00  0.000000D+00
     13   0.000000D+00  0.594725D+00 -0.464527D-04  0.000000D+00  0.000000D+00
     14   0.172289D+00  0.000000D+00  0.000000D+00 -0.130999D-01 -0.102153D+00
     15  -0.814851D-01  0.000000D+00  0.000000D+00  0.113817D+01 -0.562923D+00
     16   0.000000D+00  0.190894D-04 -0.113817D+01  0.000000D+00  0.000000D+00
               521           522           523           524           525 
      1  -0.129680D+03 -0.129665D+03 -0.129601D+03 -0.129559D+03 -0.129559D+03
      2   0.000000D+00  0.000000D+00  0.000000D+00 -0.689993D-01  0.000000D+00
      3   0.852096D-01 -0.146555D-05 -0.219670D-05  0.000000D+00 -0.689981D-01
      4  -0.172986D-05  0.362259D-01 -0.496365D-01  0.000000D+00  0.000000D+00
      5   0.000000D+00  0.000000D+00  0.000000D+00  0.130471D+00  0.000000D+00
      6  -0.208147D+00  0.463919D-05  0.762285D-05  0.000000D+00  0.130468D+00
      7   0.543229D-05 -0.101932D+00  0.148410D+00  0.000000D+00 -0.159374D-05
      8   0.527689D+00  0.520254D-05  0.837362D-05  0.000000D+00  0.872643D-01
      9   0.000000D+00  0.000000D+00  0.000000D+00 -0.872675D-01  0.000000D+00
     10   0.000000D+00  0.000000D+00  0.000000D+00 -0.122681D-04  0.000000D+00
     11  -0.102155D+00  0.243773D-01 -0.960419D-01  0.000000D+00 -0.250378D-01
     12   0.102149D+00  0.243719D-01 -0.960764D-01  0.000000D+00  0.250423D-01
     13  -0.146204D-04 -0.467749D+00  0.114137D+01  0.000000D+00 -0.290822D-05
     14   0.000000D+00  0.000000D+00  0.000000D+00 -0.250415D-01  0.000000D+00
     15   0.000000D+00  0.000000D+00  0.000000D+00 -0.185171D+00  0.000000D+00
     16  -0.562911D+00  0.000000D+00 -0.800192D-05  0.000000D+00 -0.185164D+00
               526           527           528           529           530 
      1  -0.129525D+03 -0.129525D+03 -0.129504D+03 -0.129478D+03 -0.129478D+03
      2  -0.170946D-02  0.000000D+00  0.000000D+00  0.176898D-01  0.000000D+00
      3   0.000000D+00 -0.170975D-02  0.491110D-05  0.000000D+00 -0.176903D-01
      4   0.000000D+00  0.000000D+00  0.580325D-01  0.000000D+00  0.000000D+00
      5   0.184967D-02  0.000000D+00  0.000000D+00 -0.359951D-01  0.000000D+00
      6   0.000000D+00  0.185040D-02 -0.169266D-04  0.000000D+00  0.359965D-01
      7   0.000000D+00 -0.146559D-05 -0.191943D+00  0.000000D+00 -0.135417D-05
      8   0.000000D+00  0.103122D+00 -0.222201D-04  0.000000D+00  0.335127D+00
      9  -0.103123D+00  0.000000D+00  0.000000D+00  0.335122D+00  0.000000D+00
     10  -0.104429D-05  0.000000D+00  0.000000D+00  0.163164D-05  0.000000D+00
     11   0.000000D+00 -0.168245D+00 -0.673194D-01  0.000000D+00  0.204213D+00
     12   0.000000D+00  0.168263D+00 -0.672691D-01  0.000000D+00 -0.204204D+00
     13   0.000000D+00 -0.821068D-05  0.612440D+00  0.000000D+00 -0.564498D-05
     14  -0.168253D+00  0.000000D+00  0.000000D+00 -0.204211D+00  0.000000D+00
     15  -0.167967D+00  0.000000D+00  0.000000D+00  0.481102D+00  0.000000D+00
     16   0.000000D+00 -0.167964D+00  0.134032D-04  0.000000D+00 -0.481104D+00
               531           532           533           534           535 
      1  -0.129415D+03 -0.129415D+03 -0.129414D+03 -0.129407D+03 -0.129398D+03
      2  -0.554979D-01  0.000000D+00  0.222678D-05  0.000000D+00  0.000000D+00
      3   0.000000D+00  0.555023D-01  0.000000D+00  0.000000D+00  0.458146D-01
      4   0.000000D+00  0.000000D+00  0.000000D+00 -0.105474D+00  0.000000D+00
      5   0.153136D+00  0.000000D+00 -0.610825D-05  0.000000D+00  0.000000D+00
      6   0.000000D+00 -0.153152D+00  0.000000D+00  0.000000D+00 -0.139234D+00
      7   0.000000D+00 -0.155073D-05  0.000000D+00  0.316134D+00  0.785579D-05
      8   0.000000D+00 -0.260683D+00  0.000000D+00 -0.106991D-05  0.683183D+00
      9  -0.260664D+00  0.000000D+00  0.116155D-04  0.000000D+00  0.000000D+00
     10   0.000000D+00  0.000000D+00 -0.279565D-03  0.000000D+00  0.000000D+00
     11   0.000000D+00  0.730980D-01  0.000000D+00 -0.433100D-02 -0.455047D-01
     12   0.000000D+00 -0.731016D-01  0.000000D+00 -0.433108D-02  0.454514D-01
     13   0.000000D+00  0.000000D+00  0.000000D+00  0.664914D+00  0.101858D-04
     14  -0.731251D-01  0.000000D+00  0.321644D-05  0.000000D+00  0.000000D+00
     15  -0.231817D+00  0.000000D+00  0.120372D-04  0.000000D+00  0.000000D+00
     16   0.000000D+00  0.231826D+00  0.000000D+00 -0.469650D-05 -0.966460D+00
               536           537           538           539           540 
      1  -0.129398D+03 -0.129395D+03 -0.129395D+03 -0.129355D+03 -0.129355D+03
      2  -0.458145D-01 -0.324947D-01  0.000000D+00  0.000000D+00  0.879412D-01
      3   0.000000D+00  0.000000D+00 -0.324946D-01 -0.879407D-01  0.000000D+00
      4   0.000000D+00  0.000000D+00  0.000000D+00  0.105110D-05  0.000000D+00
      5   0.139233D+00  0.835994D-01  0.000000D+00  0.000000D+00 -0.244261D+00
      6   0.000000D+00  0.000000D+00  0.835990D-01  0.244259D+00  0.000000D+00
      7   0.000000D+00  0.000000D+00  0.488241D-05  0.000000D+00  0.000000D+00
      8   0.000000D+00  0.000000D+00  0.239503D-01 -0.405133D+00  0.000000D+00
      9   0.683184D+00 -0.239515D-01  0.000000D+00  0.000000D+00 -0.405135D+00
     10   0.250643D-05  0.000000D+00  0.000000D+00  0.000000D+00  0.000000D+00
     11   0.000000D+00  0.000000D+00  0.416823D+00 -0.102966D+00  0.000000D+00
     12   0.000000D+00  0.000000D+00 -0.416887D+00  0.102937D+00  0.000000D+00
     13   0.000000D+00  0.000000D+00  0.270199D-04  0.214396D-04  0.000000D+00
     14   0.454761D-01  0.416858D+00  0.000000D+00  0.000000D+00  0.102950D+00
     15   0.966462D+00 -0.120688D+00  0.000000D+00  0.000000D+00 -0.406704D+00
     16   0.000000D+00  0.000000D+00 -0.120687D+00  0.406701D+00  0.000000D+00
               541           542           543           544           545 
      1  -0.129308D+03 -0.129308D+03 -0.129298D+03 -0.129295D+03 -0.129295D+03
      2  -0.114667D+00  0.000000D+00 -0.477152D-05 -0.463455D-01  0.000000D+00
      3   0.000000D+00 -0.114669D+00  0.000000D+00  0.000000D+00 -0.463437D-01
      4   0.000000D+00  0.000000D+00  0.000000D+00  0.000000D+00  0.215136D-05
      5   0.298564D+00  0.000000D+00  0.134082D-04  0.134620D+00  0.000000D+00
      6   0.000000D+00  0.298567D+00  0.000000D+00  0.000000D+00  0.134620D+00
      7   0.000000D+00 -0.306121D-05  0.000000D+00  0.000000D+00 -0.775444D-05
      8   0.000000D+00 -0.306411D+00  0.000000D+00  0.000000D+00  0.326661D+00
      9   0.306423D+00  0.000000D+00 -0.209438D-04 -0.326679D+00  0.000000D+00
     10  -0.162335D-05  0.000000D+00 -0.846859D-03  0.000000D+00  0.000000D+00
     11   0.000000D+00 -0.198382D-01  0.000000D+00  0.000000D+00 -0.110193D-02
     12   0.000000D+00  0.198424D-01  0.000000D+00  0.000000D+00  0.109756D-02
     13   0.000000D+00  0.112212D-04  0.000000D+00  0.000000D+00 -0.854730D-04
     14  -0.198323D-01  0.000000D+00 -0.130228D-05 -0.113866D-02  0.000000D+00
     15   0.242092D+00  0.000000D+00 -0.161032D-04 -0.230872D+00  0.000000D+00
     16   0.000000D+00  0.242085D+00  0.000000D+00  0.000000D+00 -0.230841D+00
               546           547           548           549           550 
      1  -0.129293D+03 -0.129290D+03 -0.129285D+03 -0.129285D+03 -0.129284D+03
      2   0.000000D+00  0.000000D+00  0.106871D+00  0.000000D+00  0.143515D-05
      3   0.165561D-05  0.131772D-05  0.000000D+00  0.106870D+00  0.000000D+00
      4  -0.530086D-01  0.661094D-01  0.000000D+00  0.279950D-05  0.000000D+00
      5   0.000000D+00  0.000000D+00 -0.297411D+00  0.000000D+00 -0.401862D-05
      6  -0.649352D-05 -0.625990D-05  0.000000D+00 -0.297409D+00  0.000000D+00
      7   0.106707D+00 -0.209154D+00  0.000000D+00 -0.909279D-05  0.000000D+00
      8  -0.157214D-04 -0.416267D-05  0.000000D+00 -0.728680D+00  0.000000D+00
      9   0.000000D+00  0.000000D+00  0.728667D+00  0.000000D+00  0.668013D-05
     10   0.000000D+00  0.000000D+00  0.000000D+00  0.000000D+00 -0.745218D-02
     11   0.995980D-02  0.241829D-01  0.000000D+00  0.104004D+00  0.000000D+00
     12   0.998433D-02  0.242155D-01  0.000000D+00 -0.104013D+00  0.000000D+00
     13  -0.115424D+01 -0.310737D+00  0.000000D+00 -0.488669D-04  0.000000D+00
     14   0.000000D+00  0.000000D+00  0.103998D+00  0.000000D+00  0.000000D+00
     15   0.000000D+00  0.000000D+00  0.756665D+00  0.000000D+00  0.651306D-05
     16   0.703711D-05 -0.251206D-05  0.000000D+00  0.756671D+00  0.000000D+00
               551           552           553           554           555 
      1  -0.129256D+03 -0.129250D+03 -0.129250D+03 -0.129246D+03 -0.129246D+03
      2   0.000000D+00  0.000000D+00 -0.463439D-03 -0.194864D+00  0.000000D+00
      3   0.000000D+00  0.457338D-03  0.000000D+00  0.000000D+00 -0.194864D+00
      4   0.117708D-01  0.000000D+00  0.000000D+00  0.000000D+00  0.184440D-05
      5   0.000000D+00  0.000000D+00  0.637325D-02  0.561735D+00  0.000000D+00
      6  -0.280805D-05 -0.635572D-02  0.000000D+00  0.000000D+00  0.561736D+00
      7  -0.244709D-01  0.000000D+00  0.000000D+00  0.000000D+00 -0.727832D-05
      8   0.000000D+00  0.317508D+00  0.000000D+00  0.000000D+00 -0.114425D+01
      9   0.000000D+00  0.000000D+00  0.317524D+00  0.114424D+01  0.000000D+00
     10   0.000000D+00  0.000000D+00  0.415213D-05 -0.671226D-05  0.000000D+00
     11   0.161022D+00  0.634470D-01  0.000000D+00  0.000000D+00  0.318072D-01
     12   0.161035D+00 -0.634475D-01  0.000000D+00  0.000000D+00 -0.318049D-01
     13  -0.526854D+00 -0.230022D-04  0.000000D+00  0.000000D+00 -0.542071D-05
     14   0.000000D+00  0.000000D+00 -0.634477D-01  0.318092D-01  0.000000D+00
     15   0.000000D+00  0.000000D+00  0.632535D+00  0.164019D+01  0.000000D+00
     16   0.975445D-05 -0.632506D+00  0.000000D+00  0.000000D+00  0.164020D+01
               556           557           558           559           560 
      1  -0.129236D+03 -0.129186D+03 -0.129186D+03 -0.129167D+03 -0.129167D+03
      2   0.000000D+00  0.988206D-03  0.000000D+00 -0.390579D-01  0.000000D+00
      3   0.739632D-05  0.000000D+00  0.988783D-03  0.000000D+00 -0.390592D-01
      4  -0.150530D+00  0.000000D+00  0.000000D+00  0.000000D+00 -0.234385D-05
      5   0.000000D+00  0.333814D-02  0.000000D+00  0.112651D+00  0.000000D+00
      6  -0.280708D-04  0.000000D+00  0.333652D-02  0.000000D+00  0.112655D+00
      7   0.502847D+00  0.000000D+00 -0.231878D-05  0.000000D+00  0.898968D-05
      8  -0.415631D-04  0.000000D+00  0.354235D+00  0.000000D+00  0.282611D+00
      9   0.000000D+00 -0.354234D+00  0.000000D+00 -0.282598D+00  0.000000D+00
     10   0.000000D+00 -0.319983D-05  0.000000D+00  0.000000D+00  0.000000D+00
     11  -0.302110D-01  0.000000D+00  0.719237D-01  0.000000D+00 -0.501875D-02
     12  -0.301312D-01  0.000000D+00 -0.718950D-01  0.000000D+00  0.501439D-02
     13   0.391915D+01  0.000000D+00 -0.555090D-05  0.000000D+00  0.470301D-05
     14   0.000000D+00  0.719094D-01  0.000000D+00 -0.501743D-02  0.000000D+00
     15   0.000000D+00 -0.497903D+00  0.000000D+00 -0.922488D-01  0.000000D+00
     16   0.249029D-04  0.000000D+00 -0.497908D+00  0.000000D+00 -0.922628D-01
               561           562           563           564           565 
      1  -0.129162D+03 -0.129158D+03 -0.129150D+03 -0.129125D+03 -0.129115D+03
      2   0.000000D+00  0.000000D+00  0.000000D+00  0.000000D+00  0.252897D-01
      3   0.000000D+00  0.166894D-05 -0.275339D-05 -0.586658D-05  0.000000D+00
      4   0.000000D+00 -0.102475D+00 -0.289764D-01  0.105888D+00  0.000000D+00
      5   0.175253D-05  0.000000D+00  0.000000D+00  0.000000D+00 -0.615324D-01
      6   0.000000D+00 -0.533017D-05  0.105403D-04  0.221982D-04  0.000000D+00
      7   0.000000D+00  0.379368D+00  0.897458D-01 -0.349727D+00  0.000000D+00
      8   0.000000D+00 -0.908783D-05  0.143099D-04  0.272282D-04  0.000000D+00
      9  -0.549474D-05  0.000000D+00  0.000000D+00  0.000000D+00 -0.508129D+00
     10   0.146417D-01  0.000000D+00  0.000000D+00  0.000000D+00 -0.194854D-04
     11   0.000000D+00 -0.151732D-01 -0.220853D-01 -0.775412D-01  0.000000D+00
     12   0.000000D+00 -0.151712D-01 -0.221218D-01 -0.776020D-01  0.000000D+00
     13   0.000000D+00  0.252989D+00  0.927216D+00  0.134309D+01  0.000000D+00
     14   0.000000D+00  0.000000D+00  0.000000D+00  0.000000D+00  0.187472D-01
     15  -0.134168D-05  0.000000D+00  0.000000D+00  0.000000D+00 -0.593285D+00
     16   0.000000D+00  0.538828D-05 -0.113675D-04 -0.237351D-04  0.000000D+00
               566           567           568           569           570 
      1  -0.129115D+03 -0.129006D+03 -0.129006D+03 -0.128895D+03 -0.128888D+03
      2   0.000000D+00  0.000000D+00  0.114929D+00  0.000000D+00  0.000000D+00
      3   0.252899D-01 -0.114929D+00  0.000000D+00 -0.265375D-05 -0.361526D-01
      4   0.000000D+00  0.000000D+00  0.000000D+00 -0.642644D-01  0.000000D+00
      5   0.000000D+00  0.000000D+00 -0.322108D+00  0.000000D+00  0.000000D+00
      6  -0.615328D-01  0.322107D+00  0.000000D+00  0.107896D-04  0.112057D+00
      7   0.000000D+00  0.000000D+00  0.000000D+00  0.166084D+00  0.000000D+00
      8   0.508128D+00  0.638468D+00  0.000000D+00  0.141842D-04 -0.437465D-01
      9   0.000000D+00  0.000000D+00  0.638469D+00  0.000000D+00  0.000000D+00
     10   0.000000D+00  0.000000D+00 -0.312988D-05  0.000000D+00  0.000000D+00
     11   0.187585D-01  0.142955D+00  0.000000D+00  0.245248D-01 -0.945081D-03
     12  -0.187376D-01 -0.142984D+00  0.000000D+00  0.244960D-01  0.936783D-03
     13  -0.113120D-05  0.197862D-04  0.000000D+00 -0.349764D+00  0.858224D-05
     14   0.000000D+00  0.000000D+00 -0.142970D+00  0.000000D+00  0.000000D+00
     15   0.000000D+00  0.000000D+00  0.560792D+00  0.000000D+00  0.000000D+00
     16  -0.593285D+00 -0.560792D+00  0.000000D+00 -0.968574D-05  0.129632D+00
               571           572           573           574           575 
      1  -0.128888D+03 -0.128878D+03 -0.128878D+03 -0.128760D+03 -0.128760D+03
      2   0.361529D-01 -0.985704D-02  0.000000D+00  0.000000D+00 -0.692167D-04
      3   0.000000D+00  0.000000D+00 -0.985677D-02 -0.709400D-04  0.000000D+00
      4   0.000000D+00  0.000000D+00  0.000000D+00  0.000000D+00  0.000000D+00
      5  -0.112058D+00  0.425409D-01  0.000000D+00  0.000000D+00 -0.298948D-02
      6   0.000000D+00  0.000000D+00  0.425400D-01 -0.298392D-02  0.000000D+00
      7   0.000000D+00  0.000000D+00  0.000000D+00  0.000000D+00  0.000000D+00
      8   0.000000D+00  0.000000D+00  0.266183D+00 -0.651176D-01  0.000000D+00
      9  -0.437486D-01 -0.266182D+00  0.000000D+00  0.000000D+00  0.650873D-01
     10  -0.130697D-05 -0.424787D-05  0.000000D+00  0.000000D+00  0.123755D-05
     11   0.000000D+00  0.000000D+00  0.973217D-01  0.333153D-03  0.000000D+00
     12   0.000000D+00  0.000000D+00 -0.973197D-01 -0.326253D-03  0.000000D+00
     13   0.000000D+00  0.000000D+00  0.862260D-05 -0.871777D-05  0.000000D+00
     14   0.940868D-03  0.973213D-01  0.000000D+00  0.000000D+00  0.329829D-03
     15  -0.129635D+00 -0.205401D+00  0.000000D+00  0.000000D+00  0.808279D-01
     16   0.000000D+00  0.000000D+00 -0.205401D+00  0.808706D-01  0.000000D+00
               576           577           578           579           580 
      1  -0.128758D+03 -0.128750D+03 -0.128750D+03 -0.128699D+03 -0.128626D+03
      2   0.000000D+00  0.000000D+00 -0.358059D-01  0.000000D+00  0.142859D-01
      3   0.000000D+00 -0.358061D-01  0.000000D+00  0.000000D+00  0.000000D+00
      4   0.290465D-01  0.000000D+00  0.000000D+00 -0.164991D+00  0.000000D+00
      5   0.000000D+00  0.000000D+00  0.113510D+00  0.000000D+00 -0.411841D-01
      6   0.121151D-05  0.113511D+00  0.000000D+00 -0.221667D-05  0.000000D+00
      7  -0.143603D+00 -0.189336D-05  0.000000D+00  0.562853D+00  0.000000D+00
      8   0.245256D-05 -0.660338D+00  0.000000D+00 -0.136908D-05  0.000000D+00
      9   0.000000D+00  0.000000D+00  0.660341D+00  0.000000D+00  0.579068D-01
     10   0.000000D+00  0.000000D+00  0.425581D-05  0.000000D+00  0.000000D+00
     11   0.139386D-01 -0.282115D-01  0.000000D+00 -0.147370D+00  0.000000D+00
     12   0.139400D-01  0.282291D-01  0.000000D+00 -0.147357D+00  0.000000D+00
     13  -0.185049D+01 -0.644250D-05  0.000000D+00  0.358598D+01  0.000000D+00
     14   0.000000D+00  0.000000D+00 -0.282226D-01  0.000000D+00 -0.576271D-01
     15   0.000000D+00  0.000000D+00  0.931678D+00  0.000000D+00  0.844484D-01
     16   0.545034D-05  0.931675D+00  0.000000D+00 -0.156887D-05  0.000000D+00
               581           582           583           584 
      1  -0.128626D+03 -0.128576D+03 -0.128337D+03 -0.128203D+03
      2   0.000000D+00  0.000000D+00  0.000000D+00  0.000000D+00
      3   0.142857D-01  0.000000D+00  0.000000D+00  0.000000D+00
      4   0.000000D+00 -0.623904D-01  0.280543D-01 -0.667463D-01
      5   0.000000D+00  0.000000D+00  0.000000D+00  0.000000D+00
      6  -0.411834D-01 -0.419540D-05  0.000000D+00 -0.358861D-05
      7   0.129496D-05  0.207627D+00 -0.602946D-01  0.267527D+00
      8  -0.579065D-01 -0.417056D-05  0.000000D+00 -0.550711D-05
      9   0.000000D+00  0.000000D+00  0.000000D+00  0.000000D+00
     10   0.000000D+00  0.000000D+00  0.000000D+00  0.000000D+00
     11  -0.576330D-01  0.163494D+00  0.383638D-01  0.538674D-02
     12   0.576209D-01  0.163505D+00  0.383669D-01  0.537917D-02
     13   0.188654D-05 -0.100289D+01  0.434480D+00  0.909657D+00
     14   0.000000D+00  0.000000D+00  0.000000D+00  0.000000D+00
     15   0.000000D+00  0.000000D+00  0.000000D+00  0.000000D+00
     16   0.844490D-01  0.625598D-05  0.116417D-05  0.258200D-05
 Unable to Open any file for archive entry.
 1\1\GINC-HEL23\SP\RPW91PW91 TD-FC\Gen\C2H3N1\SABYASACHI\21-Mar-2022\0\
 \#P TD(Nstates=10000) pw91pw91/Gen SCF(maxcycles=100) Int(Grid=ultrafi
 ne)\\xGDB7_00001_tier4.com\\0,1\C,0,0.,0.,-1.173653\C,0,0.,0.,0.280989
 \N,0,0.,0.,1.427442\H,0,0.,1.024088,-1.545371\H,0,-0.886886,-0.512044,
 -1.545371\H,0,0.886886,-0.512044,-1.545371\\Version=EM64L-G16RevC.01\S
 tate=1-A1\HF=-132.6042176\RMSD=6.745e-10\PG=C03V [C3(C1C1N1),3SGV(H1)]
 \\@
 The archive entry for this job was punched.


 THERE IS NO SCIENCE WITHOUT FANCY, NOR ART WITHOUT FACTS.
     -- VLADIMIR NABAKOV
 Job cpu time:       0 days  0 hours  3 minutes 10.7 seconds.
 Elapsed time:       0 days  0 hours  0 minutes 24.1 seconds.
 File lengths (MBytes):  RWF=    173 Int=      0 D2E=      0 Chk=    101 Scr=      1
 Normal termination of Gaussian 16 at Mon Mar 21 20:14:51 2022.
