 Entering Gaussian System, Link 0=g16
 Input=000018.com
 Output=000018.log
 Initial command:
 /home/sabyasachi/g16/l1.exe "/scratch/sabyasachi/PBS_7976515.helios/Gau-35252.inp" -scrdir="/scratch/sabyasachi/PBS_7976515.helios/"
 Entering Link 1 = /home/sabyasachi/g16/l1.exe PID=     35253.
  
 Copyright (c) 1988-2019, Gaussian, Inc.  All Rights Reserved.
  
 This is part of the Gaussian(R) 16 program.  It is based on
 the Gaussian(R) 09 system (copyright 2009, Gaussian, Inc.),
 the Gaussian(R) 03 system (copyright 2003, Gaussian, Inc.),
 the Gaussian(R) 98 system (copyright 1998, Gaussian, Inc.),
 the Gaussian(R) 94 system (copyright 1995, Gaussian, Inc.),
 the Gaussian 92(TM) system (copyright 1992, Gaussian, Inc.),
 the Gaussian 90(TM) system (copyright 1990, Gaussian, Inc.),
 the Gaussian 88(TM) system (copyright 1988, Gaussian, Inc.),
 the Gaussian 86(TM) system (copyright 1986, Carnegie Mellon
 University), and the Gaussian 82(TM) system (copyright 1983,
 Carnegie Mellon University). Gaussian is a federally registered
 trademark of Gaussian, Inc.
  
 This software contains proprietary and confidential information,
 including trade secrets, belonging to Gaussian, Inc.
  
 This software is provided under written license and may be
 used, copied, transmitted, or stored only in accord with that
 written license.
  
 The following legend is applicable only to US Government
 contracts under FAR:
  
                    RESTRICTED RIGHTS LEGEND
  
 Use, reproduction and disclosure by the US Government is
 subject to restrictions as set forth in subparagraphs (a)
 and (c) of the Commercial Computer Software - Restricted
 Rights clause in FAR 52.227-19.
  
 Gaussian, Inc.
 340 Quinnipiac St., Bldg. 40, Wallingford CT 06492
  
  
 ---------------------------------------------------------------
 Warning -- This program may not be used in any manner that
 competes with the business of Gaussian, Inc. or will provide
 assistance to any competitor of Gaussian, Inc.  The licensee
 of this program is prohibited from giving any competitor of
 Gaussian, Inc. access to this program.  By using this program,
 the user acknowledges that Gaussian, Inc. is engaged in the
 business of creating and licensing software in the field of
 computational chemistry and represents and warrants to the
 licensee that it is not a competitor of Gaussian, Inc. and that
 it will not use this program in any manner prohibited above.
 ---------------------------------------------------------------
  

 Cite this work as:
 Gaussian 16, Revision C.01,
 M. J. Frisch, G. W. Trucks, H. B. Schlegel, G. E. Scuseria, 
 M. A. Robb, J. R. Cheeseman, G. Scalmani, V. Barone, 
 G. A. Petersson, H. Nakatsuji, X. Li, M. Caricato, A. V. Marenich, 
 J. Bloino, B. G. Janesko, R. Gomperts, B. Mennucci, H. P. Hratchian, 
 J. V. Ortiz, A. F. Izmaylov, J. L. Sonnenberg, D. Williams-Young, 
 F. Ding, F. Lipparini, F. Egidi, J. Goings, B. Peng, A. Petrone, 
 T. Henderson, D. Ranasinghe, V. G. Zakrzewski, J. Gao, N. Rega, 
 G. Zheng, W. Liang, M. Hada, M. Ehara, K. Toyota, R. Fukuda, 
 J. Hasegawa, M. Ishida, T. Nakajima, Y. Honda, O. Kitao, H. Nakai, 
 T. Vreven, K. Throssell, J. A. Montgomery, Jr., J. E. Peralta, 
 F. Ogliaro, M. J. Bearpark, J. J. Heyd, E. N. Brothers, K. N. Kudin, 
 V. N. Staroverov, T. A. Keith, R. Kobayashi, J. Normand, 
 K. Raghavachari, A. P. Rendell, J. C. Burant, S. S. Iyengar, 
 J. Tomasi, M. Cossi, J. M. Millam, M. Klene, C. Adamo, R. Cammi, 
 J. W. Ochterski, R. L. Martin, K. Morokuma, O. Farkas, 
 J. B. Foresman, and D. J. Fox, Gaussian, Inc., Wallingford CT, 2019.
 
 ******************************************
 Gaussian 16:  EM64L-G16RevC.01  3-Jul-2019
                21-Mar-2022 
 ******************************************
 %mem=64gb
 %nproc=8
 Will use up to    8 processors via shared memory.
 ----------------------------------------------------------------------
 #P TD(Nstates=10000) pw91pw91/Gen SCF(maxcycles=100) Int(Grid=ultrafin
 e)
 ----------------------------------------------------------------------
 1/38=1,172=1/1;
 2/12=2,17=6,18=5,40=1/2;
 3/5=7,11=9,25=1,30=1,74=608,75=-5/1,2,3,8;
 4//1;
 5/5=2,7=100,38=5/2;
 8/6=1,10=1,108=10000/1;
 9/41=10000,42=1,70=2/14;
 6/7=2,8=2,9=2,10=2/1;
 99/5=1,9=1/99;
 Leave Link    1 at Mon Mar 21 20:22:10 2022, MaxMem=  8589934592 cpu:               0.4 elap:               0.1
 (Enter /home/sabyasachi/g16/l101.exe)
 ---------------------
 xGDB7_00001_tier4.com
 ---------------------
 Symbolic Z-matrix:
 Charge =  0 Multiplicity = 1
 9                     0.        1.09881  -0.28912 
 6                     0.        0.        0.49994 
 9                     0.       -1.09881  -0.28912 
 1                    -0.91135   0.        1.10225 
 1                     0.91135   0.        1.10225 
 
 ITRead=  0  0  0  0  0
 MicOpt= -1 -1 -1 -1 -1
 NAtoms=      5 NQM=        5 NQMF=       0 NMMI=      0 NMMIF=      0
                NMic=       0 NMicF=      0.
                    Isotopes and Nuclear Properties:
 (Nuclear quadrupole moments (NQMom) in fm**2, nuclear magnetic moments (NMagM)
  in nuclear magnetons)

  Atom         1           2           3           4           5
 IAtWgt=          19          12          19           1           1
 AtmWgt=  18.9984033  12.0000000  18.9984033   1.0078250   1.0078250
 NucSpn=           1           0           1           1           1
 AtZEff=  -0.0000000  -0.0000000  -0.0000000  -0.0000000  -0.0000000
 NQMom=    0.0000000   0.0000000   0.0000000   0.0000000   0.0000000
 NMagM=    2.6288670   0.0000000   2.6288670   2.7928460   2.7928460
 AtZNuc=   9.0000000   6.0000000   9.0000000   1.0000000   1.0000000
 Leave Link  101 at Mon Mar 21 20:22:10 2022, MaxMem=  8589934592 cpu:               0.6 elap:               0.1
 (Enter /home/sabyasachi/g16/l202.exe)
                          Input orientation:                          
 ---------------------------------------------------------------------
 Center     Atomic      Atomic             Coordinates (Angstroms)
 Number     Number       Type             X           Y           Z
 ---------------------------------------------------------------------
      1          9           0        0.000000    1.098813   -0.289120
      2          6           0        0.000000    0.000000    0.499944
      3          9           0        0.000000   -1.098813   -0.289120
      4          1           0       -0.911346    0.000000    1.102246
      5          1           0        0.911346    0.000000    1.102246
 ---------------------------------------------------------------------
                    Distance matrix (angstroms):
                    1          2          3          4          5
     1  F    0.000000
     2  C    1.352779   0.000000
     3  F    2.197626   1.352779   0.000000
     4  H    1.993449   1.092392   1.993449   0.000000
     5  H    1.993449   1.092392   1.993449   1.822692   0.000000
 Stoichiometry    CH2F2
 Framework group  C2V[C2(C),SGV(F2),SGV'(H2)]
 Deg. of freedom     4
 Full point group                 C2V     NOp   4
 Largest Abelian subgroup         C2V     NOp   4
 Largest concise Abelian subgroup C2V     NOp   4
                         Standard orientation:                         
 ---------------------------------------------------------------------
 Center     Atomic      Atomic             Coordinates (Angstroms)
 Number     Number       Type             X           Y           Z
 ---------------------------------------------------------------------
      1          9           0        0.000000    1.098813   -0.289120
      2          6           0       -0.000000   -0.000000    0.499944
      3          9           0       -0.000000   -1.098813   -0.289120
      4          1           0       -0.911346    0.000000    1.102246
      5          1           0        0.911346   -0.000000    1.102246
 ---------------------------------------------------------------------
 Rotational constants (GHZ):          49.7833800          10.6281321           9.2978450
 Leave Link  202 at Mon Mar 21 20:22:10 2022, MaxMem=  8589934592 cpu:               0.1 elap:               0.0
 (Enter /home/sabyasachi/g16/l301.exe)
 General basis read from cards:  (5D, 7F)
 Centers:       4      5
 S 3 1.00
     Exponent=  1.3010701000D+01 Coefficients=  1.9682158000D-02
     Exponent=  1.9622572000D+00 Coefficients=  1.3796524000D-01
     Exponent=  4.4453796000D-01 Coefficients=  4.7831935000D-01
 S 1 1.00
     Exponent=  1.2194962000D-01 Coefficients=  1.0000000000D+00
 P 1 1.00
     Exponent=  8.0000000000D-01 Coefficients=  1.0000000000D+00
 P 1 1.00
     Exponent=  1.1704099050D-01 Coefficients=  1.0000000000D+00
 ****
 Centers:       2
 S 5 1.00
     Exponent=  1.2384016938D+03 Coefficients=  5.4568832082D-03
     Exponent=  1.8629004992D+02 Coefficients=  4.0638409211D-02
     Exponent=  4.2251176346D+01 Coefficients=  1.8025593888D-01
     Exponent=  1.1676557932D+01 Coefficients=  4.6315121755D-01
     Exponent=  3.5930506482D+00 Coefficients=  4.4087173314D-01
 S 1 1.00
     Exponent=  4.0245147363D-01 Coefficients=  1.0000000000D+00
 S 1 1.00
     Exponent=  1.3090182668D-01 Coefficients=  1.0000000000D+00
 S 1 1.00
     Exponent=  6.7053540256D-02 Coefficients=  1.0000000000D+00
 P 3 1.00
     Exponent=  9.4680970621D+00 Coefficients=  3.8387871728D-02
     Exponent=  2.0103545142D+00 Coefficients=  2.1117025112D-01
     Exponent=  5.4771004707D-01 Coefficients=  5.1328172114D-01
 P 1 1.00
     Exponent=  1.5268613795D-01 Coefficients=  1.0000000000D+00
 D 1 1.00
     Exponent=  8.0000000000D-01 Coefficients=  1.0000000000D+00
 D 1 1.00
     Exponent=  1.1713185140D-01 Coefficients=  1.0000000000D+00
 ****
 Centers:       1      3
 S 5 1.00
     Exponent=  2.8948325990D+03 Coefficients= -5.3408255515D-03
     Exponent=  4.3541939120D+02 Coefficients= -3.9904258866D-02
     Exponent=  9.8843328866D+01 Coefficients= -1.7912768038D-01
     Exponent=  2.7485198001D+01 Coefficients= -4.6758090825D-01
     Exponent=  8.5405498171D+00 Coefficients= -4.4653131020D-01
 S 1 1.00
     Exponent=  1.0654578038D+00 Coefficients=  1.0000000000D+00
 S 1 1.00
     Exponent=  3.3247346748D-01 Coefficients=  1.0000000000D+00
 S 1 1.00
     Exponent=  9.8097752264D-02 Coefficients=  1.0000000000D+00
 P 3 1.00
     Exponent=  2.2696633924D+01 Coefficients= -4.5212874436D-02
     Exponent=  4.9872339257D+00 Coefficients= -2.3754317067D-01
     Exponent=  1.3491613954D+00 Coefficients= -5.1287353587D-01
 P 1 1.00
     Exponent=  3.4829881977D-01 Coefficients=  1.0000000000D+00
 P 1 1.00
     Exponent=  8.3372148304D-02 Coefficients=  1.0000000000D+00
 D 1 1.00
     Exponent=  1.4000000000D+00 Coefficients=  1.0000000000D+00
 D 1 1.00
     Exponent=  2.2301361948D-01 Coefficients=  1.0000000000D+00
 ****
 Ernie: Thresh=  0.10000D-02 Tol=  0.10000D-05 Strict=F.
 There are    36 symmetry adapted cartesian basis functions of A1  symmetry.
 There are    11 symmetry adapted cartesian basis functions of A2  symmetry.
 There are    17 symmetry adapted cartesian basis functions of B1  symmetry.
 There are    24 symmetry adapted cartesian basis functions of B2  symmetry.
 There are    32 symmetry adapted basis functions of A1  symmetry.
 There are    11 symmetry adapted basis functions of A2  symmetry.
 There are    17 symmetry adapted basis functions of B1  symmetry.
 There are    22 symmetry adapted basis functions of B2  symmetry.
    82 basis functions,   122 primitive gaussians,    88 cartesian basis functions
    13 alpha electrons       13 beta electrons
       nuclear repulsion energy        77.4114556534 Hartrees.
 IExCor=  608 DFT=T Ex=PW91 Corr=PW91 ExCW=0 ScaHFX=  0.000000
 ScaDFX=  1.000000  1.000000  1.000000  1.000000 ScalE2=  1.000000  1.000000
 IRadAn=      5 IRanWt=     -1 IRanGd=            0 ICorTp=0 IEmpDi=  4
 NAtoms=    5 NActive=    5 NUniq=    3 SFac= 2.78D+00 NAtFMM=   60 NAOKFM=F Big=F
 Integral buffers will be    131072 words long.
 Regular integral format.
 Two-electron integral symmetry is turned on.
 Leave Link  301 at Mon Mar 21 20:22:10 2022, MaxMem=  8589934592 cpu:               0.6 elap:               0.1
 (Enter /home/sabyasachi/g16/l302.exe)
 NPDir=0 NMtPBC=     1 NCelOv=     1 NCel=       1 NClECP=     1 NCelD=      1
         NCelK=      1 NCelE2=     1 NClLst=     1 CellRange=     0.0.
 One-electron integrals computed using PRISM.
 One-electron integral symmetry used in STVInt
 NBasis=    82 RedAO= T EigKep=  6.29D-04  NBF=    32    11    17    22
 NBsUse=    82 1.00D-06 EigRej= -1.00D+00 NBFU=    32    11    17    22
 Precomputing XC quadrature grid using
 IXCGrd= 4 IRadAn=           5 IRanWt=          -1 IRanGd=           0 AccXCQ= 0.00D+00.
 Generated NRdTot=       0 NPtTot=           0 NUsed=           0 NTot=          32
 NSgBfM=    88    88    88    88    88 MxSgAt=     5 MxSgA2=     5.
 Leave Link  302 at Mon Mar 21 20:22:10 2022, MaxMem=  8589934592 cpu:               0.9 elap:               0.1
 (Enter /home/sabyasachi/g16/l303.exe)
 DipDrv:  MaxL=1.
 Leave Link  303 at Mon Mar 21 20:22:10 2022, MaxMem=  8589934592 cpu:               0.2 elap:               0.0
 (Enter /home/sabyasachi/g16/l308.exe)
 Leave Link  308 at Mon Mar 21 20:22:10 2022, MaxMem=  8589934592 cpu:               0.2 elap:               0.1
 (Enter /home/sabyasachi/g16/l401.exe)
 ExpMin= 6.71D-02 ExpMax= 2.89D+03 ExpMxC= 4.35D+02 IAcc=3 IRadAn=         5 AccDes= 0.00D+00
 Harris functional with IExCor=  608 and IRadAn=       5 diagonalized for initial guess.
 HarFok:  IExCor=  608 AccDes= 0.00D+00 IRadAn=         5 IDoV= 1 UseB2=F ITyADJ=14
 ICtDFT=  3500011 ScaDFX=  1.000000  1.000000  1.000000  1.000000
 FoFCou: FMM=F IPFlag=           0 FMFlag=      100000 FMFlg1=           0
         NFxFlg=           0 DoJE=T BraDBF=F KetDBF=T FulRan=T
         wScrn=  0.000000 ICntrl=       500 IOpCl=  0 I1Cent=   200000004 NGrid=           0
         NMat0=    1 NMatS0=      1 NMatT0=    0 NMatD0=    1 NMtDS0=    0 NMtDT0=    0
 Petite list used in FoFCou.
 Harris En= -238.756510094580    
 JPrj=0 DoOrth=F DoCkMO=F.
 Initial guess orbital symmetries:
       Occupied  (A1) (B2) (A1) (A1) (B2) (A1) (B2) (B1) (A1) (A2)
                 (A1) (B2) (B1)
       Virtual   (A1) (B2) (A1) (B1) (A1) (B2) (B1) (A1) (A2) (B2)
                 (A1) (A1) (A2) (B1) (A1) (B2) (B1) (B1) (A1) (B2)
                 (A1) (B2) (A2) (A1) (B1) (A1) (B2) (A1) (B1) (A1)
                 (A2) (B2) (A2) (B2) (A1) (B1) (B2) (A1) (B1) (A1)
                 (A2) (A1) (B1) (B2) (A2) (B2) (A1) (B1) (A1) (B1)
                 (B2) (A1) (B2) (B2) (A1) (A2) (A1) (A1) (B1) (B2)
                 (A2) (B2) (B1) (A1) (B1) (A2) (A1) (A1) (B2)
 The electronic state of the initial guess is 1-A1.
 Leave Link  401 at Mon Mar 21 20:22:11 2022, MaxMem=  8589934592 cpu:               1.4 elap:               0.2
 (Enter /home/sabyasachi/g16/l502.exe)
 Keep J ints in memory in symmetry-blocked form, NReq=13114582.
 FoFCou: FMM=F IPFlag=           0 FMFlag=           0 FMFlg1=           0
         NFxFlg=           0 DoJE=F BraDBF=F KetDBF=F FulRan=T
         wScrn=  0.000000 ICntrl=       600 IOpCl=  0 I1Cent=           0 NGrid=           0
         NMat0=    1 NMatS0=   3403 NMatT0=    0 NMatD0=    1 NMtDS0=    0 NMtDT0=    0
 Petite list used in FoFCou.
 Closed shell SCF:
 Using DIIS extrapolation, IDIIS=  1040.
 NGot=  8589934592 LenX=  8588436934 LenY=  8588428749
 Requested convergence on RMS density matrix=1.00D-08 within 100 cycles.
 Requested convergence on MAX density matrix=1.00D-06.
 Requested convergence on             energy=1.00D-06.
 No special actions if energy rises.
 Integral accuracy reduced to 1.0D-05 until final iterations.

 Cycle   1  Pass 0  IDiag  1:
 E= -238.736696758409    
 DIIS: error= 1.59D-02 at cycle   1 NSaved=   1.
 NSaved= 1 IEnMin= 1 EnMin= -238.736696758409     IErMin= 1 ErrMin= 1.59D-02
 ErrMax= 1.59D-02  0.00D+00 EMaxC= 1.00D-01 BMatC= 2.12D-02 BMatP= 2.12D-02
 IDIUse=3 WtCom= 8.41D-01 WtEn= 1.59D-01
 Coeff-Com:  0.100D+01
 Coeff-En:   0.100D+01
 Coeff:      0.100D+01
 Gap=     0.272 Goal=   None    Shift=    0.000
 GapD=    0.272 DampG=1.000 DampE=0.500 DampFc=0.5000 IDamp=-1.
 Damping current iteration by 5.00D-01
 RMSDP=3.16D-03 MaxDP=4.51D-02              OVMax= 6.25D-02

 Cycle   2  Pass 0  IDiag  1:
 E= -238.740466720126     Delta-E=       -0.003769961717 Rises=F Damp=T
 DIIS: error= 5.54D-03 at cycle   2 NSaved=   2.
 NSaved= 2 IEnMin= 2 EnMin= -238.740466720126     IErMin= 2 ErrMin= 5.54D-03
 ErrMax= 5.54D-03  0.00D+00 EMaxC= 1.00D-01 BMatC= 4.07D-03 BMatP= 2.12D-02
 IDIUse=3 WtCom= 9.45D-01 WtEn= 5.54D-02
 Coeff-Com:  0.252D+00 0.748D+00
 Coeff-En:   0.364D+00 0.636D+00
 Coeff:      0.258D+00 0.742D+00
 Gap=     0.302 Goal=   None    Shift=    0.000
 RMSDP=8.49D-04 MaxDP=1.17D-02 DE=-3.77D-03 OVMax= 4.37D-02

 Cycle   3  Pass 0  IDiag  1:
 E= -238.751574687383     Delta-E=       -0.011107967258 Rises=F Damp=F
 DIIS: error= 2.88D-03 at cycle   3 NSaved=   3.
 NSaved= 3 IEnMin= 3 EnMin= -238.751574687383     IErMin= 3 ErrMin= 2.88D-03
 ErrMax= 2.88D-03  0.00D+00 EMaxC= 1.00D-01 BMatC= 8.09D-04 BMatP= 4.07D-03
 IDIUse=3 WtCom= 9.71D-01 WtEn= 2.88D-02
 Coeff-Com:  0.268D-01 0.312D+00 0.662D+00
 Coeff-En:   0.000D+00 0.000D+00 0.100D+01
 Coeff:      0.260D-01 0.303D+00 0.671D+00
 Gap=     0.301 Goal=   None    Shift=    0.000
 RMSDP=3.17D-04 MaxDP=7.94D-03 DE=-1.11D-02 OVMax= 8.12D-03

 Cycle   4  Pass 0  IDiag  1:
 E= -238.752170668320     Delta-E=       -0.000595980937 Rises=F Damp=F
 DIIS: error= 7.96D-04 at cycle   4 NSaved=   4.
 NSaved= 4 IEnMin= 4 EnMin= -238.752170668320     IErMin= 4 ErrMin= 7.96D-04
 ErrMax= 7.96D-04  0.00D+00 EMaxC= 1.00D-01 BMatC= 4.87D-05 BMatP= 8.09D-04
 IDIUse=3 WtCom= 9.92D-01 WtEn= 7.96D-03
 Coeff-Com:  0.134D-01 0.106D+00 0.295D+00 0.585D+00
 Coeff-En:   0.000D+00 0.000D+00 0.000D+00 0.100D+01
 Coeff:      0.132D-01 0.106D+00 0.293D+00 0.588D+00
 Gap=     0.300 Goal=   None    Shift=    0.000
 RMSDP=9.34D-05 MaxDP=3.18D-03 DE=-5.96D-04 OVMax= 2.02D-03

 Cycle   5  Pass 0  IDiag  1:
 E= -238.752211416819     Delta-E=       -0.000040748498 Rises=F Damp=F
 DIIS: error= 2.45D-04 at cycle   5 NSaved=   5.
 NSaved= 5 IEnMin= 5 EnMin= -238.752211416819     IErMin= 5 ErrMin= 2.45D-04
 ErrMax= 2.45D-04  0.00D+00 EMaxC= 1.00D-01 BMatC= 3.67D-06 BMatP= 4.87D-05
 IDIUse=3 WtCom= 9.98D-01 WtEn= 2.45D-03
 Coeff-Com:  0.301D-02 0.162D-01 0.772D-01 0.287D+00 0.617D+00
 Coeff-En:   0.000D+00 0.000D+00 0.000D+00 0.000D+00 0.100D+01
 Coeff:      0.301D-02 0.161D-01 0.770D-01 0.286D+00 0.618D+00
 Gap=     0.300 Goal=   None    Shift=    0.000
 RMSDP=2.41D-05 MaxDP=5.93D-04 DE=-4.07D-05 OVMax= 5.68D-04

 Cycle   6  Pass 0  IDiag  1:
 E= -238.752214785422     Delta-E=       -0.000003368603 Rises=F Damp=F
 DIIS: error= 1.08D-05 at cycle   6 NSaved=   6.
 NSaved= 6 IEnMin= 6 EnMin= -238.752214785422     IErMin= 6 ErrMin= 1.08D-05
 ErrMax= 1.08D-05  0.00D+00 EMaxC= 1.00D-01 BMatC= 9.98D-09 BMatP= 3.67D-06
 IDIUse=1 WtCom= 1.00D+00 WtEn= 0.00D+00
 Coeff-Com:  0.616D-03 0.255D-02 0.153D-01 0.632D-01 0.154D+00 0.765D+00
 Coeff:      0.616D-03 0.255D-02 0.153D-01 0.632D-01 0.154D+00 0.765D+00
 Gap=     0.300 Goal=   None    Shift=    0.000
 RMSDP=1.20D-06 MaxDP=1.33D-05 DE=-3.37D-06 OVMax= 1.96D-05

 Initial convergence to 1.0D-05 achieved.  Increase integral accuracy.
 Cycle   7  Pass 1  IDiag  1:
 E= -238.752241790183     Delta-E=       -0.000027004762 Rises=F Damp=F
 DIIS: error= 5.35D-06 at cycle   1 NSaved=   1.
 NSaved= 1 IEnMin= 1 EnMin= -238.752241790183     IErMin= 1 ErrMin= 5.35D-06
 ErrMax= 5.35D-06  0.00D+00 EMaxC= 1.00D-01 BMatC= 2.43D-09 BMatP= 2.43D-09
 IDIUse=1 WtCom= 1.00D+00 WtEn= 0.00D+00
 Coeff-Com:  0.100D+01
 Coeff:      0.100D+01
 Gap=     0.300 Goal=   None    Shift=    0.000
 RMSDP=1.20D-06 MaxDP=1.33D-05 DE=-2.70D-05 OVMax= 3.13D-05

 Cycle   8  Pass 1  IDiag  1:
 E= -238.752241793081     Delta-E=       -0.000000002898 Rises=F Damp=F
 DIIS: error= 1.26D-06 at cycle   2 NSaved=   2.
 NSaved= 2 IEnMin= 2 EnMin= -238.752241793081     IErMin= 2 ErrMin= 1.26D-06
 ErrMax= 1.26D-06  0.00D+00 EMaxC= 1.00D-01 BMatC= 1.57D-10 BMatP= 2.43D-09
 IDIUse=1 WtCom= 1.00D+00 WtEn= 0.00D+00
 Coeff-Com:  0.146D+00 0.854D+00
 Coeff:      0.146D+00 0.854D+00
 Gap=     0.300 Goal=   None    Shift=    0.000
 RMSDP=1.71D-07 MaxDP=1.91D-06 DE=-2.90D-09 OVMax= 3.10D-06

 Cycle   9  Pass 1  IDiag  1:
 E= -238.752241793131     Delta-E=       -0.000000000050 Rises=F Damp=F
 DIIS: error= 8.71D-07 at cycle   3 NSaved=   3.
 NSaved= 3 IEnMin= 3 EnMin= -238.752241793131     IErMin= 3 ErrMin= 8.71D-07
 ErrMax= 8.71D-07  0.00D+00 EMaxC= 1.00D-01 BMatC= 6.93D-11 BMatP= 1.57D-10
 IDIUse=1 WtCom= 1.00D+00 WtEn= 0.00D+00
 Coeff-Com:  0.257D-01 0.406D+00 0.568D+00
 Coeff:      0.257D-01 0.406D+00 0.568D+00
 Gap=     0.300 Goal=   None    Shift=    0.000
 RMSDP=9.02D-08 MaxDP=1.56D-06 DE=-4.99D-11 OVMax= 2.05D-06

 Cycle  10  Pass 1  IDiag  1:
 E= -238.752241793163     Delta-E=       -0.000000000032 Rises=F Damp=F
 DIIS: error= 4.66D-07 at cycle   4 NSaved=   4.
 NSaved= 4 IEnMin= 4 EnMin= -238.752241793163     IErMin= 4 ErrMin= 4.66D-07
 ErrMax= 4.66D-07  0.00D+00 EMaxC= 1.00D-01 BMatC= 2.08D-11 BMatP= 6.93D-11
 IDIUse=1 WtCom= 1.00D+00 WtEn= 0.00D+00
 Coeff-Com:  0.160D-02 0.152D+00 0.380D+00 0.467D+00
 Coeff:      0.160D-02 0.152D+00 0.380D+00 0.467D+00
 Gap=     0.300 Goal=   None    Shift=    0.000
 RMSDP=3.49D-08 MaxDP=5.66D-07 DE=-3.20D-11 OVMax= 9.77D-07

 Cycle  11  Pass 1  IDiag  1:
 E= -238.752241793175     Delta-E=       -0.000000000012 Rises=F Damp=F
 DIIS: error= 1.13D-08 at cycle   5 NSaved=   5.
 NSaved= 5 IEnMin= 5 EnMin= -238.752241793175     IErMin= 5 ErrMin= 1.13D-08
 ErrMax= 1.13D-08  0.00D+00 EMaxC= 1.00D-01 BMatC= 1.34D-14 BMatP= 2.08D-11
 IDIUse=1 WtCom= 1.00D+00 WtEn= 0.00D+00
 Coeff-Com:  0.677D-04 0.251D-01 0.724D-01 0.866D-01 0.816D+00
 Coeff:      0.677D-04 0.251D-01 0.724D-01 0.866D-01 0.816D+00
 Gap=     0.300 Goal=   None    Shift=    0.000
 RMSDP=2.35D-09 MaxDP=4.08D-08 DE=-1.24D-11 OVMax= 3.95D-08

 SCF Done:  E(RPW91-PW91) =  -238.752241793     A.U. after   11 cycles
            NFock= 11  Conv=0.24D-08     -V/T= 2.0070
 KE= 2.370958561599D+02 PE=-7.211819218855D+02 EE= 1.679223682790D+02
 Leave Link  502 at Mon Mar 21 20:22:11 2022, MaxMem=  8589934592 cpu:               4.3 elap:               0.6
 (Enter /home/sabyasachi/g16/l801.exe)
 DoSCS=F DFT=T ScalE2(SS,OS)=  1.000000  1.000000
 ExpMin= 6.71D-02 ExpMax= 2.89D+03 ExpMxC= 4.35D+02 IAcc=3 IRadAn=         5 AccDes= 0.00D+00
 HarFok:  IExCor=  205 AccDes= 0.00D+00 IRadAn=         5 IDoV=-2 UseB2=F ITyADJ=14
 ICtDFT= 12500011 ScaDFX=  1.000000  1.000000  1.000000  1.000000
 Largest valence mixing into a core orbital is  7.13D-05
 Largest core mixing into a valence orbital is  1.96D-05
 Range of M.O.s used for correlation:     4    82
 NBasis=    82 NAE=    13 NBE=    13 NFC=     3 NFV=     0
 NROrb=     79 NOA=    10 NOB=    10 NVA=    69 NVB=    69

 **** Warning!!: The largest alpha MO coefficient is  0.16984366D+02

 Leave Link  801 at Mon Mar 21 20:22:11 2022, MaxMem=  8589934592 cpu:               0.5 elap:               0.1
 (Enter /home/sabyasachi/g16/l914.exe)
 RHF ground state
 Keep J ints in memory in symmetry-blocked form, NReq=462838434.
 FoFCou: FMM=F IPFlag=           0 FMFlag=           0 FMFlg1=           0
         NFxFlg=           0 DoJE=F BraDBF=F KetDBF=F FulRan=T
         wScrn=  0.000000 ICntrl=       600 IOpCl=  0 I1Cent=           0 NGrid=           0
         NMat0=    1 NMatS0=   3403 NMatT0=    0 NMatD0=    1 NMtDS0=    0 NMtDT0=    0
 Petite list used in FoFCou.
 MDV=  8589934592 DFT=T DoStab=F Mixed=F DoRPA=T DoScal=T NonHer=F
 Making orbital integer symmetry assigments:
 Orbital symmetries:
       Occupied  (A1) (B2) (A1) (A1) (B2) (A1) (B2) (B1) (A1) (A2)
                 (A1) (B2) (B1)
       Virtual   (A1) (B2) (A1) (B1) (A1) (B2) (A1) (A2) (B1) (B2)
                 (A1) (A1) (A2) (B1) (B2) (A1) (B1) (B1) (A1) (B2)
                 (A1) (B2) (A2) (A1) (B1) (A1) (B2) (A1) (B1) (A2)
                 (A1) (B2) (A2) (B2) (A1) (B1) (B2) (A1) (B1) (A1)
                 (A2) (A1) (B1) (B2) (A2) (B2) (A1) (B1) (A1) (B1)
                 (B2) (A1) (B2) (B2) (A1) (A2) (A1) (A1) (B1) (B2)
                 (A2) (B2) (B1) (A1) (B1) (A2) (A1) (A1) (B2)
   690 initial guesses have been made.
 Convergence on wavefunction:    0.001000000000000
 Davidson Disk Diagonalization:  ConvIn= 1.00D-03 SkipCon=T Conv= 1.00D-03.
 Max sub-space:  2760 roots to seek:  1380 dimension of matrix:         1380
 *** WARNING: Number of orthogonal guesses is          690
 Iteration     1 Dimension   690 NMult     0 NNew    690
 CISAX will form   690 AO SS matrices at one time.
 NMat=   690 NSing=   690 JSym2X=-1.
 New state      4 was old state      5
 New state      5 was old state      4
 New state      6 was old state      7
 New state      7 was old state      6
 New state      9 was old state     13
 New state     10 was old state      9
 New state     13 was old state     10
 New state     14 was old state     16
 New state     16 was old state     14
 New state     24 was old state     25
 New state     25 was old state     24
 New state     27 was old state     28
 New state     28 was old state     27
 New state     30 was old state     31
 New state     31 was old state     30
 New state     32 was old state     34
 New state     33 was old state     37
 New state     34 was old state     33
 New state     35 was old state     32
 New state     36 was old state     39
 New state     37 was old state     36
 New state     38 was old state     35
 New state     39 was old state     38
 New state     43 was old state     45
 New state     44 was old state     43
 New state     45 was old state     46
 New state     46 was old state     48
 New state     47 was old state     44
 New state     48 was old state     47
 New state     49 was old state     51
 New state     50 was old state     54
 New state     51 was old state     52
 New state     52 was old state     49
 New state     53 was old state     50
 New state     54 was old state     56
 New state     55 was old state     53
 New state     56 was old state     55
 New state     57 was old state     58
 New state     58 was old state     57
 New state     59 was old state     60
 New state     60 was old state     59
 New state     64 was old state     67
 New state     65 was old state     64
 New state     67 was old state     65
 New state     68 was old state     69
 New state     69 was old state     68
 New state     70 was old state     71
 New state     71 was old state     70
 New state     72 was old state     73
 New state     73 was old state     78
 New state     74 was old state     80
 New state     75 was old state     81
 New state     77 was old state     74
 New state     78 was old state     75
 New state     79 was old state     77
 New state     80 was old state     84
 New state     81 was old state     79
 New state     82 was old state     85
 New state     83 was old state     82
 New state     84 was old state     72
 New state     85 was old state     87
 New state     86 was old state     83
 New state     87 was old state     88
 New state     88 was old state     86
 New state     89 was old state     90
 New state     90 was old state     91
 New state     91 was old state     89
 New state     92 was old state     93
 New state     93 was old state     92
 New state     94 was old state     95
 New state     95 was old state     94
 New state     96 was old state     99
 New state     98 was old state    100
 New state     99 was old state     96
 New state    100 was old state     98
 New state    102 was old state    104
 New state    104 was old state    105
 New state    105 was old state    102
 New state    106 was old state    107
 New state    107 was old state    110
 New state    110 was old state    111
 New state    111 was old state    112
 New state    112 was old state    114
 New state    113 was old state    115
 New state    114 was old state    106
 New state    115 was old state    113
 New state    117 was old state    120
 New state    119 was old state    121
 New state    120 was old state    119
 New state    121 was old state    117
 New state    125 was old state    126
 New state    126 was old state    128
 New state    128 was old state    129
 New state    129 was old state    130
 New state    130 was old state    131
 New state    131 was old state    125
 New state    132 was old state    133
 New state    133 was old state    132
 New state    134 was old state    137
 New state    135 was old state    138
 New state    136 was old state    134
 New state    137 was old state    140
 New state    138 was old state    139
 New state    139 was old state    135
 New state    140 was old state    142
 New state    141 was old state    136
 New state    142 was old state    146
 New state    143 was old state    147
 New state    144 was old state    145
 New state    145 was old state    144
 New state    146 was old state    141
 New state    147 was old state    143
 New state    148 was old state    151
 New state    149 was old state    148
 New state    150 was old state    149
 New state    151 was old state    150
 New state    153 was old state    155
 New state    154 was old state    153
 New state    155 was old state    157
 New state    156 was old state    158
 New state    157 was old state    159
 New state    158 was old state    160
 New state    159 was old state    162
 New state    160 was old state    165
 New state    161 was old state    163
 New state    162 was old state    164
 New state    163 was old state    154
 New state    164 was old state    169
 New state    165 was old state    161
 New state    166 was old state    167
 New state    167 was old state    168
 New state    168 was old state    171
 New state    169 was old state    170
 New state    170 was old state    172
 New state    171 was old state    181
 New state    172 was old state    175
 New state    173 was old state    174
 New state    174 was old state    176
 New state    175 was old state    177
 New state    176 was old state    180
 New state    177 was old state    179
 New state    179 was old state    166
 New state    180 was old state    173
 New state    181 was old state    182
 New state    182 was old state    183
 New state    183 was old state    184
 New state    184 was old state    185
 New state    185 was old state    190
 New state    186 was old state    187
 New state    187 was old state    189
 New state    188 was old state    186
 New state    189 was old state    188
 New state    190 was old state    196
 New state    192 was old state    193
 New state    193 was old state    194
 New state    194 was old state    197
 New state    195 was old state    198
 New state    196 was old state    195
 New state    197 was old state    192
 New state    198 was old state    199
 New state    199 was old state    200
 New state    200 was old state    202
 No map to state    202
 New state    203 was old state    204
 New state    204 was old state    205
 New state    205 was old state    203
 New state    206 was old state    207
 New state    207 was old state    208
 New state    208 was old state    206
 New state    210 was old state    211
 New state    211 was old state    210
 New state    213 was old state    215
 New state    214 was old state    213
 New state    215 was old state    216
 New state    216 was old state    214
 New state    218 was old state    222
 New state    219 was old state    220
 New state    220 was old state    226
 New state    221 was old state    218
 New state    222 was old state    225
 New state    223 was old state    227
 New state    225 was old state    219
 New state    226 was old state    229
 New state    227 was old state    221
 New state    228 was old state    231
 New state    229 was old state    230
 New state    230 was old state    228
 New state    231 was old state    234
 New state    232 was old state    233
 New state    233 was old state    232
 New state    234 was old state    235
 New state    235 was old state    236
 New state    236 was old state    237
 New state    237 was old state    239
 New state    238 was old state    240
 New state    239 was old state    241
 New state    240 was old state    238
 New state    241 was old state    243
 New state    242 was old state    245
 New state    243 was old state    242
 New state    244 was old state    247
 New state    245 was old state    249
 New state    246 was old state    248
 New state    247 was old state    244
 New state    248 was old state    246
 New state    249 was old state    250
 New state    250 was old state    254
 New state    252 was old state    255
 New state    254 was old state    256
 New state    255 was old state    252
 New state    256 was old state    257
 New state    257 was old state    259
 New state    259 was old state    260
 New state    260 was old state    261
 New state    261 was old state    264
 New state    262 was old state    263
 New state    263 was old state    262
 New state    264 was old state    267
 New state    265 was old state    274
 New state    266 was old state    268
 New state    267 was old state    272
 New state    268 was old state    271
 New state    269 was old state    273
 New state    271 was old state    277
 New state    272 was old state    269
 New state    273 was old state    276
 New state    274 was old state    278
 New state    276 was old state    265
 New state    277 was old state    266
 New state    278 was old state    279
 New state    279 was old state    281
 New state    281 was old state    286
 New state    282 was old state    285
 New state    283 was old state    287
 New state    284 was old state    282
 New state    285 was old state    284
 New state    286 was old state    283
 New state    287 was old state    294
 New state    289 was old state    293
 New state    291 was old state    289
 New state    293 was old state    291
 New state    294 was old state    296
 New state    295 was old state    302
 New state    296 was old state    299
 New state    299 was old state    301
 New state    300 was old state    303
 New state    301 was old state    304
 New state    302 was old state    305
 New state    303 was old state    300
 New state    304 was old state    306
 New state    305 was old state    307
 New state    306 was old state    308
 New state    307 was old state    295
 New state    308 was old state    309
 New state    309 was old state    310
 New state    310 was old state    313
 New state    311 was old state    314
 New state    312 was old state    315
 New state    313 was old state    316
 New state    314 was old state    317
 New state    315 was old state    312
 New state    316 was old state    318
 New state    317 was old state    311
 New state    318 was old state    322
 New state    319 was old state    323
 New state    320 was old state    321
 New state    321 was old state    319
 New state    322 was old state    324
 New state    323 was old state    320
 New state    324 was old state    325
 New state    325 was old state    337
 New state    326 was old state    327
 New state    327 was old state    326
 New state    331 was old state    332
 New state    332 was old state    334
 New state    333 was old state    335
 New state    334 was old state    336
 New state    335 was old state    333
 New state    336 was old state    339
 New state    337 was old state    331
 New state    339 was old state    340
 New state    340 was old state    341
 New state    341 was old state    342
 New state    342 was old state    344
 New state    344 was old state    345
 New state    345 was old state    346
 New state    346 was old state    347
 New state    347 was old state    348
 New state    348 was old state    351
 New state    350 was old state    352
 New state    351 was old state    350
 New state    352 was old state    354
 New state    353 was old state    356
 New state    354 was old state    355
 New state    355 was old state    353
 New state    356 was old state    357
 New state    357 was old state    358
 New state    358 was old state    368
 New state    363 was old state    364
 New state    364 was old state    363
 New state    368 was old state    369
 New state    369 was old state    371
 New state    371 was old state    375
 New state    372 was old state    373
 New state    373 was old state    374
 New state    374 was old state    372
 New state    375 was old state    376
 New state    376 was old state    382
 New state    378 was old state    379
 New state    379 was old state    378
 New state    382 was old state    386
 New state    384 was old state    385
 New state    385 was old state    388
 New state    386 was old state    387
 New state    387 was old state    384
 New state    388 was old state    389
 New state    389 was old state    390
 New state    390 was old state    402
 New state    392 was old state    393
 New state    393 was old state    392
 New state    398 was old state    400
 New state    399 was old state    398
 New state    400 was old state    403
 New state    402 was old state    404
 New state    403 was old state    405
 New state    404 was old state    406
 New state    405 was old state    417
 New state    406 was old state    408
 New state    408 was old state    409
 New state    409 was old state    412
 New state    410 was old state    414
 New state    412 was old state    413
 New state    413 was old state    410
 New state    414 was old state    416
 New state    416 was old state    423
 New state    417 was old state    418
 New state    418 was old state    419
 New state    419 was old state    420
 New state    420 was old state    422
 New state    422 was old state    425
 New state    423 was old state    428
 New state    424 was old state    427
 New state    425 was old state    424
 New state    427 was old state    429
 New state    428 was old state    431
 New state    429 was old state    430
 New state    430 was old state    433
 New state    431 was old state    432
 New state    432 was old state    441
 New state    433 was old state    435
 New state    435 was old state    436
 New state    436 was old state    437
 New state    437 was old state    439
 New state    438 was old state    448
 New state    439 was old state    438
 New state    441 was old state    442
 New state    442 was old state    443
 New state    443 was old state    451
 New state    444 was old state    446
 New state    446 was old state    447
 New state    447 was old state    444
 New state    448 was old state    449
 New state    449 was old state    450
 New state    450 was old state    453
 New state    451 was old state    452
 New state    452 was old state    455
 New state    453 was old state    454
 New state    454 was old state    463
 New state    455 was old state    458
 New state    458 was old state    460
 New state    460 was old state    466
 New state    461 was old state    462
 New state    462 was old state    461
 New state    463 was old state    464
 New state    464 was old state    468
 New state    466 was old state    467
 New state    467 was old state    471
 New state    468 was old state    469
 New state    469 was old state    470
 New state    470 was old state    472
 New state    471 was old state    473
 New state    472 was old state    474
 New state    473 was old state    475
 New state    474 was old state    476
 New state    475 was old state    479
 New state    476 was old state    478
 New state    478 was old state    482
 New state    479 was old state    480
 New state    480 was old state    481
 New state    481 was old state    489
 New state    482 was old state    483
 New state    483 was old state    487
 New state    484 was old state    488
 New state    485 was old state    486
 New state    486 was old state    484
 New state    487 was old state    485
 New state    488 was old state    490
 New state    489 was old state    491
 New state    490 was old state    492
 New state    491 was old state    496
 New state    492 was old state    494
 New state    494 was old state    495
 New state    495 was old state    497
 New state    496 was old state    498
 New state    497 was old state    503
 New state    498 was old state    501
 New state    501 was old state    502
 New state    502 was old state    504
 New state    503 was old state    505
 New state    504 was old state    506
 New state    505 was old state    507
 New state    506 was old state    508
 New state    507 was old state    536
 New state    508 was old state    511
 New state    511 was old state    514
 New state    514 was old state    516
 New state    515 was old state    538
 New state    516 was old state    517
 New state    517 was old state    519
 New state    518 was old state    515
 New state    519 was old state    518
 New state    525 was old state    526
 New state    526 was old state    525
 New state    527 was old state    528
 New state    528 was old state    531
 New state    529 was old state    530
 New state    530 was old state    532
 New state    531 was old state    529
 New state    532 was old state    533
 New state    533 was old state    527
 New state    536 was old state    537
 New state    537 was old state    539
 New state    538 was old state    542
 New state    539 was old state    541
 New state    540 was old state    548
 New state    541 was old state    540
 New state    542 was old state    543
 New state    543 was old state    546
 New state    544 was old state    545
 New state    545 was old state    544
 New state    546 was old state    547
 New state    547 was old state    574
 New state    548 was old state    575
 New state    554 was old state    555
 New state    555 was old state    554
 New state    556 was old state    557
 New state    557 was old state    556
 New state    560 was old state    561
 New state    561 was old state    560
 New state    568 was old state    571
 New state    569 was old state    568
 New state    570 was old state    569
 New state    571 was old state    570
 New state    572 was old state    573
 New state    573 was old state    572
 New state    574 was old state    577
 New state    575 was old state    576
 New state    576 was old state    578
 New state    577 was old state    581
 New state    578 was old state    583
 New state    579 was old state    580
 New state    580 was old state    579
 New state    581 was old state    582
 New state    582 was old state    585
 No map to state    583
 No map to state    585
 New state    586 was old state    587
 New state    587 was old state    586
 New state    590 was old state    591
 New state    591 was old state    593
 New state    592 was old state    594
 New state    593 was old state    590
 New state    594 was old state    592
 New state    596 was old state    597
 New state    597 was old state    596
 New state    598 was old state    599
 New state    599 was old state    606
 New state    600 was old state    604
 New state    602 was old state    603
 New state    603 was old state    602
 New state    604 was old state    608
 New state    605 was old state    611
 New state    606 was old state    613
 New state    607 was old state    609
 New state    608 was old state    612
 New state    609 was old state    614
 New state    611 was old state    625
 New state    612 was old state    615
 New state    613 was old state    620
 New state    614 was old state    616
 New state    615 was old state    619
 New state    616 was old state    618
 New state    617 was old state    622
 New state    618 was old state    623
 New state    619 was old state    621
 New state    620 was old state    626
 New state    621 was old state    624
 New state    622 was old state    617
 New state    623 was old state    627
 New state    624 was old state    628
 New state    625 was old state    631
 New state    626 was old state    633
 New state    627 was old state    630
 New state    628 was old state    632
 New state    629 was old state    635
 New state    630 was old state    634
 New state    631 was old state    638
 New state    632 was old state    646
 New state    633 was old state    637
 New state    634 was old state    640
 New state    635 was old state    639
 New state    636 was old state    650
 New state    637 was old state    645
 New state    638 was old state    641
 New state    639 was old state    644
 New state    640 was old state    642
 New state    641 was old state    636
 New state    642 was old state    643
 New state    643 was old state    648
 New state    644 was old state    647
 New state    645 was old state    657
 New state    646 was old state    629
 New state    647 was old state    665
 New state    648 was old state    649
 New state    649 was old state    651
 New state    650 was old state    653
 New state    651 was old state    656
 New state    652 was old state    654
 New state    653 was old state    655
 New state    654 was old state    662
 New state    655 was old state    659
 New state    656 was old state    658
 New state    657 was old state    652
 New state    658 was old state    660
 New state    659 was old state    669
 New state    660 was old state    664
 New state    661 was old state    663
 New state    662 was old state    661
 New state    663 was old state    600
 New state    664 was old state    598
 New state    665 was old state    668
 No map to state    667
 New state    668 was old state    672
 New state    669 was old state    667
 New state    670 was old state    671
 New state    671 was old state    681
 New state    672 was old state    674
 New state    673 was old state    675
 New state    674 was old state    673
 New state    675 was old state    676
 New state    676 was old state    670
 New state    681 was old state    682
 No map to state    682
 Excitation Energies [eV] at current iteration:
 Root      1 :     8.238363926081981
 Root      2 :     9.170546935959640
 Root      3 :     9.589432004009591
 Root      4 :     9.680804749840128
 Root      5 :     9.738340500995880
 Root      6 :    10.120841105719830
 Root      7 :    10.154251078868930
 Root      8 :    10.753347966840340
 Root      9 :    11.049978287145660
 Root     10 :    11.055700826857160
 Root     11 :    11.088651045515310
 Root     12 :    11.112218424693730
 Root     13 :    11.355608204540730
 Root     14 :    11.460486148426230
 Root     15 :    11.472449230769540
 Root     16 :    11.476270978406840
 Root     17 :    11.532737475578290
 Root     18 :    11.554456447325200
 Root     19 :    11.834306663040250
 Root     20 :    11.925734739236280
 Root     21 :    12.245228846227890
 Root     22 :    12.435382496334810
 Root     23 :    12.632730389759710
 Root     24 :    12.829378295260540
 Root     25 :    12.856930427075190
 Root     26 :    12.978058131048020
 Root     27 :    13.274792521296280
 Root     28 :    13.275968040702050
 Root     29 :    13.336989790255860
 Root     30 :    13.453376556373350
 Root     31 :    13.508153924077490
 Root     32 :    13.616245493016130
 Root     33 :    13.643091497692760
 Root     34 :    13.689290341005030
 Root     35 :    13.726905308106600
 Root     36 :    13.737522750577370
 Root     37 :    13.739271903777030
 Root     38 :    13.741579150196400
 Root     39 :    13.769720341739640
 Root     40 :    13.994417888447230
 Root     41 :    14.138751275903120
 Root     42 :    14.259862535676310
 Root     43 :    14.503828306851110
 Root     44 :    14.526482885992050
 Root     45 :    14.580846753691100
 Root     46 :    14.601087739569970
 Root     47 :    14.679231404151120
 Root     48 :    14.703842397422780
 Root     49 :    14.979807656284090
 Root     50 :    14.999697748207890
 Root     51 :    15.024555175368270
 Root     52 :    15.098885645182950
 Root     53 :    15.114796222010460
 Root     54 :    15.402806577505350
 Root     55 :    15.422793640595230
 Root     56 :    15.547562659166090
 Root     57 :    15.651024038113680
 Root     58 :    15.674538613134340
 Root     59 :    15.763231378019960
 Root     60 :    15.844213561574050
 Root     61 :    15.993380478850690
 Root     62 :    16.036989384615310
 Root     63 :    16.323049798932030
 Root     64 :    16.349859348457160
 Root     65 :    16.475144283647290
 Root     66 :    16.512660318783460
 Root     67 :    16.653557539084900
 Root     68 :    16.827900829872820
 Root     69 :    16.938831944863150
 Root     70 :    16.949948044968280
 Root     71 :    17.066569953366550
 Root     72 :    17.156455988599270
 Root     73 :    17.174215223267560
 Root     74 :    17.187234470024980
 Root     75 :    17.202675833020000
 Root     76 :    17.203294029226740
 Root     77 :    17.212270540716940
 Root     78 :    17.219480922486090
 Root     79 :    17.244736288486860
 Root     80 :    17.283822259289000
 Root     81 :    17.287024313840460
 Root     82 :    17.297750827441780
 Root     83 :    17.348224521738980
 Root     84 :    17.379723203723690
 Root     85 :    17.473993480099650
 Root     86 :    17.477007370367310
 Root     87 :    17.594431955277330
 Root     88 :    17.609221753448780
 Root     89 :    17.618320127424110
 Root     90 :    17.724594179404900
 Root     91 :    17.820851636375710
 Root     92 :    17.912472967244410
 Root     93 :    17.976765093115340
 Root     94 :    18.038281401315160
 Root     95 :    18.240063433697070
 Root     96 :    18.242489315257160
 Root     97 :    18.265106057627760
 Root     98 :    18.349275983106090
 Root     99 :    18.417685762294680
 Root    100 :    18.616172024775540
 Root    101 :    18.653857862107940
 Root    102 :    18.706830907342190
 Root    103 :    18.745472996991900
 Root    104 :    18.897928033402160
 Root    105 :    18.917532247022360
 Root    106 :    19.016415255202760
 Root    107 :    19.273968101582280
 Root    108 :    19.276212326088450
 Root    109 :    19.512364034323570
 Root    110 :    19.662894269104720
 Root    111 :    19.793215605057110
 Root    112 :    19.820361735505430
 Root    113 :    19.874115212948070
 Root    114 :    19.922080200671970
 Root    115 :    19.930257941655380
 Root    116 :    20.124623141179770
 Root    117 :    20.271754852215730
 Root    118 :    20.275763627664210
 Root    119 :    20.308310541166770
 Root    120 :    20.332795072561030
 Root    121 :    20.385220451246590
 Root    122 :    20.505321081459800
 Root    123 :    20.644416528383460
 Root    124 :    20.699657830906770
 Root    125 :    20.749040963701720
 Root    126 :    20.756597040627350
 Root    127 :    20.786519061860470
 Root    128 :    20.811626315138680
 Root    129 :    20.922283262777630
 Root    130 :    20.926332143572270
 Root    131 :    21.000590543948600
 Root    132 :    21.004242682330050
 Root    133 :    21.008935215036190
 Root    134 :    21.096975716266420
 Root    135 :    21.107046101108910
 Root    136 :    21.141606231138720
 Root    137 :    21.152197873165990
 Root    138 :    21.162931778014210
 Root    139 :    21.196795483030990
 Root    140 :    21.253643910105570
 Root    141 :    21.322625462021380
 Root    142 :    21.440015902765420
 Root    143 :    21.468373328706560
 Root    144 :    21.591238452491640
 Root    145 :    21.603303494059460
 Root    146 :    21.768541555586730
 Root    147 :    21.982383237708630
 Root    148 :    22.181283055407080
 Root    149 :    22.280507604619900
 Root    150 :    22.316560978946280
 Root    151 :    22.638456487619990
 Root    152 :    22.789485268831750
 Root    153 :    23.150297315137730
 Root    154 :    23.284493582717050
 Root    155 :    23.363519713323080
 Root    156 :    23.446563693190940
 Root    157 :    23.557237283585660
 Root    158 :    23.572221337830750
 Root    159 :    23.613363203642350
 Root    160 :    23.647389931675380
 Root    161 :    23.763164338664480
 Root    162 :    23.805683515827780
 Root    163 :    23.812941408455090
 Root    164 :    23.917794003327940
 Root    165 :    23.992287729079060
 Root    166 :    24.160021646315980
 Root    167 :    24.167972189548980
 Root    168 :    24.285085770235360
 Root    169 :    24.372953655976720
 Root    170 :    24.412491777234790
 Root    171 :    24.473153973244170
 Root    172 :    24.550528968631590
 Root    173 :    24.581840772447390
 Root    174 :    24.646266837843570
 Root    175 :    24.658814290940690
 Root    176 :    24.904728315956940
 Root    177 :    24.942934103728080
 Root    178 :    24.968021414729020
 Root    179 :    25.204492927592720
 Root    180 :    25.313403768991960
 Root    181 :    25.554853435335860
 Root    182 :    25.753135547538270
 Root    183 :    26.011230649779500
 Root    184 :    26.071028663284180
 Root    185 :    26.090149111036650
 Root    186 :    26.204434652840530
 Root    187 :    26.265276033536780
 Root    188 :    26.304755881926430
 Root    189 :    26.387775893436640
 Root    190 :    26.565187724046440
 Root    191 :    26.706825636097810
 Root    192 :    26.745559557765350
 Root    193 :    26.787217346440800
 Root    194 :    26.867380773292300
 Root    195 :    26.943873942341060
 Root    196 :    27.009985818232770
 Root    197 :    27.045965689653180
 Root    198 :    27.208902488622030
 Root    199 :    27.297937142289960
 Root    200 :    27.358940811055360
 Root    201 :    27.433986734359130
 Root    202 :    27.545639247066150
 Root    203 :    27.614940158556990
 Root    204 :    27.686674923002990
 Root    205 :    27.818843575961860
 Root    206 :    27.933790419810460
 Root    207 :    27.998645698188980
 Root    208 :    28.270819255446830
 Root    209 :    28.431377506932380
 Root    210 :    28.463968876596370
 Root    211 :    28.582464364260730
 Root    212 :    28.803518234667030
 Root    213 :    28.946318848916500
 Root    214 :    29.095037085600130
 Root    215 :    29.126708077436180
 Root    216 :    29.131740859704180
 Root    217 :    29.261835471156150
 Root    218 :    29.436443089573460
 Root    219 :    29.458565595062090
 Root    220 :    29.509779547468130
 Root    221 :    29.545575545266430
 Root    222 :    29.563368846367950
 Root    223 :    29.723339317776890
 Root    224 :    29.741772759519780
 Root    225 :    29.795918645115830
 Root    226 :    29.881452707902160
 Root    227 :    29.887239937190570
 Root    228 :    29.904429458083700
 Root    229 :    30.013162972965250
 Root    230 :    30.029093013577110
 Root    231 :    30.108717383002240
 Root    232 :    30.346612496490300
 Root    233 :    30.399988558524460
 Root    234 :    30.421988852048020
 Root    235 :    30.543955067895890
 Root    236 :    30.595256635536320
 Root    237 :    30.704947845206120
 Root    238 :    30.735761091335830
 Root    239 :    30.780209290679360
 Root    240 :    30.797893966010260
 Root    241 :    31.039254651769260
 Root    242 :    31.050374918980990
 Root    243 :    31.099852941639610
 Root    244 :    31.156806641848990
 Root    245 :    31.243186230757470
 Root    246 :    31.291791349346460
 Root    247 :    31.297650431667100
 Root    248 :    31.398869871291270
 Root    249 :    31.782837139205640
 Root    250 :    31.822768278871100
 Root    251 :    32.379934459134450
 Root    252 :    32.381525698230590
 Root    253 :    32.439147348458680
 Root    254 :    32.524647229758370
 Root    255 :    32.529212390979080
 Root    256 :    32.702426130650860
 Root    257 :    32.851993852199930
 Root    258 :    32.964743829294730
 Root    259 :    32.988487729390630
 Root    260 :    33.071681104730630
 Root    261 :    33.193197086679950
 Root    262 :    33.217925582134800
 Root    263 :    33.224119005564370
 Root    264 :    33.237398675370550
 Root    265 :    33.280927066807240
 Root    266 :    33.346782913465030
 Root    267 :    33.357756475734110
 Root    268 :    33.369297954573160
 Root    269 :    33.389890464982850
 Root    270 :    33.417067133138420
 Root    271 :    33.531423127808150
 Root    272 :    33.544794611714520
 Root    273 :    33.558524000930880
 Root    274 :    33.653239003675510
 Root    275 :    33.692505789111070
 Root    276 :    33.775531190100660
 Root    277 :    33.998053509283100
 Root    278 :    34.034232735082570
 Root    279 :    34.140873329615520
 Root    280 :    34.216954504811480
 Root    281 :    34.234331947939220
 Root    282 :    34.371155846403590
 Root    283 :    34.398218906591900
 Root    284 :    34.484340550298520
 Root    285 :    34.520912485410870
 Root    286 :    34.530125107078490
 Root    287 :    34.532276329487010
 Root    288 :    34.727481543566300
 Root    289 :    34.902242063630470
 Root    290 :    34.953263838660340
 Root    291 :    34.977526243310720
 Root    292 :    35.055051767250490
 Root    293 :    35.088686488309570
 Root    294 :    35.246172223236660
 Root    295 :    35.285361668434270
 Root    296 :    35.312864903366150
 Root    297 :    35.336290739987990
 Root    298 :    35.449545748415760
 Root    299 :    35.476725905130200
 Root    300 :    35.601244257806390
 Root    301 :    35.629245736989850
 Root    302 :    35.767327185958190
 Root    303 :    35.866152396260280
 Root    304 :    36.075909297649600
 Root    305 :    36.180804926597870
 Root    306 :    36.371146746448760
 Root    307 :    36.735784577462070
 Root    308 :    36.811285168511740
 Root    309 :    36.838239323093530
 Root    310 :    36.910849777070780
 Root    311 :    36.981206457485780
 Root    312 :    37.008198006792550
 Root    313 :    37.154201552246790
 Root    314 :    37.177816808615940
 Root    315 :    37.206524345054450
 Root    316 :    37.242121193244050
 Root    317 :    37.261701116474730
 Root    318 :    37.356375358187840
 Root    319 :    37.518175258797430
 Root    320 :    37.539220999227950
 Root    321 :    37.589326944708230
 Root    322 :    37.871432692293340
 Root    323 :    37.912127897995430
 Root    324 :    37.941818815174590
 Root    325 :    38.072842678446070
 Root    326 :    38.182064973319270
 Root    327 :    38.188918850736110
 Root    328 :    38.268852060433150
 Root    329 :    38.412579264516300
 Root    330 :    38.776097751930330
 Root    331 :    38.811404325319450
 Root    332 :    38.860426098964800
 Root    333 :    38.933577504630500
 Root    334 :    38.949558316167860
 Root    335 :    38.988521534271020
 Root    336 :    39.035256254479080
 Root    337 :    39.043733813068250
 Root    338 :    39.110163383175780
 Root    339 :    39.152388217181890
 Root    340 :    39.440933070093190
 Root    341 :    39.717299335947930
 Root    342 :    39.927529810718860
 Root    343 :    40.120419612664490
 Root    344 :    40.126071520854480
 Root    345 :    40.605895565284890
 Root    346 :    40.625042860693820
 Root    347 :    40.859360423783240
 Root    348 :    40.868070716595850
 Root    349 :    41.116454944996570
 Root    350 :    41.299582470884420
 Root    351 :    41.328509090279220
 Root    352 :    41.368316505006570
 Root    353 :    41.483477360651700
 Root    354 :    41.489033834374550
 Root    355 :    41.645093518360870
 Root    356 :    41.971273622613080
 Root    357 :    42.147683485627970
 Root    358 :    42.399377546824430
 Root    359 :    42.413032879436740
 Root    360 :    42.824120285448980
 Root    361 :    42.910229388922970
 Root    362 :    42.936900142198620
 Root    363 :    43.121316100952040
 Root    364 :    43.137947055834760
 Root    365 :    44.483615245672570
 Root    366 :    44.710346145559560
 Root    367 :    44.937399975988160
 Root    368 :    45.585922334601020
 Root    369 :    45.889781095731370
 Root    370 :    45.932296246337110
 Root    371 :    46.744128215191450
 Root    372 :    47.188995059904180
 Root    373 :    47.233570788230770
 Root    374 :    47.637732400846760
 Root    375 :    47.745078097187130
 Root    376 :    47.790330434536610
 Root    377 :    48.116977240070710
 Root    378 :    48.553180109769480
 Root    379 :    48.560128600492950
 Root    380 :    48.886846726592880
 Root    381 :    48.963397940700340
 Root    382 :    49.145367081912480
 Root    383 :    49.230575618928920
 Root    384 :    49.335312448388730
 Root    385 :    49.565730288479740
 Root    386 :    49.624941312818750
 Root    387 :    49.723062955514330
 Root    388 :    50.004761921305000
 Root    389 :    50.147504515427040
 Root    390 :    50.344211635789790
 Root    391 :    50.506573616057380
 Root    392 :    50.510363996156320
 Root    393 :    50.513720270003370
 Root    394 :    50.800329494788270
 Root    395 :    50.973739883459090
 Root    396 :    51.190842241823930
 Root    397 :    51.335449169742030
 Root    398 :    51.771260535491910
 Root    399 :    51.781988877819640
 Root    400 :    52.024668514655590
 Root    401 :    52.044631208533070
 Root    402 :    52.099163004198200
 Root    403 :    52.453877273052260
 Root    404 :    52.523833413611730
 Root    405 :    52.539508240253080
 Root    406 :    52.647658352529980
 Root    407 :    52.844397979212780
 Root    408 :    52.988461054506870
 Root    409 :    53.141080367799200
 Root    410 :    53.216673127372940
 Root    411 :    53.290958942794520
 Root    412 :    53.335904165698420
 Root    413 :    53.430673969976210
 Root    414 :    53.631569254126480
 Root    415 :    53.780521691472370
 Root    416 :    54.473239795098010
 Root    417 :    54.566428830686450
 Root    418 :    54.739601616767050
 Root    419 :    54.917624643256210
 Root    420 :    55.079264600376960
 Root    421 :    55.113271490238450
 Root    422 :    55.273131185547960
 Root    423 :    55.275604828802010
 Root    424 :    55.301873586357740
 Root    425 :    55.311939179103770
 Root    426 :    55.381091371926690
 Root    427 :    55.576700231883050
 Root    428 :    55.630862390869530
 Root    429 :    55.697708791654090
 Root    430 :    55.734819124042050
 Root    431 :    55.877132668030650
 Root    432 :    56.055777460294660
 Root    433 :    56.532840111329060
 Root    434 :    56.648149480778090
 Root    435 :    56.734259799865510
 Root    436 :    56.746633640621690
 Root    437 :    57.030916648477740
 Root    438 :    57.051547893386620
 Root    439 :    57.166397487197320
 Root    440 :    57.197711573105040
 Root    441 :    57.212768141149300
 Root    442 :    57.497949226118980
 Root    443 :    57.653940190789750
 Root    444 :    58.649335084306070
 Root    445 :    58.656571028015990
 Root    446 :    58.740164518955840
 Root    447 :    58.762943053447290
 Root    448 :    58.842916345157900
 Root    449 :    59.106005466580630
 Root    450 :    59.198618822238160
 Root    451 :    59.230820231694860
 Root    452 :    59.540748184102470
 Root    453 :    59.684259039119720
 Root    454 :    59.906442549459480
 Root    455 :    60.022929162625050
 Root    456 :    60.104039871105480
 Root    457 :    60.536910534280290
 Root    458 :    60.934166850886510
 Root    459 :    60.986203082202070
 Root    460 :    61.174714156704100
 Root    461 :    61.200264256604160
 Root    462 :    61.323916674956010
 Root    463 :    61.403663753938780
 Root    464 :    61.830565611985800
 Root    465 :    62.047330018989210
 Root    466 :    62.552181874905150
 Root    467 :    62.664613499342320
 Root    468 :    62.845334065756890
 Root    469 :    62.969191513058210
 Root    470 :    63.063400912776710
 Root    471 :    63.120613688770880
 Root    472 :    63.288124439592450
 Root    473 :    63.711783085281800
 Root    474 :    63.960025094393440
 Root    475 :    64.040952918750510
 Root    476 :    64.084467448596110
 Root    477 :    64.168335267957630
 Root    478 :    64.290531459323060
 Root    479 :    64.746107572297150
 Root    480 :    65.018488103538200
 Root    481 :    65.232610381038000
 Root    482 :    65.339223653181090
 Root    483 :    65.629541719459080
 Root    484 :    66.492801040576620
 Root    485 :    66.513574187229540
 Root    486 :    66.600182825111620
 Root    487 :    66.656393679056320
 Root    488 :    67.067646557653290
 Root    489 :    67.087568621295150
 Root    490 :    67.288308726502950
 Root    491 :    67.324570606202090
 Root    492 :    67.410545326105110
 Root    493 :    67.466200983387050
 Root    494 :    67.595501283248230
 Root    495 :    67.707253855891920
 Root    496 :    67.959735072955610
 Root    497 :    68.000570338318180
 Root    498 :    68.250169311225120
 Root    499 :    68.671341901954510
 Root    500 :    68.680114441068440
 Root    501 :    68.964860095587870
 Root    502 :    69.203752950861160
 Root    503 :    69.324203185272220
 Root    504 :    69.332741407813050
 Root    505 :    69.419353946578060
 Root    506 :    69.529195489143500
 Root    507 :    69.541410986304410
 Root    508 :    70.195176779078380
 Root    509 :    70.241486812989440
 Root    510 :    70.359271419909630
 Root    511 :    70.636032561960140
 Root    512 :    70.875187306708570
 Root    513 :    71.026754771079400
 Root    514 :    71.048617869502350
 Root    515 :    71.245095977126580
 Root    516 :    71.304001621682730
 Root    517 :    71.378968619616510
 Root    518 :    71.422025327619290
 Root    519 :    71.448081498449840
 Root    520 :    71.737640131867470
 Root    521 :    72.243873574570090
 Root    522 :    72.481030013481220
 Root    523 :    72.489275638614150
 Root    524 :    72.564999887903140
 Root    525 :    72.580050126247270
 Root    526 :    72.691846563540890
 Root    527 :    72.821759281219910
 Root    528 :    72.853441725159270
 Root    529 :    72.983940287216560
 Root    530 :    73.025205607389220
 Root    531 :    73.142873280154960
 Root    532 :    73.633058475975890
 Root    533 :    73.663613280696050
 Root    534 :    73.876832172391180
 Root    535 :    74.700417731782000
 Root    536 :    75.049186321930080
 Root    537 :    75.223071941256990
 Root    538 :    75.494518747952850
 Root    539 :    75.660951577062330
 Root    540 :    75.741078195277010
 Root    541 :    75.778232452767850
 Root    542 :    76.260555283207940
 Root    543 :    76.528688576206790
 Root    544 :    76.598164749641060
 Root    545 :    76.625326483970870
 Root    546 :    76.729838514218570
 Root    547 :    78.616764784692260
 Root    548 :    78.650340400997370
 Root    549 :    79.121847847844080
 Root    550 :    80.159232468739400
 Root    551 :    80.210249655858870
 Root    552 :    81.218851560325120
 Root    553 :    81.798704917533040
 Root    554 :    82.660211029428150
 Root    555 :    82.665867831335860
 Root    556 :    82.867500997786350
 Root    557 :    83.086174583750480
 Root    558 :    83.711966113364000
 Root    559 :    84.255342850718050
 Root    560 :    84.381296227011280
 Root    561 :    84.592664290480880
 Root    562 :    84.831938159306050
 Root    563 :    84.898776584365520
 Root    564 :    85.329957328727030
 Root    565 :    86.525682719888100
 Root    566 :    87.253545588117480
 Root    567 :    87.995523115652870
 Root    568 :    88.264827309366690
 Root    569 :    88.346695275598850
 Root    570 :    88.364997934266600
 Root    571 :    88.366724599698070
 Root    572 :    88.445893780989070
 Root    573 :    88.652373383541940
 Root    574 :    89.319867385690030
 Root    575 :    89.680512127507240
 Root    576 :    91.512492155470650
 Root    577 :    91.813318560887640
 Root    578 :    91.863900941171150
 Root    579 :    91.949441168497030
 Root    580 :    91.949616066007710
 Root    581 :    92.154516036504830
 Root    582 :    92.438731345696880
 Root    583 :    92.865603482641350
 Root    584 :    93.141235046573880
 Root    585 :    94.372787139114270
 Root    586 :    95.562028240427490
 Root    587 :    95.566955067700020
 Root    588 :    96.425474484830730
 Root    589 :    96.801507502484810
 Root    590 :    97.429355644717120
 Root    591 :    97.465124895629670
 Root    592 :    97.504516085852810
 Root    593 :    97.601597730723260
 Root    594 :    97.770149339938670
 Root    595 :    98.031995572630810
 Root    596 :    98.158212992187130
 Root    597 :    98.181006378583670
 Root    598 :    98.595334975598720
 Root    599 :    98.772761795394170
 Root    600 :    98.821491767599890
 Root    601 :    98.963259476827570
 Root    602 :    99.061995393198170
 Root    603 :    99.581844199217760
 Root    604 :    99.990939942282280
 Root    605 :   100.517537714740900
 Root    606 :   100.553825569573000
 Root    607 :   100.605062276940000
 Root    608 :   100.722866726203900
 Root    609 :   101.021055124866500
 Root    610 :   101.028925148835500
 Root    611 :   101.289163620184800
 Root    612 :   101.346919418412000
 Root    613 :   101.617298122128300
 Root    614 :   101.623036792363200
 Root    615 :   101.714280612790600
 Root    616 :   101.902865476852900
 Root    617 :   102.319245401498800
 Root    618 :   102.405013063713300
 Root    619 :   102.692350575552300
 Root    620 :   102.777330971561200
 Root    621 :   102.798606683593200
 Root    622 :   102.910999048102400
 Root    623 :   103.011971359931700
 Root    624 :   103.063829423418700
 Root    625 :   103.465545953891500
 Root    626 :   103.752964348568100
 Root    627 :   103.761025425144700
 Root    628 :   103.881130172467600
 Root    629 :   103.903336395794200
 Root    630 :   104.560670522497800
 Root    631 :   104.666279386323300
 Root    632 :   105.111834990556700
 Root    633 :   105.432654494481500
 Root    634 :   105.453108485909600
 Root    635 :   105.647498053915700
 Root    636 :   105.667156996338000
 Root    637 :   106.060397572787400
 Root    638 :   106.134098384411300
 Root    639 :   106.245942884157600
 Root    640 :   106.586011389772000
 Root    641 :   106.729407433649100
 Root    642 :   106.826820583748800
 Root    643 :   107.735525182344200
 Root    644 :   107.956648146894100
 Root    645 :   108.110377212769700
 Root    646 :   108.154475151011700
 Root    647 :   108.258593693861000
 Root    648 :   108.678579576283200
 Root    649 :   109.106866656858400
 Root    650 :   109.590144778360500
 Root    651 :   109.890731361373600
 Root    652 :   110.034701233422700
 Root    653 :   110.837314538655000
 Root    654 :   111.361836901484200
 Root    655 :   111.972467467318000
 Root    656 :   111.988212269831900
 Root    657 :   112.436298957754800
 Root    658 :   113.350757977787200
 Root    659 :   114.219200963968400
 Root    660 :   114.419252771494700
 Root    661 :   114.619200119922300
 Root    662 :   115.022200401019100
 Root    663 :   116.010097706901400
 Root    664 :   116.435137347342000
 Root    665 :   116.611144391311000
 Root    666 :   117.903033347495500
 Root    667 :   118.004206938191500
 Root    668 :   118.144425108469600
 Root    669 :   118.292966220862900
 Root    670 :   118.739518578206000
 Root    671 :   118.803920337956100
 Root    672 :   119.012951936708300
 Root    673 :   119.140421291139800
 Root    674 :   119.561078616561200
 Root    675 :   120.413022947891200
 Root    676 :   120.913854747540300
 Root    677 :   120.949692077693800
 Root    678 :   121.183864664668900
 Root    679 :   121.215618155065500
 Root    680 :   121.553642739754600
 Root    681 :   122.354133063574600
 Root    682 :   122.519839889285300
 Root    683 :   124.192428907091800
 Root    684 :   125.447799786933500
 Root    685 :   126.110880510516400
 Root    686 :   127.566136977622400
 Root    687 :   131.230023736856200
 Root    688 :   132.621718467459900
 Root    689 :   134.691577271742500
 Root    690 :   136.022373434703700
 Convergence achieved for final wavefunctions.
 ***********************************************************************
 Excited states from <AA,BB:AA,BB> singles matrix:
 ***********************************************************************
 
 1PDM for each excited state written to RWF  633
 Ground to excited state transition densities written to RWF  633
 Ground to excited state transition electric dipole moments (Au):
       state          X           Y           Z        Dip. S.      Osc.
         1        -0.2909      0.0000      0.0000      0.0846      0.0171
         2         0.0000      0.0000      0.0000      0.0000      0.0000
         3         0.3100     -0.0000     -0.0000      0.0961      0.0226
         4         0.0000      0.3786      0.0000      0.1434      0.0340
         5         0.0000     -0.0000     -0.4698      0.2207      0.0527
         6         0.0000     -0.0000      0.0000      0.0000      0.0000
         7         0.0000     -0.0000     -0.1179      0.0139      0.0035
         8        -0.0000     -0.0000      0.2078      0.0432      0.0114
         9         0.0000      0.0000      0.0000      0.0000      0.0000
        10         0.2340     -0.0000      0.0000      0.0548      0.0148
        11        -0.0000     -0.0117     -0.0000      0.0001      0.0000
        12         0.4148     -0.0000      0.0000      0.1721      0.0468
        13         0.0000     -0.4793     -0.0000      0.2297      0.0639
        14        -0.3884      0.0000      0.0000      0.1509      0.0424
        15        -0.0000      0.0000      0.0000      0.0000      0.0000
        16        -0.0000     -0.0000      0.6206      0.3852      0.1083
        17         0.0000      0.3902     -0.0000      0.1522      0.0430
        18        -0.0000      0.0000     -0.0000      0.0000      0.0000
        19         0.2336     -0.0000     -0.0000      0.0546      0.0158
        20         0.0000      0.2315     -0.0000      0.0536      0.0157
        21         0.0000      0.0000      0.4431      0.1963      0.0589
        22        -0.0000     -0.0893      0.0000      0.0080      0.0024
        23         0.0000     -0.0000      0.0000      0.0000      0.0000
        24         0.0000      0.0000     -0.0000      0.0000      0.0000
        25        -0.0000      0.0000      0.1871      0.0350      0.0110
        26         0.0000      0.0000      0.1257      0.0158      0.0050
        27        -0.1803      0.0000      0.0000      0.0325      0.0106
        28        -0.0000      0.4381      0.0000      0.1919      0.0624
        29        -0.0000     -0.0000      0.0000      0.0000      0.0000
        30        -0.0749      0.0000      0.0000      0.0056      0.0018
        31        -0.0000     -0.0216     -0.0000      0.0005      0.0002
        32        -0.0000      0.0473      0.0000      0.0022      0.0007
        33         0.0000     -0.0000      0.0000      0.0000      0.0000
        34        -0.4148      0.0000     -0.0000      0.1720      0.0577
        35         0.0000     -0.0000     -0.2433      0.0592      0.0199
        36        -0.0000      0.0000     -0.0000      0.0000      0.0000
        37        -0.0000     -0.0000     -0.1939      0.0376      0.0127
        38         0.3809     -0.0000      0.0000      0.1451      0.0488
        39        -0.1868      0.0000     -0.0000      0.0349      0.0118
        40         0.0000      0.0000     -0.0681      0.0046      0.0016
        41        -0.0000      0.1121      0.0000      0.0126      0.0044
        42        -0.0000     -0.0000      0.0447      0.0020      0.0007
        43        -0.0000     -0.1707     -0.0000      0.0291      0.0104
        44         0.4307      0.0000     -0.0000      0.1855      0.0660
        45         0.0000     -0.0000      0.0000      0.0000      0.0000
        46         0.2323     -0.0000     -0.0000      0.0540      0.0193
        47         0.0000     -0.5647     -0.0000      0.3189      0.1147
        48        -0.0000     -0.0000     -0.2571      0.0661      0.0238
        49        -0.0000      0.4315     -0.0000      0.1862      0.0683
        50        -0.0000      0.0000     -0.0000      0.0000      0.0000
        51        -0.4410     -0.0000      0.0000      0.1945      0.0716
        52         0.0000      0.0000      0.5128      0.2630      0.0973
        53        -0.3221      0.0000      0.0000      0.1038      0.0384
        54         0.0000      0.5686     -0.0000      0.3233      0.1220
        55         0.0000     -0.0000     -0.1587      0.0252      0.0095
        56        -0.0000     -0.3813     -0.0000      0.1454      0.0554
        57         0.0000      0.0000     -0.0000      0.0000      0.0000
        58        -0.0000     -0.0000      0.3682      0.1356      0.0521
        59         0.0000      0.0000      0.0000      0.0000      0.0000
        60         0.0000      0.0000      0.2916      0.0850      0.0330
        61         0.0000      0.4150      0.0000      0.1722      0.0675
        62         0.0383      0.0000     -0.0000      0.0015      0.0006
        63        -0.0000      0.0000      0.2685      0.0721      0.0288
        64         0.0000     -0.0000      0.0000      0.0000      0.0000
        65         0.0000      0.0000     -0.3173      0.1007      0.0406
        66        -0.0000     -0.2891     -0.0000      0.0836      0.0338
        67         0.5266      0.0000      0.0000      0.2773      0.1132
        68        -0.2864      0.0000     -0.0000      0.0820      0.0338
        69        -0.0000     -0.0000     -0.0618      0.0038      0.0016
        70         0.0000      0.0000      0.0000      0.0000      0.0000
        71        -0.0000     -0.0630      0.0000      0.0040      0.0017
        72         0.0000     -0.0000      0.0000      0.0000      0.0000
        73         0.0000      0.0000      0.0000      0.0000      0.0000
        74         0.0000      0.0000     -0.1164      0.0136      0.0057
        75        -0.0424      0.0000     -0.0000      0.0018      0.0008
        76         0.0000     -0.0000      0.0000      0.0000      0.0000
        77        -0.0000     -0.0000      0.0161      0.0003      0.0001
        78         0.0991      0.0000     -0.0000      0.0098      0.0041
        79         0.0000      0.4657      0.0000      0.2168      0.0916
        80         0.0000      0.0000     -0.0000      0.0000      0.0000
        81        -0.0000      0.1702     -0.0000      0.0290      0.0123
        82         0.0000      0.0000     -0.2427      0.0589      0.0250
        83         0.3920     -0.0000      0.0000      0.1536      0.0653
        84         0.0000     -0.0000     -0.3646      0.1330      0.0566
        85         0.0000     -0.2518      0.0000      0.0634      0.0271
        86        -0.0000      0.0000      0.3578      0.1280      0.0548
        87         0.1429      0.0000      0.0000      0.0204      0.0088
        88         0.0000      0.0000     -0.1790      0.0320      0.0138
        89        -0.0000     -0.3845      0.0000      0.1479      0.0638
        90        -0.3297     -0.0000     -0.0000      0.1087      0.0472
        91         0.0000     -0.1334      0.0000      0.0178      0.0078
        92         0.0000     -0.0000      0.0000      0.0000      0.0000
        93         0.0000     -0.0000      0.2355      0.0555      0.0244
        94         0.0000     -0.0000      0.0000      0.0000      0.0000
        95        -0.0000     -0.0015      0.0000      0.0000      0.0000
        96         0.0000     -0.0000      0.0000      0.0000      0.0000
        97         0.0000     -0.0000      0.5388      0.2903      0.1299
        98        -0.1575     -0.0000      0.0000      0.0248      0.0111
        99         0.0000     -0.0000     -0.3092      0.0956      0.0432
       100        -0.0000     -0.0378      0.0000      0.0014      0.0007
       101         0.0420      0.0000     -0.0000      0.0018      0.0008
       102         0.0000      0.0000      0.0000      0.0000      0.0000
       103         0.0000     -0.1580      0.0000      0.0250      0.0115
[...]
     13   0.000000D+00 -0.387174D+00  0.000000D+00  0.000000D+00  0.000000D+00
     14   0.000000D+00  0.000000D+00  0.667307D+00  0.000000D+00  0.000000D+00
     15   0.000000D+00  0.000000D+00  0.000000D+00 -0.532354D-02  0.000000D+00
     16  -0.358841D+00  0.000000D+00  0.000000D+00  0.000000D+00 -0.423837D-01
               621           622           623           624           625 
      1  -0.234974D+03 -0.234970D+03 -0.234967D+03 -0.234965D+03 -0.234950D+03
      2   0.000000D+00  0.000000D+00 -0.706828D-02  0.000000D+00 -0.188283D+00
      3   0.000000D+00  0.129959D+00  0.000000D+00  0.000000D+00  0.000000D+00
      4  -0.244082D-01  0.000000D+00  0.000000D+00  0.000000D+00  0.000000D+00
      5   0.000000D+00  0.000000D+00  0.323387D-01  0.000000D+00  0.597892D+00
      6   0.000000D+00 -0.430463D+00  0.000000D+00  0.000000D+00  0.000000D+00
      7   0.889923D-01  0.000000D+00  0.000000D+00  0.000000D+00  0.000000D+00
      8   0.000000D+00  0.880261D+00  0.000000D+00  0.000000D+00  0.000000D+00
      9   0.000000D+00  0.000000D+00 -0.218504D-01  0.000000D+00 -0.231469D+00
     10   0.000000D+00  0.000000D+00  0.000000D+00  0.667005D+00  0.000000D+00
     11   0.397312D-01  0.000000D+00  0.000000D+00  0.000000D+00  0.000000D+00
     12   0.365328D+00  0.000000D+00  0.000000D+00  0.000000D+00  0.000000D+00
     13  -0.231379D+00  0.000000D+00  0.000000D+00  0.000000D+00  0.000000D+00
     14   0.000000D+00  0.000000D+00  0.000000D+00 -0.531175D+00  0.000000D+00
     15   0.000000D+00  0.000000D+00  0.322885D-01  0.000000D+00 -0.159369D+00
     16   0.000000D+00  0.149733D+01  0.000000D+00  0.000000D+00  0.000000D+00
               626           627           628           629           630 
      1  -0.234939D+03 -0.234939D+03 -0.234935D+03 -0.234934D+03 -0.234910D+03
      2   0.000000D+00  0.375001D-01  0.000000D+00  0.000000D+00  0.000000D+00
      3   0.000000D+00  0.000000D+00  0.000000D+00  0.145052D+00 -0.202104D-01
      4   0.000000D+00  0.000000D+00  0.368715D-01  0.000000D+00  0.000000D+00
      5   0.000000D+00 -0.125774D+00  0.000000D+00  0.000000D+00  0.000000D+00
      6   0.000000D+00  0.000000D+00  0.000000D+00 -0.483953D+00  0.810207D-01
      7   0.000000D+00  0.000000D+00 -0.100020D+00  0.000000D+00  0.000000D+00
      8   0.000000D+00  0.000000D+00  0.000000D+00 -0.210100D+01 -0.298606D+00
      9   0.000000D+00  0.370299D-01  0.000000D+00  0.000000D+00  0.000000D+00
     10  -0.824611D+00  0.000000D+00  0.000000D+00  0.000000D+00  0.000000D+00
     11   0.000000D+00  0.000000D+00  0.127114D+00  0.000000D+00  0.000000D+00
     12   0.000000D+00  0.000000D+00 -0.153212D+01  0.000000D+00  0.000000D+00
     13   0.000000D+00  0.000000D+00 -0.792574D-01  0.000000D+00  0.000000D+00
     14   0.570542D+00  0.000000D+00  0.000000D+00  0.000000D+00  0.000000D+00
     15   0.000000D+00 -0.117488D+00  0.000000D+00  0.000000D+00  0.000000D+00
     16   0.000000D+00  0.000000D+00  0.000000D+00 -0.162727D+01 -0.600140D+00
               631           632           633           634           635 
      1  -0.234906D+03 -0.234889D+03 -0.234878D+03 -0.234877D+03 -0.234870D+03
      2   0.000000D+00 -0.266273D+00  0.000000D+00  0.000000D+00  0.000000D+00
      3   0.000000D+00  0.000000D+00  0.000000D+00 -0.675647D-01  0.000000D+00
      4  -0.173791D+00  0.000000D+00  0.000000D+00  0.000000D+00  0.000000D+00
      5   0.000000D+00  0.902761D+00  0.000000D+00  0.000000D+00  0.000000D+00
      6   0.000000D+00  0.000000D+00  0.000000D+00  0.234792D+00  0.000000D+00
      7   0.588391D+00  0.000000D+00  0.000000D+00  0.000000D+00  0.000000D+00
      8   0.000000D+00  0.000000D+00  0.000000D+00  0.161431D+01  0.000000D+00
      9   0.000000D+00 -0.503646D+00  0.000000D+00  0.000000D+00  0.000000D+00
     10   0.000000D+00  0.000000D+00 -0.186406D+00  0.000000D+00 -0.521711D+00
     11  -0.825483D-01  0.000000D+00  0.000000D+00  0.000000D+00  0.000000D+00
     12  -0.748978D+00  0.000000D+00  0.000000D+00  0.000000D+00  0.000000D+00
     13  -0.582479D+00  0.000000D+00  0.000000D+00  0.000000D+00  0.000000D+00
     14   0.000000D+00  0.000000D+00 -0.147154D-01  0.000000D+00  0.589431D+00
     15   0.000000D+00 -0.295202D+00  0.000000D+00  0.000000D+00  0.000000D+00
     16   0.000000D+00  0.000000D+00  0.000000D+00  0.164971D+01  0.000000D+00
               636           637           638           639           640 
      1  -0.234869D+03 -0.234855D+03 -0.234852D+03 -0.234848D+03 -0.234835D+03
      2   0.000000D+00  0.000000D+00  0.000000D+00  0.000000D+00  0.416246D-01
      3   0.000000D+00 -0.303359D-03  0.000000D+00  0.000000D+00  0.000000D+00
      4  -0.254220D+00  0.000000D+00  0.300483D-01  0.000000D+00  0.000000D+00
      5   0.000000D+00  0.000000D+00  0.000000D+00  0.000000D+00 -0.109186D+00
      6   0.000000D+00 -0.153375D-01  0.000000D+00  0.000000D+00  0.000000D+00
      7   0.852052D+00  0.000000D+00 -0.984319D-01  0.000000D+00  0.000000D+00
      8   0.000000D+00  0.113815D+01  0.000000D+00  0.000000D+00  0.000000D+00
      9   0.000000D+00  0.000000D+00  0.000000D+00  0.000000D+00 -0.449592D-01
     10   0.000000D+00  0.000000D+00  0.000000D+00  0.193597D+01  0.000000D+00
     11  -0.279957D-01  0.000000D+00  0.320109D-01  0.000000D+00  0.000000D+00
     12   0.526872D+01  0.000000D+00  0.461009D+00  0.000000D+00  0.000000D+00
     13  -0.627338D+00  0.000000D+00 -0.303562D+00  0.000000D+00  0.000000D+00
     14   0.000000D+00  0.000000D+00  0.000000D+00 -0.205425D+01  0.000000D+00
     15   0.000000D+00  0.000000D+00  0.000000D+00  0.000000D+00  0.187714D+00
     16   0.000000D+00  0.135633D+01  0.000000D+00  0.000000D+00  0.000000D+00
               641           642           643           644           645 
      1  -0.234830D+03 -0.234826D+03 -0.234793D+03 -0.234785D+03 -0.234779D+03
      2   0.000000D+00  0.000000D+00 -0.125763D+00  0.000000D+00  0.000000D+00
      3   0.222236D+00  0.000000D+00  0.000000D+00  0.000000D+00  0.000000D+00
      4   0.000000D+00  0.128045D-01  0.000000D+00  0.000000D+00  0.000000D+00
      5   0.000000D+00  0.000000D+00  0.440311D+00  0.000000D+00  0.000000D+00
      6  -0.763918D+00  0.000000D+00  0.000000D+00  0.000000D+00  0.000000D+00
      7   0.000000D+00 -0.290765D-01  0.000000D+00  0.000000D+00  0.000000D+00
      8  -0.154746D+01  0.000000D+00  0.000000D+00  0.000000D+00  0.000000D+00
      9   0.000000D+00  0.000000D+00 -0.313996D+00  0.000000D+00  0.000000D+00
     10   0.000000D+00  0.000000D+00  0.000000D+00 -0.472379D+00 -0.296667D+01
     11   0.000000D+00 -0.303236D+00  0.000000D+00  0.000000D+00  0.000000D+00
     12   0.000000D+00 -0.790910D+00  0.000000D+00  0.000000D+00  0.000000D+00
     13   0.000000D+00  0.197346D+00  0.000000D+00  0.000000D+00  0.000000D+00
     14   0.000000D+00  0.000000D+00  0.000000D+00  0.731975D+00  0.301910D+01
     15   0.000000D+00  0.000000D+00 -0.399695D+00  0.000000D+00  0.000000D+00
     16  -0.635936D+00  0.000000D+00  0.000000D+00  0.000000D+00  0.000000D+00
               646           647           648           649           650 
      1  -0.234778D+03 -0.234774D+03 -0.234758D+03 -0.234743D+03 -0.234725D+03
      2   0.000000D+00  0.000000D+00  0.139105D+00 -0.352283D-02  0.544570D-01
      3   0.000000D+00 -0.371600D+00  0.000000D+00  0.000000D+00  0.000000D+00
      4   0.470846D+00  0.000000D+00  0.000000D+00  0.000000D+00  0.000000D+00
      5   0.000000D+00  0.000000D+00 -0.466397D+00 -0.767790D-02 -0.167653D+00
      6   0.000000D+00  0.133032D+01  0.000000D+00  0.000000D+00  0.000000D+00
      7  -0.165191D+01  0.000000D+00  0.000000D+00  0.000000D+00  0.000000D+00
      8   0.000000D+00 -0.311655D+00  0.000000D+00  0.000000D+00  0.000000D+00
      9   0.000000D+00  0.000000D+00  0.390339D+00 -0.819423D-02 -0.149210D+00
     10   0.000000D+00  0.000000D+00  0.000000D+00  0.000000D+00  0.000000D+00
     11   0.871208D-01  0.000000D+00  0.000000D+00  0.000000D+00  0.000000D+00
     12   0.137554D+01  0.000000D+00  0.000000D+00  0.000000D+00  0.000000D+00
     13   0.195229D+01  0.000000D+00  0.000000D+00  0.000000D+00  0.000000D+00
     14   0.000000D+00  0.000000D+00  0.000000D+00  0.000000D+00  0.000000D+00
     15   0.000000D+00  0.000000D+00  0.442290D+00 -0.866395D-01 -0.168155D-01
     16   0.000000D+00 -0.178709D+01  0.000000D+00  0.000000D+00  0.000000D+00
               651           652           653           654           655 
      1  -0.234714D+03 -0.234709D+03 -0.234679D+03 -0.234660D+03 -0.234637D+03
      2   0.000000D+00  0.000000D+00  0.000000D+00 -0.526571D+00  0.000000D+00
      3   0.000000D+00  0.149536D+00  0.000000D+00  0.000000D+00  0.000000D+00
      4   0.947354D-01  0.000000D+00  0.000000D+00  0.000000D+00 -0.272880D-01
      5   0.000000D+00  0.000000D+00  0.000000D+00  0.188891D+01  0.000000D+00
      6   0.000000D+00 -0.535127D+00  0.000000D+00  0.000000D+00  0.000000D+00
      7  -0.338078D+00  0.000000D+00  0.000000D+00  0.000000D+00  0.682240D-01
      8   0.000000D+00 -0.131008D+01  0.000000D+00  0.000000D+00  0.000000D+00
      9   0.000000D+00  0.000000D+00  0.000000D+00 -0.885806D+00  0.000000D+00
     10   0.000000D+00  0.000000D+00  0.228533D+00  0.000000D+00  0.000000D+00
     11  -0.107664D+00  0.000000D+00  0.000000D+00  0.000000D+00 -0.552744D-01
     12  -0.305555D+01  0.000000D+00  0.000000D+00  0.000000D+00  0.451168D+01
     13   0.739961D+00  0.000000D+00  0.000000D+00  0.000000D+00 -0.110610D+00
     14   0.000000D+00  0.000000D+00 -0.417923D+00  0.000000D+00  0.000000D+00
     15   0.000000D+00  0.000000D+00  0.000000D+00 -0.117085D+01  0.000000D+00
     16   0.000000D+00 -0.648013D+00  0.000000D+00  0.000000D+00  0.000000D+00
               656           657           658           659           660 
      1  -0.234637D+03 -0.234620D+03 -0.234587D+03 -0.234555D+03 -0.234547D+03
      2   0.000000D+00  0.000000D+00  0.000000D+00  0.000000D+00 -0.674156D-01
      3   0.000000D+00 -0.123961D+00  0.000000D+00  0.000000D+00  0.000000D+00
      4   0.000000D+00  0.000000D+00 -0.564853D-01  0.000000D+00  0.000000D+00
      5   0.000000D+00  0.000000D+00  0.000000D+00  0.000000D+00  0.246720D+00
      6   0.000000D+00  0.446075D+00  0.000000D+00  0.000000D+00  0.000000D+00
      7   0.000000D+00  0.000000D+00  0.161179D+00  0.000000D+00  0.000000D+00
      8   0.000000D+00  0.333472D+01  0.000000D+00  0.000000D+00  0.000000D+00
      9   0.000000D+00  0.000000D+00  0.000000D+00  0.000000D+00  0.325323D-01
     10  -0.109611D+01  0.000000D+00  0.000000D+00  0.419805D+01  0.000000D+00
     11   0.000000D+00  0.000000D+00 -0.224775D-01  0.000000D+00  0.000000D+00
     12   0.000000D+00  0.000000D+00  0.264243D+01  0.000000D+00  0.000000D+00
     13   0.000000D+00  0.000000D+00 -0.292866D+00  0.000000D+00  0.000000D+00
     14   0.126409D+01  0.000000D+00  0.000000D+00 -0.454195D+01  0.000000D+00
     15   0.000000D+00  0.000000D+00  0.000000D+00  0.000000D+00  0.747227D-01
     16   0.000000D+00  0.283845D+01  0.000000D+00  0.000000D+00  0.000000D+00
               661           662           663           664           665 
      1  -0.234540D+03 -0.234525D+03 -0.234489D+03 -0.234473D+03 -0.234467D+03
      2   0.000000D+00  0.000000D+00  0.487586D+00  0.000000D+00  0.000000D+00
      3   0.000000D+00  0.123515D+00  0.000000D+00  0.000000D+00  0.457145D+00
      4  -0.742338D-01  0.000000D+00  0.000000D+00  0.479148D+00  0.000000D+00
      5   0.000000D+00  0.000000D+00 -0.183885D+01  0.000000D+00  0.000000D+00
      6   0.000000D+00 -0.438596D+00  0.000000D+00  0.000000D+00 -0.176092D+01
      7   0.273815D+00  0.000000D+00  0.000000D+00 -0.182184D+01  0.000000D+00
      8   0.000000D+00 -0.251435D+01  0.000000D+00  0.000000D+00 -0.149119D+01
      9   0.000000D+00  0.000000D+00  0.102718D+01  0.000000D+00  0.000000D+00
     10   0.000000D+00  0.000000D+00  0.000000D+00  0.000000D+00  0.000000D+00
     11  -0.124759D-01  0.000000D+00  0.000000D+00 -0.701113D-01  0.000000D+00
     12   0.318388D+01  0.000000D+00  0.000000D+00 -0.351302D+01  0.000000D+00
     13  -0.251447D+00  0.000000D+00  0.000000D+00  0.247435D+01  0.000000D+00
     14   0.000000D+00  0.000000D+00  0.000000D+00  0.000000D+00  0.000000D+00
     15   0.000000D+00  0.000000D+00  0.129272D+01  0.000000D+00  0.000000D+00
     16   0.000000D+00 -0.240315D+01  0.000000D+00  0.000000D+00  0.186135D+00
               666           667           668           669           670 
      1  -0.234419D+03 -0.234416D+03 -0.234411D+03 -0.234405D+03 -0.234389D+03
      2   0.000000D+00  0.000000D+00  0.000000D+00  0.518562D-02  0.000000D+00
      3   0.000000D+00  0.000000D+00  0.000000D+00  0.000000D+00  0.000000D+00
      4  -0.578567D-01  0.000000D+00  0.696645D-01  0.000000D+00 -0.751066D-01
      5   0.000000D+00  0.000000D+00  0.000000D+00 -0.178908D-01  0.000000D+00
      6   0.000000D+00  0.000000D+00  0.000000D+00  0.000000D+00  0.000000D+00
      7   0.217633D+00  0.000000D+00 -0.219850D+00  0.000000D+00  0.274385D+00
      8   0.000000D+00  0.000000D+00  0.000000D+00  0.000000D+00  0.000000D+00
      9   0.000000D+00  0.000000D+00  0.000000D+00 -0.176631D-01  0.000000D+00
     10   0.000000D+00 -0.182879D+01  0.000000D+00  0.000000D+00  0.000000D+00
     11   0.330749D+00  0.000000D+00 -0.355951D-02  0.000000D+00 -0.467442D+00
     12   0.233967D+00  0.000000D+00  0.144868D+01  0.000000D+00  0.123777D+00
     13  -0.370620D-01  0.000000D+00 -0.403031D+00  0.000000D+00  0.411805D+00
     14   0.000000D+00  0.213797D+01  0.000000D+00  0.000000D+00  0.000000D+00
     15   0.000000D+00  0.000000D+00  0.000000D+00  0.409936D+00  0.000000D+00
     16   0.000000D+00  0.000000D+00  0.000000D+00  0.000000D+00  0.000000D+00
               671           672           673           674           675 
      1  -0.234386D+03 -0.234379D+03 -0.234374D+03 -0.234358D+03 -0.234327D+03
      2   0.000000D+00  0.000000D+00  0.000000D+00  0.000000D+00  0.000000D+00
      3   0.214315D+00  0.000000D+00  0.497707D-01 -0.520927D-01  0.000000D+00
      4   0.000000D+00  0.000000D+00  0.000000D+00  0.000000D+00  0.000000D+00
      5   0.000000D+00  0.000000D+00  0.000000D+00  0.000000D+00  0.000000D+00
      6  -0.864138D+00  0.000000D+00 -0.188099D+00  0.182051D+00  0.000000D+00
      7   0.000000D+00  0.000000D+00  0.000000D+00  0.000000D+00  0.000000D+00
      8   0.219720D+01  0.000000D+00 -0.612555D+00  0.631732D+00  0.000000D+00
      9   0.000000D+00  0.000000D+00  0.000000D+00  0.000000D+00  0.000000D+00
     10   0.000000D+00  0.441503D+00  0.000000D+00  0.000000D+00 -0.203524D+00
     11   0.000000D+00  0.000000D+00  0.000000D+00  0.000000D+00  0.000000D+00
     12   0.000000D+00  0.000000D+00  0.000000D+00  0.000000D+00  0.000000D+00
     13   0.000000D+00  0.000000D+00  0.000000D+00  0.000000D+00  0.000000D+00
     14   0.000000D+00 -0.439585D+00  0.000000D+00  0.000000D+00  0.523468D+00
     15   0.000000D+00  0.000000D+00  0.000000D+00  0.000000D+00  0.000000D+00
     16   0.278881D+01  0.000000D+00 -0.402367D+00  0.272450D+00  0.000000D+00
               676           677           678           679           680 
      1  -0.234309D+03 -0.234307D+03 -0.234299D+03 -0.234298D+03 -0.234285D+03
      2   0.000000D+00  0.000000D+00  0.000000D+00  0.417378D-01  0.000000D+00
      3   0.000000D+00 -0.340712D-01  0.000000D+00  0.000000D+00  0.000000D+00
      4   0.248656D+00  0.000000D+00  0.000000D+00  0.000000D+00 -0.404027D-03
      5   0.000000D+00  0.000000D+00  0.000000D+00 -0.148565D+00  0.000000D+00
      6   0.000000D+00  0.132763D+00  0.000000D+00  0.000000D+00  0.000000D+00
      7  -0.107964D+01  0.000000D+00  0.000000D+00  0.000000D+00  0.483045D-02
      8   0.000000D+00  0.205019D+00  0.000000D+00  0.000000D+00  0.000000D+00
      9   0.000000D+00  0.000000D+00  0.000000D+00  0.223554D-01  0.000000D+00
     10   0.000000D+00  0.000000D+00  0.391580D+00  0.000000D+00  0.000000D+00
     11  -0.185658D+00  0.000000D+00  0.000000D+00  0.000000D+00  0.934348D+00
     12   0.740878D+01  0.000000D+00  0.000000D+00  0.000000D+00 -0.465631D+00
     13   0.128552D+01  0.000000D+00  0.000000D+00  0.000000D+00 -0.650955D+00
     14   0.000000D+00  0.000000D+00  0.299515D+00  0.000000D+00  0.000000D+00
     15   0.000000D+00  0.000000D+00  0.000000D+00 -0.693815D+00  0.000000D+00
     16   0.000000D+00  0.499064D+00  0.000000D+00  0.000000D+00  0.000000D+00
               681           682           683           684           685 
      1  -0.234256D+03 -0.234250D+03 -0.234188D+03 -0.234142D+03 -0.234118D+03
      2   0.563461D-01  0.000000D+00  0.100992D+00  0.000000D+00  0.000000D+00
      3   0.000000D+00 -0.196858D+00  0.000000D+00  0.000000D+00 -0.346191D-01
      4   0.000000D+00  0.000000D+00  0.000000D+00  0.000000D+00  0.000000D+00
      5  -0.209599D+00  0.000000D+00 -0.399694D+00  0.000000D+00  0.000000D+00
      6   0.000000D+00  0.922063D+00  0.000000D+00  0.000000D+00  0.142883D+00
      7   0.000000D+00  0.000000D+00  0.000000D+00  0.000000D+00  0.000000D+00
      8   0.000000D+00 -0.856919D+00  0.000000D+00  0.000000D+00  0.630821D+00
      9   0.110961D+00  0.000000D+00  0.218883D+00  0.000000D+00  0.000000D+00
     10   0.000000D+00  0.000000D+00  0.000000D+00  0.745802D+00  0.000000D+00
     11   0.000000D+00  0.000000D+00  0.000000D+00  0.000000D+00  0.000000D+00
     12   0.000000D+00  0.000000D+00  0.000000D+00  0.000000D+00  0.000000D+00
     13   0.000000D+00  0.000000D+00  0.000000D+00  0.000000D+00  0.000000D+00
     14   0.000000D+00  0.000000D+00  0.000000D+00 -0.335013D+00  0.000000D+00
     15   0.285258D+00  0.000000D+00 -0.246148D+00  0.000000D+00  0.000000D+00
     16   0.000000D+00 -0.276793D+01  0.000000D+00  0.000000D+00  0.236782D+00
               686           687           688           689           690 
      1  -0.234064D+03 -0.233930D+03 -0.233878D+03 -0.233802D+03 -0.233754D+03
      2   0.000000D+00  0.000000D+00  0.000000D+00  0.000000D+00  0.000000D+00
      3   0.000000D+00  0.459170D-01  0.000000D+00  0.000000D+00 -0.191025D-01
      4  -0.663381D-01  0.000000D+00 -0.368639D-02  0.304346D-01  0.000000D+00
      5   0.000000D+00  0.000000D+00  0.000000D+00  0.000000D+00  0.000000D+00
      6   0.000000D+00 -0.225382D+00  0.000000D+00  0.000000D+00  0.180271D+00
      7   0.267202D+00  0.000000D+00  0.668780D-01 -0.188348D+00  0.000000D+00
      8   0.000000D+00  0.163093D+00  0.000000D+00  0.000000D+00 -0.197985D+00
      9   0.000000D+00  0.000000D+00  0.000000D+00  0.000000D+00  0.000000D+00
     10   0.000000D+00  0.000000D+00  0.000000D+00  0.000000D+00  0.000000D+00
     11   0.556310D-01  0.000000D+00 -0.101441D+00  0.255551D+00  0.000000D+00
     12   0.498300D+00  0.000000D+00 -0.647971D+00  0.704996D+00  0.000000D+00
     13   0.129670D+00  0.000000D+00 -0.296211D+00  0.843272D-01  0.000000D+00
     14   0.000000D+00  0.000000D+00  0.000000D+00  0.000000D+00  0.000000D+00
     15   0.000000D+00  0.000000D+00  0.000000D+00  0.000000D+00  0.000000D+00
     16   0.000000D+00 -0.529055D-01  0.000000D+00  0.000000D+00 -0.178282D+00
 Unable to Open any file for archive entry.
 1\1\GINC-HEL22\SP\RPW91PW91 TD-FC\Gen\C1H2F2\SABYASACHI\21-Mar-2022\0\
 \#P TD(Nstates=10000) pw91pw91/Gen SCF(maxcycles=100) Int(Grid=ultrafi
 ne)\\xGDB7_00001_tier4.com\\0,1\F,0,0.,1.098813,-0.28912\C,0,0.,0.,0.4
 99944\F,0,0.,-1.098813,-0.28912\H,0,-0.911346,0.,1.102246\H,0,0.911346
 ,0.,1.102246\\Version=EM64L-G16RevC.01\State=1-A1\HF=-238.7522418\RMSD
 =2.352e-09\PG=C02V [C2(C1),SGV(F2),SGV'(H2)]\\@
 The archive entry for this job was punched.


 THERE IS NO CURE FOR BIRTH AND DEATH SAVE TO ENJOY THE INTERVAL.

                               -- GEORGE SANTAYANA
 Job cpu time:       0 days  0 hours  1 minutes 54.4 seconds.
 Elapsed time:       0 days  0 hours  0 minutes 14.6 seconds.
 File lengths (MBytes):  RWF=    234 Int=      0 D2E=      0 Chk=    119 Scr=      1
 Normal termination of Gaussian 16 at Mon Mar 21 20:22:24 2022.
