 Entering Gaussian System, Link 0=g16
 Input=000003.com
 Output=000003.log
 Initial command:
 /home/sabyasachi/g16/l1.exe "/scratch/sabyasachi/PBS_7976500.helios/Gau-147267.inp" -scrdir="/scratch/sabyasachi/PBS_7976500.helios/"
 Entering Link 1 = /home/sabyasachi/g16/l1.exe PID=    147268.
  
 Copyright (c) 1988-2019, Gaussian, Inc.  All Rights Reserved.
  
 This is part of the Gaussian(R) 16 program.  It is based on
 the Gaussian(R) 09 system (copyright 2009, Gaussian, Inc.),
 the Gaussian(R) 03 system (copyright 2003, Gaussian, Inc.),
 the Gaussian(R) 98 system (copyright 1998, Gaussian, Inc.),
 the Gaussian(R) 94 system (copyright 1995, Gaussian, Inc.),
 the Gaussian 92(TM) system (copyright 1992, Gaussian, Inc.),
 the Gaussian 90(TM) system (copyright 1990, Gaussian, Inc.),
 the Gaussian 88(TM) system (copyright 1988, Gaussian, Inc.),
 the Gaussian 86(TM) system (copyright 1986, Carnegie Mellon
 University), and the Gaussian 82(TM) system (copyright 1983,
 Carnegie Mellon University). Gaussian is a federally registered
 trademark of Gaussian, Inc.
  
 This software contains proprietary and confidential information,
 including trade secrets, belonging to Gaussian, Inc.
  
 This software is provided under written license and may be
 used, copied, transmitted, or stored only in accord with that
 written license.
  
 The following legend is applicable only to US Government
 contracts under FAR:
  
                    RESTRICTED RIGHTS LEGEND
  
 Use, reproduction and disclosure by the US Government is
 subject to restrictions as set forth in subparagraphs (a)
 and (c) of the Commercial Computer Software - Restricted
 Rights clause in FAR 52.227-19.
  
 Gaussian, Inc.
 340 Quinnipiac St., Bldg. 40, Wallingford CT 06492
  
  
 ---------------------------------------------------------------
 Warning -- This program may not be used in any manner that
 competes with the business of Gaussian, Inc. or will provide
 assistance to any competitor of Gaussian, Inc.  The licensee
 of this program is prohibited from giving any competitor of
 Gaussian, Inc. access to this program.  By using this program,
 the user acknowledges that Gaussian, Inc. is engaged in the
 business of creating and licensing software in the field of
 computational chemistry and represents and warrants to the
 licensee that it is not a competitor of Gaussian, Inc. and that
 it will not use this program in any manner prohibited above.
 ---------------------------------------------------------------
  

 Cite this work as:
 Gaussian 16, Revision C.01,
 M. J. Frisch, G. W. Trucks, H. B. Schlegel, G. E. Scuseria, 
 M. A. Robb, J. R. Cheeseman, G. Scalmani, V. Barone, 
 G. A. Petersson, H. Nakatsuji, X. Li, M. Caricato, A. V. Marenich, 
 J. Bloino, B. G. Janesko, R. Gomperts, B. Mennucci, H. P. Hratchian, 
 J. V. Ortiz, A. F. Izmaylov, J. L. Sonnenberg, D. Williams-Young, 
 F. Ding, F. Lipparini, F. Egidi, J. Goings, B. Peng, A. Petrone, 
 T. Henderson, D. Ranasinghe, V. G. Zakrzewski, J. Gao, N. Rega, 
 G. Zheng, W. Liang, M. Hada, M. Ehara, K. Toyota, R. Fukuda, 
 J. Hasegawa, M. Ishida, T. Nakajima, Y. Honda, O. Kitao, H. Nakai, 
 T. Vreven, K. Throssell, J. A. Montgomery, Jr., J. E. Peralta, 
 F. Ogliaro, M. J. Bearpark, J. J. Heyd, E. N. Brothers, K. N. Kudin, 
 V. N. Staroverov, T. A. Keith, R. Kobayashi, J. Normand, 
 K. Raghavachari, A. P. Rendell, J. C. Burant, S. S. Iyengar, 
 J. Tomasi, M. Cossi, J. M. Millam, M. Klene, C. Adamo, R. Cammi, 
 J. W. Ochterski, R. L. Martin, K. Morokuma, O. Farkas, 
 J. B. Foresman, and D. J. Fox, Gaussian, Inc., Wallingford CT, 2019.
 
 ******************************************
 Gaussian 16:  EM64L-G16RevC.01  3-Jul-2019
                21-Mar-2022 
 ******************************************
 %mem=64gb
 %nproc=8
 Will use up to    8 processors via shared memory.
 ----------------------------------------------------------------------
 #P TD(Nstates=10000) pw91pw91/Gen SCF(maxcycles=100) Int(Grid=ultrafin
 e)
 ----------------------------------------------------------------------
 1/38=1,172=1/1;
 2/12=2,17=6,18=5,40=1/2;
 3/5=7,11=9,25=1,30=1,74=608,75=-5/1,2,3,8;
 4//1;
 5/5=2,7=100,38=5/2;
 8/6=1,10=1,108=10000/1;
 9/41=10000,42=1,70=2/14;
 6/7=2,8=2,9=2,10=2/1;
 99/5=1,9=1/99;
 Leave Link    1 at Mon Mar 21 20:11:02 2022, MaxMem=  8589934592 cpu:               0.4 elap:               0.1
 (Enter /home/sabyasachi/g16/l101.exe)
 ---------------------
 xGDB7_00001_tier4.com
 ---------------------
 Symbolic Z-matrix:
 Charge =  0 Multiplicity = 1
 8                     0.        0.        0.11602 
 1                     0.        0.7619   -0.46406 
 1                     0.       -0.7619   -0.46406 
 
 ITRead=  0  0  0
 MicOpt= -1 -1 -1
 NAtoms=      3 NQM=        3 NQMF=       0 NMMI=      0 NMMIF=      0
                NMic=       0 NMicF=      0.
                    Isotopes and Nuclear Properties:
 (Nuclear quadrupole moments (NQMom) in fm**2, nuclear magnetic moments (NMagM)
  in nuclear magnetons)

  Atom         1           2           3
 IAtWgt=          16           1           1
 AtmWgt=  15.9949146   1.0078250   1.0078250
 NucSpn=           0           1           1
 AtZEff=  -0.0000000  -0.0000000  -0.0000000
 NQMom=    0.0000000   0.0000000   0.0000000
 NMagM=    0.0000000   2.7928460   2.7928460
 AtZNuc=   8.0000000   1.0000000   1.0000000
 Leave Link  101 at Mon Mar 21 20:11:03 2022, MaxMem=  8589934592 cpu:               0.6 elap:               0.1
 (Enter /home/sabyasachi/g16/l202.exe)
                          Input orientation:                          
 ---------------------------------------------------------------------
 Center     Atomic      Atomic             Coordinates (Angstroms)
 Number     Number       Type             X           Y           Z
 ---------------------------------------------------------------------
      1          8           0        0.000000    0.000000    0.116015
      2          1           0        0.000000    0.761895   -0.464058
      3          1           0        0.000000   -0.761895   -0.464058
 ---------------------------------------------------------------------
                    Distance matrix (angstroms):
                    1          2          3
     1  O    0.000000
     2  H    0.957585   0.000000
     3  H    0.957585   1.523790   0.000000
 Stoichiometry    H2O
 Framework group  C2V[C2(O),SGV(H2)]
 Deg. of freedom     2
 Full point group                 C2V     NOp   4
 Largest Abelian subgroup         C2V     NOp   4
 Largest concise Abelian subgroup C2      NOp   2
                         Standard orientation:                         
 ---------------------------------------------------------------------
 Center     Atomic      Atomic             Coordinates (Angstroms)
 Number     Number       Type             X           Y           Z
 ---------------------------------------------------------------------
      1          8           0        0.000000   -0.000000    0.116015
      2          1           0        0.000000    0.761895   -0.464058
      3          1           0       -0.000000   -0.761895   -0.464058
 ---------------------------------------------------------------------
 Rotational constants (GHZ):         839.0390262         431.9284530         285.1409139
 Leave Link  202 at Mon Mar 21 20:11:03 2022, MaxMem=  8589934592 cpu:               0.1 elap:               0.0
 (Enter /home/sabyasachi/g16/l301.exe)
 General basis read from cards:  (5D, 7F)
 Centers:       2      3
 S 3 1.00
     Exponent=  1.3010701000D+01 Coefficients=  1.9682158000D-02
     Exponent=  1.9622572000D+00 Coefficients=  1.3796524000D-01
     Exponent=  4.4453796000D-01 Coefficients=  4.7831935000D-01
 S 1 1.00
     Exponent=  1.2194962000D-01 Coefficients=  1.0000000000D+00
 P 1 1.00
     Exponent=  8.0000000000D-01 Coefficients=  1.0000000000D+00
 P 1 1.00
     Exponent=  1.1704099050D-01 Coefficients=  1.0000000000D+00
 ****
 Centers:       1
 S 5 1.00
     Exponent=  2.2661767785D+03 Coefficients= -5.3431809926D-03
     Exponent=  3.4087010191D+02 Coefficients= -3.9890039230D-02
     Exponent=  7.7363135167D+01 Coefficients= -1.7853911985D-01
     Exponent=  2.1479644940D+01 Coefficients= -4.6427684959D-01
     Exponent=  6.6589433124D+00 Coefficients= -4.4309745172D-01
 S 1 1.00
     Exponent=  8.0975975668D-01 Coefficients=  1.0000000000D+00
 S 1 1.00
     Exponent=  2.5530772234D-01 Coefficients=  1.0000000000D+00
 S 1 1.00
     Exponent=  7.6572453250D-02 Coefficients=  1.0000000000D+00
 P 3 1.00
     Exponent=  1.7721504317D+01 Coefficients=  4.3394573193D-02
     Exponent=  3.8635505440D+00 Coefficients=  2.3094120765D-01
     Exponent=  1.0480920883D+00 Coefficients=  5.1375311064D-01
 P 1 1.00
     Exponent=  2.7641544411D-01 Coefficients=  1.0000000000D+00
 P 1 1.00
     Exponent=  6.9002276350D-02 Coefficients=  1.0000000000D+00
 D 1 1.00
     Exponent=  1.2000000000D+00 Coefficients=  1.0000000000D+00
 D 1 1.00
     Exponent=  1.7992024323D-01 Coefficients=  1.0000000000D+00
 ****
 Ernie: Thresh=  0.10000D-02 Tol=  0.10000D-05 Strict=F.
 There are    19 symmetry adapted cartesian basis functions of A1  symmetry.
 There are     4 symmetry adapted cartesian basis functions of A2  symmetry.
 There are     7 symmetry adapted cartesian basis functions of B1  symmetry.
 There are    11 symmetry adapted cartesian basis functions of B2  symmetry.
 There are    17 symmetry adapted basis functions of A1  symmetry.
 There are     4 symmetry adapted basis functions of A2  symmetry.
 There are     7 symmetry adapted basis functions of B1  symmetry.
 There are    11 symmetry adapted basis functions of B2  symmetry.
    39 basis functions,    55 primitive gaussians,    41 cartesian basis functions
     5 alpha electrons        5 beta electrons
       nuclear repulsion energy         9.1891417035 Hartrees.
 IExCor=  608 DFT=T Ex=PW91 Corr=PW91 ExCW=0 ScaHFX=  0.000000
 ScaDFX=  1.000000  1.000000  1.000000  1.000000 ScalE2=  1.000000  1.000000
 IRadAn=      5 IRanWt=     -1 IRanGd=            0 ICorTp=0 IEmpDi=  4
 NAtoms=    3 NActive=    3 NUniq=    2 SFac= 2.25D+00 NAtFMM=   60 NAOKFM=F Big=F
 Integral buffers will be    131072 words long.
 Regular integral format.
 Two-electron integral symmetry is turned on.
 Leave Link  301 at Mon Mar 21 20:11:03 2022, MaxMem=  8589934592 cpu:               0.5 elap:               0.1
 (Enter /home/sabyasachi/g16/l302.exe)
 NPDir=0 NMtPBC=     1 NCelOv=     1 NCel=       1 NClECP=     1 NCelD=      1
         NCelK=      1 NCelE2=     1 NClLst=     1 CellRange=     0.0.
 One-electron integrals computed using PRISM.
 One-electron integral symmetry used in STVInt
 NBasis=    39 RedAO= T EigKep=  5.25D-03  NBF=    17     4     7    11
 NBsUse=    39 1.00D-06 EigRej= -1.00D+00 NBFU=    17     4     7    11
 Precomputing XC quadrature grid using
 IXCGrd= 4 IRadAn=           5 IRanWt=          -1 IRanGd=           0 AccXCQ= 0.00D+00.
 Generated NRdTot=       0 NPtTot=           0 NUsed=           0 NTot=          32
 NSgBfM=    41    41    41    41    41 MxSgAt=     3 MxSgA2=     3.
 Leave Link  302 at Mon Mar 21 20:11:03 2022, MaxMem=  8589934592 cpu:               0.8 elap:               0.1
 (Enter /home/sabyasachi/g16/l303.exe)
 DipDrv:  MaxL=1.
 Leave Link  303 at Mon Mar 21 20:11:03 2022, MaxMem=  8589934592 cpu:               0.2 elap:               0.0
 (Enter /home/sabyasachi/g16/l308.exe)
 Leave Link  308 at Mon Mar 21 20:11:03 2022, MaxMem=  8589934592 cpu:               0.2 elap:               0.0
 (Enter /home/sabyasachi/g16/l401.exe)
 ExpMin= 6.90D-02 ExpMax= 2.27D+03 ExpMxC= 3.41D+02 IAcc=3 IRadAn=         5 AccDes= 0.00D+00
 Harris functional with IExCor=  608 and IRadAn=       5 diagonalized for initial guess.
 HarFok:  IExCor=  608 AccDes= 0.00D+00 IRadAn=         5 IDoV= 1 UseB2=F ITyADJ=14
 ICtDFT=  3500011 ScaDFX=  1.000000  1.000000  1.000000  1.000000
 FoFCou: FMM=F IPFlag=           0 FMFlag=      100000 FMFlg1=           0
         NFxFlg=           0 DoJE=T BraDBF=F KetDBF=T FulRan=T
         wScrn=  0.000000 ICntrl=       500 IOpCl=  0 I1Cent=   200000004 NGrid=           0
         NMat0=    1 NMatS0=      1 NMatT0=    0 NMatD0=    1 NMtDS0=    0 NMtDT0=    0
 Petite list used in FoFCou.
 Harris En= -76.3958977462680    
 JPrj=0 DoOrth=F DoCkMO=F.
 Initial guess orbital symmetries:
       Occupied  (A1) (A1) (B2) (A1) (B1)
       Virtual   (A1) (B2) (A1) (B1) (B2) (A1) (A2) (A1) (B1) (A1)
                 (B2) (B2) (B2) (A1) (B1) (A1) (A2) (A1) (B2) (B1)
                 (A1) (B2) (A1) (A2) (B1) (A1) (B2) (B2) (A1) (B1)
                 (A2) (A1) (A1) (B2)
 The electronic state of the initial guess is 1-A1.
 Leave Link  401 at Mon Mar 21 20:11:03 2022, MaxMem=  8589934592 cpu:               1.2 elap:               0.2
 (Enter /home/sabyasachi/g16/l502.exe)
 Keep J ints in memory in symmetry-blocked form, NReq=7222654.
 FoFCou: FMM=F IPFlag=           0 FMFlag=           0 FMFlg1=           0
         NFxFlg=           0 DoJE=F BraDBF=F KetDBF=F FulRan=T
         wScrn=  0.000000 ICntrl=       600 IOpCl=  0 I1Cent=           0 NGrid=           0
         NMat0=    1 NMatS0=    780 NMatT0=    0 NMatD0=    1 NMtDS0=    0 NMtDT0=    0
 Petite list used in FoFCou.
 Closed shell SCF:
 Using DIIS extrapolation, IDIIS=  1040.
 NGot=  8589934592 LenX=  8589846988 LenY=  8589844866
 Requested convergence on RMS density matrix=1.00D-08 within 100 cycles.
 Requested convergence on MAX density matrix=1.00D-06.
 Requested convergence on             energy=1.00D-06.
 No special actions if energy rises.
 Integral accuracy reduced to 1.0D-05 until final iterations.

 Cycle   1  Pass 0  IDiag  1:
 E= -76.2814712621278    
 DIIS: error= 5.03D-02 at cycle   1 NSaved=   1.
 NSaved= 1 IEnMin= 1 EnMin= -76.2814712621278     IErMin= 1 ErrMin= 5.03D-02
 ErrMax= 5.03D-02  0.00D+00 EMaxC= 1.00D-01 BMatC= 8.86D-02 BMatP= 8.86D-02
 IDIUse=3 WtCom= 4.97D-01 WtEn= 5.03D-01
 Coeff-Com:  0.100D+01
 Coeff-En:   0.100D+01
 Coeff:      0.100D+01
 Gap=     0.088 Goal=   None    Shift=    0.000
 GapD=    0.088 DampG=0.500 DampE=0.500 DampFc=0.2500 IDamp=-1.
 Damping current iteration by 2.50D-01
 RMSDP=1.39D-02 MaxDP=2.05D-01              OVMax= 2.94D-01

 Cycle   2  Pass 0  IDiag  1:
 E= -76.3041791912536     Delta-E=       -0.022707929126 Rises=F Damp=T
 DIIS: error= 8.64D-03 at cycle   2 NSaved=   2.
 NSaved= 2 IEnMin= 2 EnMin= -76.3041791912536     IErMin= 2 ErrMin= 8.64D-03
 ErrMax= 8.64D-03  0.00D+00 EMaxC= 1.00D-01 BMatC= 3.39D-03 BMatP= 8.86D-02
 IDIUse=3 WtCom= 9.14D-01 WtEn= 8.64D-02
 Coeff-Com: -0.226D+00 0.123D+01
 Coeff-En:   0.159D+00 0.841D+00
 Coeff:     -0.193D+00 0.119D+01
 Gap=     0.227 Goal=   None    Shift=    0.000
 RMSDP=1.67D-03 MaxDP=1.77D-02 DE=-2.27D-02 OVMax= 2.15D-01

 Cycle   3  Pass 0  IDiag  1:
 E= -76.3530799519225     Delta-E=       -0.048900760669 Rises=F Damp=F
 DIIS: error= 1.46D-03 at cycle   3 NSaved=   3.
 NSaved= 3 IEnMin= 3 EnMin= -76.3530799519225     IErMin= 3 ErrMin= 1.46D-03
 ErrMax= 1.46D-03  0.00D+00 EMaxC= 1.00D-01 BMatC= 4.39D-05 BMatP= 3.39D-03
 IDIUse=3 WtCom= 9.85D-01 WtEn= 1.46D-02
 Coeff-Com: -0.447D-01 0.205D+00 0.840D+00
 Coeff-En:   0.000D+00 0.000D+00 0.100D+01
 Coeff:     -0.441D-01 0.202D+00 0.842D+00
 Gap=     0.245 Goal=   None    Shift=    0.000
 RMSDP=2.79D-04 MaxDP=2.55D-03 DE=-4.89D-02 OVMax= 4.29D-03

 Cycle   4  Pass 0  IDiag  1:
 E= -76.3531425553817     Delta-E=       -0.000062603459 Rises=F Damp=F
 DIIS: error= 2.61D-04 at cycle   4 NSaved=   4.
 NSaved= 4 IEnMin= 4 EnMin= -76.3531425553817     IErMin= 4 ErrMin= 2.61D-04
 ErrMax= 2.61D-04  0.00D+00 EMaxC= 1.00D-01 BMatC= 2.42D-06 BMatP= 4.39D-05
 IDIUse=3 WtCom= 9.97D-01 WtEn= 2.61D-03
 Coeff-Com:  0.621D-03-0.125D-01 0.152D+00 0.860D+00
 Coeff-En:   0.000D+00 0.000D+00 0.000D+00 0.100D+01
 Coeff:      0.620D-03-0.125D-01 0.151D+00 0.861D+00
 Gap=     0.244 Goal=   None    Shift=    0.000
 RMSDP=4.30D-05 MaxDP=3.33D-04 DE=-6.26D-05 OVMax= 7.61D-04

 Cycle   5  Pass 0  IDiag  1:
 E= -76.3531437495868     Delta-E=       -0.000001194205 Rises=F Damp=F
 DIIS: error= 1.84D-04 at cycle   5 NSaved=   5.
 NSaved= 5 IEnMin= 5 EnMin= -76.3531437495868     IErMin= 5 ErrMin= 1.84D-04
 ErrMax= 1.84D-04  0.00D+00 EMaxC= 1.00D-01 BMatC= 8.79D-07 BMatP= 2.42D-06
 IDIUse=3 WtCom= 9.98D-01 WtEn= 1.84D-03
 Coeff-Com:  0.281D-02-0.384D-02 0.228D-01 0.188D+00 0.790D+00
 Coeff-En:   0.000D+00 0.000D+00 0.000D+00 0.123D+00 0.877D+00
 Coeff:      0.280D-02-0.383D-02 0.227D-01 0.188D+00 0.790D+00
 Gap=     0.245 Goal=   None    Shift=    0.000
 RMSDP=1.44D-05 MaxDP=1.63D-04 DE=-1.19D-06 OVMax= 3.04D-04

 Cycle   6  Pass 0  IDiag  1:
 E= -76.3531445198300     Delta-E=       -0.000000770243 Rises=F Damp=F
 DIIS: error= 1.97D-05 at cycle   6 NSaved=   6.
 NSaved= 6 IEnMin= 6 EnMin= -76.3531445198300     IErMin= 6 ErrMin= 1.97D-05
 ErrMax= 1.97D-05  0.00D+00 EMaxC= 1.00D-01 BMatC= 9.98D-09 BMatP= 8.79D-07
 IDIUse=1 WtCom= 1.00D+00 WtEn= 0.00D+00
 Coeff-Com:  0.624D-03-0.707D-03 0.429D-02 0.243D-01 0.812D-01 0.890D+00
 Coeff:      0.624D-03-0.707D-03 0.429D-02 0.243D-01 0.812D-01 0.890D+00
 Gap=     0.245 Goal=   None    Shift=    0.000
 RMSDP=1.77D-06 MaxDP=1.66D-05 DE=-7.70D-07 OVMax= 2.69D-05

 Initial convergence to 1.0D-05 achieved.  Increase integral accuracy.
 Cycle   7  Pass 1  IDiag  1:
 E= -76.3531463691524     Delta-E=       -0.000001849322 Rises=F Damp=F
 DIIS: error= 2.25D-06 at cycle   1 NSaved=   1.
 NSaved= 1 IEnMin= 1 EnMin= -76.3531463691524     IErMin= 1 ErrMin= 2.25D-06
 ErrMax= 2.25D-06  0.00D+00 EMaxC= 1.00D-01 BMatC= 2.98D-10 BMatP= 2.98D-10
 IDIUse=1 WtCom= 1.00D+00 WtEn= 0.00D+00
 Coeff-Com:  0.100D+01
 Coeff:      0.100D+01
 Gap=     0.245 Goal=   None    Shift=    0.000
 RMSDP=1.77D-06 MaxDP=1.66D-05 DE=-1.85D-06 OVMax= 1.47D-05

 Cycle   8  Pass 1  IDiag  1:
 E= -76.3531463685971     Delta-E=        0.000000000555 Rises=F Damp=F
 DIIS: error= 5.92D-06 at cycle   2 NSaved=   2.
 NSaved= 2 IEnMin= 1 EnMin= -76.3531463691524     IErMin= 1 ErrMin= 2.25D-06
 ErrMax= 5.92D-06  0.00D+00 EMaxC= 1.00D-01 BMatC= 1.09D-09 BMatP= 2.98D-10
 IDIUse=1 WtCom= 1.00D+00 WtEn= 0.00D+00
 Coeff-Com:  0.662D+00 0.338D+00
 Coeff:      0.662D+00 0.338D+00
 Gap=     0.245 Goal=   None    Shift=    0.000
 RMSDP=4.70D-07 MaxDP=7.29D-06 DE= 5.55D-10 OVMax= 9.12D-06

 Cycle   9  Pass 1  IDiag  1:
 E= -76.3531463694155     Delta-E=       -0.000000000818 Rises=F Damp=F
 DIIS: error= 1.67D-07 at cycle   3 NSaved=   3.
 NSaved= 3 IEnMin= 3 EnMin= -76.3531463694155     IErMin= 3 ErrMin= 1.67D-07
 ErrMax= 1.67D-07  0.00D+00 EMaxC= 1.00D-01 BMatC= 1.15D-12 BMatP= 2.98D-10
 IDIUse=1 WtCom= 1.00D+00 WtEn= 0.00D+00
 Coeff-Com:  0.147D-01 0.362D-01 0.949D+00
 Coeff:      0.147D-01 0.362D-01 0.949D+00
 Gap=     0.245 Goal=   None    Shift=    0.000
 RMSDP=2.16D-08 MaxDP=2.41D-07 DE=-8.18D-10 OVMax= 3.39D-07

 Cycle  10  Pass 1  IDiag  1:
 E= -76.3531463694161     Delta-E=       -0.000000000001 Rises=F Damp=F
 DIIS: error= 1.52D-08 at cycle   4 NSaved=   4.
 NSaved= 4 IEnMin= 4 EnMin= -76.3531463694161     IErMin= 4 ErrMin= 1.52D-08
 ErrMax= 1.52D-08  0.00D+00 EMaxC= 1.00D-01 BMatC= 8.72D-15 BMatP= 1.15D-12
 IDIUse=1 WtCom= 1.00D+00 WtEn= 0.00D+00
 Coeff-Com: -0.152D-02 0.473D-02 0.178D+00 0.819D+00
 Coeff:     -0.152D-02 0.473D-02 0.178D+00 0.819D+00
 Gap=     0.245 Goal=   None    Shift=    0.000
 RMSDP=2.70D-09 MaxDP=3.59D-08 DE=-6.25D-13 OVMax= 4.42D-08

 SCF Done:  E(RPW91-PW91) =  -76.3531463694     A.U. after   10 cycles
            NFock= 10  Conv=0.27D-08     -V/T= 2.0078
 KE= 7.576247417877D+01 PE=-1.985862456289D+02 EE= 3.728148337718D+01
 Leave Link  502 at Mon Mar 21 20:11:03 2022, MaxMem=  8589934592 cpu:               1.7 elap:               0.2
 (Enter /home/sabyasachi/g16/l801.exe)
 DoSCS=F DFT=T ScalE2(SS,OS)=  1.000000  1.000000
 ExpMin= 6.90D-02 ExpMax= 2.27D+03 ExpMxC= 3.41D+02 IAcc=3 IRadAn=         5 AccDes= 0.00D+00
 HarFok:  IExCor=  205 AccDes= 0.00D+00 IRadAn=         5 IDoV=-2 UseB2=F ITyADJ=14
 ICtDFT= 12500011 ScaDFX=  1.000000  1.000000  1.000000  1.000000
 Largest valence mixing into a core orbital is  3.49D-05
 Largest core mixing into a valence orbital is  5.51D-06
 Range of M.O.s used for correlation:     2    39
 NBasis=    39 NAE=     5 NBE=     5 NFC=     1 NFV=     0
 NROrb=     38 NOA=     4 NOB=     4 NVA=    34 NVB=    34
 Leave Link  801 at Mon Mar 21 20:11:03 2022, MaxMem=  8589934592 cpu:               0.4 elap:               0.1
 (Enter /home/sabyasachi/g16/l914.exe)
 RHF ground state
 Keep J ints in memory in symmetry-blocked form, NReq=35449226.
 FoFCou: FMM=F IPFlag=           0 FMFlag=           0 FMFlg1=           0
         NFxFlg=           0 DoJE=F BraDBF=F KetDBF=F FulRan=T
         wScrn=  0.000000 ICntrl=       600 IOpCl=  0 I1Cent=           0 NGrid=           0
         NMat0=    1 NMatS0=    780 NMatT0=    0 NMatD0=    1 NMtDS0=    0 NMtDT0=    0
 Petite list used in FoFCou.
 MDV=  8589934592 DFT=T DoStab=F Mixed=F DoRPA=T DoScal=T NonHer=F
 Making orbital integer symmetry assigments:
 Orbital symmetries:
       Occupied  (A1) (A1) (B2) (A1) (B1)
       Virtual   (A1) (B2) (B1) (A1) (B2) (A1) (A2) (A1) (B1) (A1)
                 (B2) (B2) (B2) (A1) (B1) (A1) (A2) (A1) (B2) (B1)
                 (A1) (B2) (A1) (A2) (B1) (B2) (A1) (B2) (A1) (B1)
                 (A2) (A1) (A1) (B2)
   136 initial guesses have been made.
 Convergence on wavefunction:    0.001000000000000
 Davidson Disk Diagonalization:  ConvIn= 1.00D-03 SkipCon=T Conv= 1.00D-03.
 Max sub-space:   544 roots to seek:   272 dimension of matrix:          272
 *** WARNING: Number of orthogonal guesses is          136
 Iteration     1 Dimension   136 NMult     0 NNew    136
 CISAX will form   136 AO SS matrices at one time.
 NMat=   136 NSing=   136 JSym2X=-1.
 New state      4 was old state      5
 New state      5 was old state      4
 New state     13 was old state     14
 New state     14 was old state     13
 New state     17 was old state     18
 New state     18 was old state     17
 New state     19 was old state     20
 New state     20 was old state     21
 New state     21 was old state     22
 New state     22 was old state     24
 New state     23 was old state     19
 New state     24 was old state     23
 New state     25 was old state     26
 New state     26 was old state     25
 New state     40 was old state     41
 New state     41 was old state     40
 New state     45 was old state     47
 New state     47 was old state     45
 New state     49 was old state     50
 New state     50 was old state     49
 New state     55 was old state     56
 New state     56 was old state     57
 New state     57 was old state     55
 New state     58 was old state     59
 New state     59 was old state     58
 New state     64 was old state     65
 New state     65 was old state     64
 New state     69 was old state     70
 New state     70 was old state     72
 New state     71 was old state     69
 New state     72 was old state     71
 New state     73 was old state     75
 New state     75 was old state     73
 New state     76 was old state     78
 New state     78 was old state     79
 New state     79 was old state     80
 New state     80 was old state     76
 New state     82 was old state     83
 New state     83 was old state     82
 New state     86 was old state     87
 New state     87 was old state     86
 New state     93 was old state     95
 New state     94 was old state     93
 New state     95 was old state     94
 New state     99 was old state    100
 New state    100 was old state     99
 New state    105 was old state    106
 New state    106 was old state    107
 New state    107 was old state    105
 New state    110 was old state    111
 New state    111 was old state    110
 New state    112 was old state    113
 New state    113 was old state    112
 New state    118 was old state    119
 New state    119 was old state    120
 New state    120 was old state    118
 New state    123 was old state    124
 New state    124 was old state    123
 New state    126 was old state    127
 New state    127 was old state    128
 New state    128 was old state    126
 Excitation Energies [eV] at current iteration:
 Root      1 :     6.887323765321208
 Root      2 :     8.542367745352157
 Root      3 :     8.920072150450800
 Root      4 :     9.970769892895687
 Root      5 :    10.468526320211940
 Root      6 :    10.592712053705950
 Root      7 :    11.125175907260260
 Root      8 :    11.848472505125880
 Root      9 :    11.952388870732770
 Root     10 :    12.336676696920350
 Root     11 :    12.885871498706620
 Root     12 :    13.013987950054260
 Root     13 :    13.550316653627770
 Root     14 :    13.633618220395140
 Root     15 :    13.846666861775720
 Root     16 :    14.326099157547470
 Root     17 :    14.922516005061970
 Root     18 :    15.015178540015490
 Root     19 :    15.948996086599620
 Root     20 :    16.011895304003500
 Root     21 :    16.274618159580350
 Root     22 :    16.350938883254280
 Root     23 :    16.386117643828500
 Root     24 :    16.422532917716050
 Root     25 :    17.171853735323050
 Root     26 :    18.008437807773310
 Root     27 :    18.076468650690920
 Root     28 :    18.211166183240410
 Root     29 :    18.396549472287500
 Root     30 :    19.071732910721480
 Root     31 :    19.375148770185490
 Root     32 :    19.608692323185220
 Root     33 :    20.234307608534380
 Root     34 :    20.738943653442270
 Root     35 :    21.558453917978660
 Root     36 :    22.325381213201620
 Root     37 :    22.326193162826500
 Root     38 :    22.701672987441120
 Root     39 :    22.846874824332740
 Root     40 :    22.962350592746920
 Root     41 :    23.125454305546560
 Root     42 :    23.901674412820250
 Root     43 :    23.902273603414440
 Root     44 :    24.434439788680340
 Root     45 :    25.076182245940000
 Root     46 :    25.209698837688190
 Root     47 :    25.791186586378300
 Root     48 :    26.592558470602530
 Root     49 :    27.522473888885930
 Root     50 :    27.634193481694730
 Root     51 :    27.879189812103150
 Root     52 :    28.012308970255220
 Root     53 :    28.174447002697900
 Root     54 :    29.112858385443360
 Root     55 :    29.674546353537110
 Root     56 :    29.745274953702200
 Root     57 :    29.793778427808230
 Root     58 :    30.735852061182560
 Root     59 :    30.760812543885990
 Root     60 :    31.589445549378970
 Root     61 :    32.105462047486370
 Root     62 :    33.019955961059120
 Root     63 :    33.703110435473410
 Root     64 :    34.313644611908910
 Root     65 :    34.665061485242210
 Root     66 :    35.260831684665230
 Root     67 :    35.841922166152190
 Root     68 :    37.448255063427820
 Root     69 :    38.640112945117190
 Root     70 :    39.010807890847900
 Root     71 :    39.086479917929200
 Root     72 :    39.090667560825360
 Root     73 :    40.100905844038760
 Root     74 :    40.237271561497790
 Root     75 :    40.382747935881770
 Root     76 :    41.124572770789960
 Root     77 :    41.170662928166790
 Root     78 :    44.058780281550110
 Root     79 :    44.776959627366740
 Root     80 :    46.354066245540660
 Root     81 :    46.878444140290950
 Root     82 :    49.070315143992090
 Root     83 :    50.041604259475500
 Root     84 :    50.086094879896640
 Root     85 :    51.315761179223330
 Root     86 :    51.874938665520060
 Root     87 :    52.087946358207050
 Root     88 :    52.702975905690090
 Root     89 :    54.760391438139350
 Root     90 :    55.461911989464280
 Root     91 :    56.193838648923440
 Root     92 :    56.362238239803740
 Root     93 :    56.907665909783100
 Root     94 :    57.224524484119680
 Root     95 :    57.467087327934840
 Root     96 :    58.040585110367990
 Root     97 :    58.603840144647180
 Root     98 :    60.100807200162490
 Root     99 :    60.957121378336350
 Root    100 :    60.961395676675760
 Root    101 :    64.302218708082960
 Root    102 :    64.607236495213230
 Root    103 :    65.267517192735350
 Root    104 :    66.255842784477450
 Root    105 :    68.856763753867140
 Root    106 :    68.992747808140110
 Root    107 :    69.789119929604280
 Root    108 :    71.121807331669600
 Root    109 :    71.689602218237470
 Root    110 :    72.979004171012700
 Root    111 :    73.839952321312380
 Root    112 :    75.702830481169100
 Root    113 :    76.128963480572350
 Root    114 :    76.632855376066090
 Root    115 :    84.762086561530480
 Root    116 :    87.962841138647210
 Root    117 :    88.592513322689970
 Root    118 :    89.454008137337470
 Root    119 :    89.941527287279400
 Root    120 :    89.954267487729520
 Root    121 :    91.919495297009930
 Root    122 :    92.055180655425700
 Root    123 :    95.733395889620780
 Root    124 :    96.598011920270250
 Root    125 :    98.388657353142760
 Root    126 :   104.926914316825700
 Root    127 :   105.604891497031600
 Root    128 :   105.746272122809400
 Root    129 :   106.625185901980500
 Root    130 :   109.947029356565500
 Root    131 :   110.401797685026600
 Root    132 :   114.108278197941100
 Root    133 :   117.554711781614100
 Root    134 :   121.244617540792900
 Root    135 :   121.722744776011100
 Root    136 :   132.476950828027600
 Convergence achieved for final wavefunctions.
 ***********************************************************************
 Excited states from <AA,BB:AA,BB> singles matrix:
 ***********************************************************************
 
 1PDM for each excited state written to RWF  633
 Ground to excited state transition densities written to RWF  633
 Ground to excited state transition electric dipole moments (Au):
       state          X           Y           Z        Dip. S.      Osc.
         1        -0.5576      0.0000     -0.0000      0.3109      0.0525
         2         0.0000     -0.0000     -0.0000      0.0000      0.0000
         3        -0.0000      0.0000     -0.6467      0.4182      0.0914
         4        -0.1176     -0.0000     -0.0000      0.0138      0.0034
         5         0.0000     -0.0000      0.0197      0.0004      0.0001
         6         0.0000      0.1994      0.0000      0.0398      0.0103
         7         0.0000     -0.0000     -0.0000      0.0000      0.0000
         8        -0.3727      0.0000      0.0000      0.1389      0.0403
         9         0.0334     -0.0000      0.0000      0.0011      0.0003
        10        -0.0000     -0.0000     -0.3524      0.1242      0.0375
        11        -0.0000     -0.2784      0.0000      0.0775      0.0245
        12         0.0000     -0.3060     -0.0000      0.0936      0.0298
        13        -0.4565      0.0000      0.0000      0.2084      0.0692
        14        -0.0000     -1.0346     -0.0000      1.0704      0.3575
        15        -0.0000      0.0000     -0.3921      0.1537      0.0521
        16         0.0000     -0.0000     -0.3052      0.0931      0.0327
        17         0.0000     -0.0000      0.0000      0.0000      0.0000
        18        -0.0000      0.0000      0.0077      0.0001      0.0000
        19        -0.0000      0.0000      0.0000      0.0000      0.0000
        20        -0.0000     -0.2488     -0.0000      0.0619      0.0243
        21         0.1517      0.0000      0.0000      0.0230      0.0092
        22        -0.0000     -0.0000      0.0000      0.0000      0.0000
        23        -0.0000      0.0000      0.3111      0.0968      0.0389
        24        -0.7121     -0.0000      0.0000      0.5071      0.2040
        25        -0.0000      0.0000      0.0000      0.0000      0.0000
        26        -0.0000      0.0000     -0.8027      0.6443      0.2843
        27         0.0000      0.6824     -0.0000      0.4657      0.2062
        28        -0.0000      0.0000      0.2902      0.0842      0.0376
        29         0.0000     -0.1238     -0.0000      0.0153      0.0069
        30        -0.4654      0.0000      0.0000      0.2166      0.1012
        31         0.0000      0.1345     -0.0000      0.0181      0.0086
        32         0.0000      0.2573      0.0000      0.0662      0.0318
        33         0.0000      0.0000     -0.0000      0.0000      0.0000
        34         0.0000      0.0000      0.0000      0.0000      0.0000
        35         0.6465      0.0000     -0.0000      0.4180      0.2208
        36         0.0000      0.2004      0.0000      0.0402      0.0220
        37         0.0000     -0.0000      0.3798      0.1442      0.0789
        38        -0.0000      0.0000      0.0810      0.0066      0.0037
        39         0.0000     -0.0982     -0.0000      0.0096      0.0054
        40         0.0366     -0.0000      0.0000      0.0013      0.0008
        41         0.0000      0.0000     -0.2705      0.0732      0.0415
        42        -0.0000     -0.7783     -0.0000      0.6058      0.3547
        43         0.0000     -0.0000      0.2016      0.0406      0.0238
        44         0.6742      0.0000      0.0000      0.4545      0.2721
        45        -0.0000     -0.0000     -0.0000      0.0000      0.0000
        46         0.0000     -0.0000     -0.7222      0.5216      0.3221
        47        -0.0000      0.0000     -0.0569      0.0032      0.0020
        48         0.0000     -0.2075     -0.0000      0.0431      0.0280
        49         0.0000     -0.3971      0.0000      0.1577      0.1063
        50         0.0000      0.0000     -0.5220      0.2725      0.1845
        51        -0.1185     -0.0000     -0.0000      0.0140      0.0096
        52        -0.0000     -0.0000      0.4724      0.2232      0.1532
        53        -0.0000      0.0000      0.0000      0.0000      0.0000
        54         0.0000      0.1511      0.0000      0.0228      0.0163
        55        -0.5970     -0.0000     -0.0000      0.3564      0.2591
        56        -0.0000      0.0000      0.0926      0.0086      0.0062
        57        -0.0000      0.6414      0.0000      0.4114      0.3003
        58        -0.0000     -0.0000     -0.0000      0.0000      0.0000
        59         0.0583     -0.0000      0.0000      0.0034      0.0026
        60        -0.0000      0.0000     -0.1243      0.0155      0.0120
        61         0.1114     -0.0000     -0.0000      0.0124      0.0098
        62         0.0000      0.0000     -0.1547      0.0239      0.0194
        63         0.0000     -0.0000     -0.0000      0.0000      0.0000
        64         0.0000      0.1195      0.0000      0.0143      0.0120
        65        -0.0000     -0.0000     -0.1331      0.0177      0.0150
        66        -0.0000     -0.1276     -0.0000      0.0163      0.0141
        67         0.0000      0.0446     -0.0000      0.0020      0.0017
        68        -0.0000     -0.2440      0.0000      0.0595      0.0546
        69        -0.0811     -0.0000     -0.0000      0.0066      0.0062
        70        -0.0000      0.0000     -0.0883      0.0078      0.0074
        71        -0.0000      0.0000      0.0427      0.0018      0.0017
        72        -0.0000      0.0633      0.0000      0.0040      0.0038
        73        -0.0366     -0.0000      0.0000      0.0013      0.0013
        74         0.0356     -0.0000     -0.0000      0.0013      0.0012
        75        -0.0000     -0.0000     -0.1700      0.0289      0.0286
        76         0.0000      0.0000      0.0000      0.0000      0.0000
        77         0.0000     -0.0000      0.0534      0.0028      0.0029
        78         0.0000      0.0000      0.0000      0.0000      0.0000
        79        -0.0000     -0.2298     -0.0000      0.0528      0.0579
        80         0.0000     -0.0000      0.0563      0.0032      0.0036
        81        -0.0000      0.0000      0.0000      0.0000      0.0000
        82         0.0000      0.1667      0.0000      0.0278      0.0334
        83         0.0000      0.0000      0.2831      0.0801      0.0983
        84        -0.2580      0.0000      0.0000      0.0666      0.0817
        85        -0.0000     -0.2341     -0.0000      0.0548      0.0689
        86         0.0000     -0.0000     -0.1117      0.0125      0.0159
        87        -0.0000      0.3075      0.0000      0.0945      0.1206
        88         0.0000      0.0000      0.0000      0.0000      0.0000
        89         0.0000      0.0000     -0.1113      0.0124      0.0166
        90        -0.0000      0.0000     -0.1713      0.0293      0.0399
        91         0.0000      0.0905     -0.0000      0.0082      0.0113
        92        -0.3000     -0.0000     -0.0000      0.0900      0.1243
        93         0.0199     -0.0000      0.0000      0.0004      0.0006
        94         0.0000     -0.0000     -0.2805      0.0787      0.1103
        95        -0.3846      0.0000     -0.0000      0.1479      0.2083
        96         0.0000      0.0000      0.0000      0.0000      0.0000
        97         0.3633     -0.0000     -0.0000      0.1320      0.1895
        98         0.0000      0.1050      0.0000      0.0110      0.0162
        99        -0.0000      0.0000      0.0000      0.0000      0.0000
       100        -0.0000      0.0000     -0.3936      0.1549      0.2313
       101         0.0000      0.0000     -0.0096      0.0001      0.0001
       102         0.0000      0.2160      0.0000      0.0467      0.0738
       103        -0.0000      0.2213     -0.0000      0.0490      0.0783
       104        -0.0000      0.0000      0.0000      0.0000      0.0000
       105         0.0000      0.0754     -0.0000      0.0057      0.0096
       106        -0.0000     -0.0000     -0.0000      0.0000      0.0000
       107        -0.0000     -0.0000      0.0445      0.0020      0.0034
       108        -0.2799      0.0000      0.0000      0.0783      0.1365
       109        -0.0000     -0.0000      0.0637      0.0041      0.0071
       110         0.1544     -0.0000     -0.0000      0.0238      0.0426
       111         0.0000      0.0000      0.1257      0.0158      0.0286
       112        -0.0000      0.0467     -0.0000      0.0022      0.0040
       113         0.0000      0.0577      0.0000      0.0033      0.0062
       114         0.0000      0.0000      0.0501      0.0025      0.0047
       115        -0.0000     -0.1035     -0.0000      0.0107      0.0222
       116         0.0000      0.0000     -0.2497      0.0624      0.1344
       117        -0.0000     -0.0000     -0.1326      0.0176      0.0382
       118        -0.1891      0.0000      0.0000      0.0358      0.0784
       119        -0.0000     -0.0000      0.0000      0.0000      0.0000
       120        -0.0000     -0.3052     -0.0000      0.0932      0.2053
       121         0.0904      0.0000      0.0000      0.0082      0.0184
       122        -0.0000      0.0000     -0.0000      0.0000      0.0000
       123        -0.2825      0.0000      0.0000      0.0798      0.1871
       124         0.0000     -0.0000     -0.3560      0.1267      0.2999
       125         0.0000      0.1738      0.0000      0.0302      0.0728
       126        -0.1355     -0.0000     -0.0000      0.0184      0.0472
       127         0.0000     -0.0000     -0.0612      0.0038      0.0097
       128         0.3274      0.0000      0.0000      0.1072      0.2778
       129        -0.0000      0.0000      0.0000      0.0000      0.0000
       130         0.0000     -0.1463     -0.0000      0.0214      0.0577
       131        -0.0000     -0.0000      0.0502      0.0025      0.0068
       132         0.0000     -0.0000     -0.0000      0.0000      0.0000
       133        -0.0000      0.2418      0.0000      0.0585      0.1684
       134        -0.0000      0.0000      0.1739      0.0302      0.0898
       135        -0.0000     -0.0000     -0.0809      0.0065      0.0195
       136         0.0000      0.0261      0.0000      0.0007      0.0022
 Ground to excited state transition velocity dipole moments (Au):
       state          X           Y           Z        Dip. S.      Osc.
         1         0.1414     -0.0000     -0.0000      0.0200      0.0526
         2         0.0000      0.0000      0.0000      0.0000      0.0000
         3         0.0000     -0.0000      0.2140      0.0458      0.0932
         4         0.0520      0.0000      0.0000      0.0027      0.0049
         5         0.0000      0.0000     -0.0051      0.0000      0.0000
         6        -0.0000     -0.0830     -0.0000      0.0069      0.0118
         7         0.0000      0.0000      0.0000      0.0000      0.0000
         8         0.1445     -0.0000     -0.0000      0.0209      0.0320
         9        -0.0182      0.0000      0.0000      0.0003      0.0005
        10         0.0000      0.0000      0.1481      0.0219      0.0323
        11        -0.0000      0.1460     -0.0000      0.0213      0.0300
        12         0.0000      0.1435     -0.0000      0.0206      0.0287
        13         0.2053     -0.0000     -0.0000      0.0421      0.0564
        14         0.0000      0.4933      0.0000      0.2433      0.3238
        15         0.0000     -0.0000      0.1918      0.0368      0.0482
        16         0.0000     -0.0000      0.1424      0.0203      0.0257
        17         0.0000      0.0000      0.0000      0.0000      0.0000
        18         0.0000     -0.0000      0.0005      0.0000      0.0000
        19        -0.0000      0.0000     -0.0000      0.0000      0.0000
        20         0.0000      0.1453      0.0000      0.0211      0.0239
        21        -0.0940     -0.0000      0.0000      0.0088      0.0099
        22        -0.0000      0.0000     -0.0000      0.0000      0.0000
        23        -0.0000      0.0000     -0.1913      0.0366      0.0405
        24         0.4181      0.0000      0.0000      0.1748      0.1931
        25        -0.0000     -0.0000     -0.0000      0.0000      0.0000
        26         0.0000      0.0000      0.5075      0.2576      0.2594
        27        -0.0000     -0.4359      0.0000      0.1900      0.1907
        28        -0.0000     -0.0000     -0.2089      0.0436      0.0435
        29        -0.0000      0.0948      0.0000      0.0090      0.0089
        30         0.3432      0.0000     -0.0000      0.1178      0.1121
        31        -0.0000     -0.1066     -0.0000      0.0114      0.0106
        32        -0.0000     -0.1845     -0.0000      0.0340      0.0315
        33        -0.0000      0.0000      0.0000      0.0000      0.0000
        34         0.0000     -0.0000     -0.0000      0.0000      0.0000
        35        -0.5157     -0.0000     -0.0000      0.2659      0.2238
        36        -0.0000     -0.1787     -0.0000      0.0319      0.0260
        37         0.0000      0.0000     -0.3226      0.1041      0.0846
        38         0.0000     -0.0000     -0.0771      0.0059      0.0047
        39         0.0000      0.0642      0.0000      0.0041      0.0033
        40        -0.0159      0.0000     -0.0000      0.0003      0.0002
        41        -0.0000      0.0000      0.2353      0.0554      0.0434
        42        -0.0000      0.7153      0.0000      0.5117      0.3884
        43        -0.0000      0.0000     -0.1872      0.0351      0.0266
        44        -0.6183     -0.0000      0.0000      0.3823      0.2838
        45         0.0000      0.0000     -0.0000      0.0000      0.0000
        46        -0.0000     -0.0000      0.7093      0.5031      0.3620
        47        -0.0000      0.0000      0.0831      0.0069      0.0049
        48        -0.0000      0.2049      0.0000      0.0420      0.0286
        49        -0.0000      0.3895     -0.0000      0.1517      0.1000
        50        -0.0000     -0.0000      0.5265      0.2772      0.1819
        51         0.0921      0.0000      0.0000      0.0085      0.0055
        52         0.0000      0.0000     -0.4826      0.2329      0.1508
        53        -0.0000      0.0000     -0.0000      0.0000      0.0000
        54        -0.0000     -0.1366     -0.0000      0.0187      0.0116
        55         0.6842     -0.0000     -0.0000      0.4682      0.2862
        56         0.0000     -0.0000     -0.1192      0.0142      0.0087
        57         0.0000     -0.7247     -0.0000      0.5251      0.3198
        58         0.0000      0.0000      0.0000      0.0000      0.0000
        59        -0.0877      0.0000      0.0000      0.0077      0.0045
        60         0.0000     -0.0000      0.1282      0.0164      0.0094
        61        -0.1227      0.0000      0.0000      0.0151      0.0085
        62        -0.0000     -0.0000      0.1976      0.0390      0.0215
        63         0.0000      0.0000      0.0000      0.0000      0.0000
        64        -0.0000     -0.1509     -0.0000      0.0228      0.0120
        65         0.0000      0.0000      0.1675      0.0281      0.0147
        66         0.0000      0.1297      0.0000      0.0168      0.0087
        67        -0.0000     -0.0651     -0.0000      0.0042      0.0021
        68         0.0000      0.3065      0.0000      0.0940      0.0455
        69         0.1456      0.0000      0.0000      0.0212      0.0099
        70         0.0000     -0.0000      0.1617      0.0261      0.0122
        71         0.0000     -0.0000     -0.0945      0.0089      0.0041
        72         0.0000     -0.0748      0.0000      0.0056      0.0026
        73         0.0767      0.0000      0.0000      0.0059      0.0027
        74        -0.0416      0.0000      0.0000      0.0017      0.0008
        75         0.0000      0.0000      0.2725      0.0743      0.0334
        76        -0.0000     -0.0000     -0.0000      0.0000      0.0000
        77        -0.0000     -0.0000     -0.1082      0.0117      0.0052
        78         0.0000      0.0000      0.0000      0.0000      0.0000
        79         0.0000      0.3824     -0.0000      0.1462      0.0592
        80        -0.0000      0.0000     -0.0730      0.0053      0.0021
        81         0.0000     -0.0000     -0.0000      0.0000      0.0000
        82        -0.0000     -0.3395     -0.0000      0.1153      0.0426
        83         0.0000     -0.0000     -0.5302      0.2811      0.1019
        84         0.5150     -0.0000     -0.0000      0.2652      0.0961
        85         0.0000      0.3843     -0.0000      0.1477      0.0522
        86        -0.0000     -0.0000      0.1874      0.0351      0.0123
        87         0.0000     -0.5974     -0.0000      0.3569      0.1243
        88        -0.0000     -0.0000      0.0000      0.0000      0.0000
        89         0.0000     -0.0000      0.1839      0.0338      0.0112
        90         0.0000     -0.0000      0.3349      0.1121      0.0367
        91        -0.0000     -0.1394      0.0000      0.0194      0.0063
        92         0.7021      0.0000      0.0000      0.4930      0.1587
        93        -0.0447     -0.0000      0.0000      0.0020      0.0006
        94        -0.0000     -0.0000      0.6231      0.3882      0.1231
        95         0.7258     -0.0000      0.0000      0.5268      0.1663
        96         0.0000     -0.0000     -0.0000      0.0000      0.0000
        97        -0.7194      0.0000      0.0000      0.5176      0.1602
        98        -0.0000     -0.2600     -0.0000      0.0676      0.0204
        99        -0.0000     -0.0000     -0.0000      0.0000      0.0000
       100         0.0000      0.0000      0.7546      0.5695      0.1695
       101        -0.0000     -0.0000     -0.0088      0.0001      0.0000
       102        -0.0000     -0.4459      0.0000      0.1989      0.0558
       103         0.0000     -0.5178      0.0000      0.2682      0.0745
       104         0.0000     -0.0000     -0.0000      0.0000      0.0000
       105        -0.0000     -0.1363      0.0000      0.0186      0.0049
       106         0.0000      0.0000      0.0000      0.0000      0.0000
       107         0.0000      0.0000     -0.0958      0.0092      0.0024
       108         0.5729     -0.0000     -0.0000      0.3282      0.0837
       109        -0.0000     -0.0000     -0.1549      0.0240      0.0061
       110        -0.3129      0.0000      0.0000      0.0979      0.0243
       111        -0.0000      0.0000     -0.3161      0.0999      0.0246
       112         0.0000     -0.1819      0.0000      0.0331      0.0079
       113        -0.0000     -0.1911     -0.0000      0.0365      0.0087
       114        -0.0000      0.0000     -0.0539      0.0029      0.0007
       115         0.0000      0.3763      0.0000      0.1416      0.0303
       116        -0.0000     -0.0000      0.6871      0.4721      0.0974
       117         0.0000     -0.0000      0.4420      0.1954      0.0400
       118         0.5183     -0.0000     -0.0000      0.2687      0.0545
       119         0.0000      0.0000     -0.0000      0.0000      0.0000
       120        -0.0000      0.9010      0.0000      0.8119      0.1637
       121        -0.2784     -0.0000     -0.0000      0.0775      0.0153
       122        -0.0000     -0.0000      0.0000      0.0000      0.0000
       123         0.8595     -0.0000     -0.0000      0.7388      0.1400
       124        -0.0000     -0.0000      1.1473      1.3163      0.2472
       125        -0.0000     -0.5943      0.0000      0.3532      0.0651
       126         0.4787      0.0000      0.0000      0.2292      0.0396
       127        -0.0000     -0.0000      0.1687      0.0285      0.0049
       128        -1.1510     -0.0000     -0.0000      1.3249      0.2273
       129        -0.0000     -0.0000      0.0000      0.0000      0.0000
       130        -0.0000      0.5222      0.0000      0.2727      0.0450
       131         0.0000     -0.0000     -0.1919      0.0368      0.0061
       132        -0.0000      0.0000      0.0000      0.0000      0.0000
       133         0.0000     -0.9372     -0.0000      0.8784      0.1356
       134         0.0000     -0.0000     -0.6982      0.4875      0.0729
       135         0.0000     -0.0000      0.3248      0.1055      0.0157
       136        -0.0000     -0.0942      0.0000      0.0089      0.0012
 Ground to excited state transition magnetic dipole moments (Au):
       state          X           Y           Z
         1         0.0000     -0.0719     -0.0000
         2        -0.0000     -0.0000     -0.0359
         3         0.0000      0.0000     -0.0000
         4        -0.0000     -0.0413      0.0000
         5        -0.0000     -0.0000      0.0000
         6         0.0580     -0.0000      0.0000
         7        -0.0000      0.0000      0.1998
         8         0.0000      0.1162     -0.0000
         9        -0.0000     -0.0307      0.0000
        10        -0.0000     -0.0000      0.0000
        11         0.1157      0.0000     -0.0000
        12         0.1805      0.0000      0.0000
        13         0.0000      0.0964     -0.0000
        14        -0.2702     -0.0000     -0.0000
        15         0.0000      0.0000      0.0000
        16         0.0000     -0.0000      0.0000
        17        -0.0000      0.0000      0.1771
        18        -0.0000     -0.0000      0.0000
        19         0.0000      0.0000      0.0423
        20         0.0361     -0.0000      0.0000
        21        -0.0000     -0.0148      0.0000
        22        -0.0000      0.0000      0.0723
        23        -0.0000      0.0000      0.0000
        24        -0.0000     -0.0656     -0.0000
        25         0.0000      0.0000     -0.1517
        26        -0.0000      0.0000     -0.0000
        27        -0.3324     -0.0000     -0.0000
        28        -0.0000      0.0000     -0.0000
        29         0.1471     -0.0000      0.0000
        30         0.0000     -0.1662     -0.0000
        31         0.1031      0.0000      0.0000
        32         0.1796      0.0000     -0.0000
        33         0.0000      0.0000      0.2226
        34         0.0000      0.0000      0.1474
        35         0.0000     -0.1214      0.0000
        36        -0.1069      0.0000     -0.0000
        37         0.0000      0.0000      0.0000
        38        -0.0000      0.0000     -0.0000
        39        -0.1530      0.0000      0.0000
        40         0.0000      0.0334     -0.0000
        41        -0.0000      0.0000      0.0000
        42        -0.2641      0.0000      0.0000
        43         0.0000      0.0000     -0.0000
        44        -0.0000     -0.0503      0.0000
        45         0.0000     -0.0000      0.1178
        46         0.0000     -0.0000      0.0000
        47         0.0000     -0.0000     -0.0000
        48        -0.0046      0.0000     -0.0000
        49         0.0199      0.0000     -0.0000
        50         0.0000      0.0000     -0.0000
        51        -0.0000      0.0234      0.0000
        52         0.0000     -0.0000      0.0000
        53         0.0000     -0.0000     -0.0876
        54         0.0960     -0.0000     -0.0000
        55        -0.0000     -0.0783      0.0000
        56        -0.0000     -0.0000      0.0000
        57        -0.3196      0.0000      0.0000
        58         0.0000     -0.0000     -0.1201
        59        -0.0000     -0.1131     -0.0000
        60         0.0000     -0.0000      0.0000
        61         0.0000      0.0417      0.0000
        62         0.0000      0.0000      0.0000
        63        -0.0000      0.0000      0.1177
        64        -0.0313     -0.0000     -0.0000
        65         0.0000     -0.0000      0.0000
        66        -0.1830     -0.0000      0.0000
        67        -0.0956      0.0000     -0.0000
        68        -0.0170      0.0000     -0.0000
        69        -0.0000     -0.0009      0.0000
        70         0.0000     -0.0000      0.0000
        71        -0.0000      0.0000     -0.0000
        72         0.0832     -0.0000      0.0000
        73        -0.0000      0.0343     -0.0000
        74         0.0000     -0.1033     -0.0000
        75        -0.0000     -0.0000     -0.0000
        76        -0.0000      0.0000     -0.1401
        77        -0.0000     -0.0000     -0.0000
        78         0.0000     -0.0000     -0.1559
        79         0.1993     -0.0000      0.0000
        80        -0.0000     -0.0000     -0.0000
        81         0.0000     -0.0000     -0.0428
        82         0.2997      0.0000     -0.0000
        83        -0.0000     -0.0000     -0.0000
        84         0.0000      0.1405     -0.0000
        85        -0.1297     -0.0000      0.0000
        86         0.0000      0.0000     -0.0000
        87         0.1784      0.0000     -0.0000
        88        -0.0000      0.0000      0.2883
        89         0.0000     -0.0000     -0.0000
        90        -0.0000     -0.0000      0.0000
        91        -0.1430      0.0000     -0.0000
        92        -0.0000      0.1286      0.0000
        93        -0.0000      0.0435     -0.0000
        94         0.0000      0.0000      0.0000
        95         0.0000     -0.2365      0.0000
        96         0.0000     -0.0000     -0.0480
        97         0.0000      0.0926      0.0000
        98        -0.1861      0.0000     -0.0000
        99         0.0000      0.0000      0.4513
       100         0.0000     -0.0000      0.0000
       101        -0.0000      0.0000     -0.0000
       102        -0.3835      0.0000      0.0000
       103        -0.1600     -0.0000      0.0000
       104         0.0000     -0.0000     -0.0921
       105         0.0423      0.0000     -0.0000
       106         0.0000      0.0000     -0.3375
       107         0.0000     -0.0000      0.0000
       108         0.0000      0.1411      0.0000
       109        -0.0000      0.0000      0.0000
       110         0.0000      0.1557     -0.0000
       111        -0.0000      0.0000     -0.0000
       112         0.2622     -0.0000     -0.0000
       113        -0.1464      0.0000     -0.0000
       114        -0.0000     -0.0000     -0.0000
       115        -0.0931     -0.0000      0.0000
       116         0.0000     -0.0000      0.0000
       117        -0.0000     -0.0000      0.0000
       118         0.0000      0.1115      0.0000
       119         0.0000      0.0000     -0.0616
       120        -0.1245     -0.0000      0.0000
       121         0.0000     -0.0429     -0.0000
       122        -0.0000     -0.0000     -0.0652
       123         0.0000      0.2000      0.0000
       124        -0.0000      0.0000      0.0000
       125         0.2021      0.0000     -0.0000
       126        -0.0000      0.0761      0.0000
       127         0.0000      0.0000     -0.0000
       128         0.0000     -0.1958      0.0000
       129        -0.0000      0.0000     -0.0099
       130        -0.1090     -0.0000     -0.0000
       131         0.0000     -0.0000     -0.0000
       132        -0.0000      0.0000      0.0242
       133         0.1491     -0.0000      0.0000
       134         0.0000     -0.0000      0.0000
       135        -0.0000     -0.0000     -0.0000
       136         0.0121      0.0000     -0.0000
 Ground to excited state transition velocity quadrupole moments (Au):
       state          XX          YY          ZZ          XY          XZ          YZ
         1         0.0000      0.0000      0.0000     -0.0000     -0.0678     -0.0000
         2        -0.0000     -0.0000     -0.0000      0.2449      0.0000      0.0000
         3         0.1045     -0.1392     -0.1695     -0.0000      0.0000      0.0000
         4        -0.0000     -0.0000     -0.0000      0.0000      0.3629     -0.0000
         5         0.8928      0.0275      0.0013     -0.0000     -0.0000     -0.0000
         6         0.0000      0.0000      0.0000      0.0000     -0.0000      0.3672
         7        -0.0000     -0.0000     -0.0000      0.2517     -0.0000     -0.0000
         8         0.0000      0.0000      0.0000     -0.0000      0.0939      0.0000
         9         0.0000     -0.0000      0.0000     -0.0000      0.2998      0.0000
        10         0.4731     -0.0799      0.8177     -0.0000     -0.0000     -0.0000
        11         0.0000      0.0000      0.0000      0.0000     -0.0000     -0.1799
        12         0.0000      0.0000      0.0000     -0.0000      0.0000     -0.2354
        13         0.0000      0.0000      0.0000     -0.0000      0.0259      0.0000
        14        -0.0000     -0.0000     -0.0000     -0.0000     -0.0000     -0.2964
        15         0.0928      0.2317     -0.1034      0.0000      0.0000     -0.0000
        16         0.0042      0.1867      0.0824     -0.0000      0.0000      0.0000
        17        -0.0000     -0.0000      0.0000     -0.2376      0.0000      0.0000
        18         0.2640      0.7706      0.1778     -0.0000     -0.0000     -0.0000
        19         0.0000      0.0000      0.0000      0.2603     -0.0000      0.0000
        20         0.0000      0.0000     -0.0000     -0.0000      0.0000      0.1978
        21         0.0000      0.0000      0.0000      0.0000     -0.0296      0.0000
        22        -0.0000     -0.0000     -0.0000     -0.0946     -0.0000      0.0000
        23         0.4348      0.6110      0.4324     -0.0000      0.0000     -0.0000
        24        -0.0000     -0.0000     -0.0000     -0.0000     -0.1227      0.0000
        25         0.0000      0.0000      0.0000      0.3810      0.0000      0.0000
        26        -0.0910     -0.5463     -0.6221     -0.0000     -0.0000     -0.0000
        27        -0.0000     -0.0000     -0.0000      0.0000     -0.0000      0.3535
        28        -0.0470     -0.2121      0.1459     -0.0000      0.0000      0.0000
        29        -0.0000      0.0000     -0.0000     -0.0000      0.0000      0.2552
        30        -0.0000      0.0000      0.0000     -0.0000     -0.3503     -0.0000
        31        -0.0000     -0.0000     -0.0000     -0.0000      0.0000      0.0957
        32        -0.0000     -0.0000     -0.0000      0.0000      0.0000      0.6462
        33        -0.0000      0.0000      0.0000     -0.5350      0.0000     -0.0000
        34         0.0000      0.0000      0.0000      0.2104      0.0000      0.0000
        35         0.0000      0.0000      0.0000     -0.0000      0.0247      0.0000
        36         0.0000      0.0000      0.0000      0.0000      0.0000     -0.0556
        37        -0.1221      0.2757     -0.2433     -0.0000     -0.0000      0.0000
        38        -0.0253     -1.0460      0.5757     -0.0000      0.0000     -0.0000
        39        -0.0000     -0.0000      0.0000     -0.0000      0.0000      0.2772
        40        -0.0000     -0.0000      0.0000     -0.0000     -0.0127      0.0000
        41        -0.2878      0.7438      0.1194      0.0000      0.0000     -0.0000
        42        -0.0000     -0.0000     -0.0000     -0.0000      0.0000      0.5568
        43         0.2236     -0.0433      0.1995      0.0000      0.0000      0.0000
        44         0.0000     -0.0000      0.0000      0.0000     -0.5325      0.0000
        45        -0.0000      0.0000     -0.0000      0.4842     -0.0000     -0.0000
        46        -0.4681     -0.6600      0.1738     -0.0000     -0.0000      0.0000
        47         0.3203      0.7967      0.9233      0.0000      0.0000     -0.0000
        48         0.0000     -0.0000      0.0000      0.0000      0.0000     -0.2455
        49        -0.0000      0.0000     -0.0000      0.0000      0.0000      0.6064
        50         0.1932      0.6941      0.6790      0.0000      0.0000      0.0000
        51        -0.0000     -0.0000     -0.0000     -0.0000     -0.0439      0.0000
        52        -0.0192      0.0001     -0.4950     -0.0000      0.0000     -0.0000
        53        -0.0000      0.0000      0.0000     -0.3423     -0.0000      0.0000
        54        -0.0000     -0.0000     -0.0000      0.0000      0.0000      0.6860
        55         0.0000     -0.0000     -0.0000     -0.0000      0.3899      0.0000
        56         0.2094     -1.0223      0.2153     -0.0000     -0.0000      0.0000
        57         0.0000      0.0000      0.0000     -0.0000     -0.0000     -0.3614
        58         0.0000     -0.0000     -0.0000      0.6395     -0.0000     -0.0000
        59         0.0000     -0.0000      0.0000      0.0000      0.1649     -0.0000
        60         0.3982     -0.2127     -0.8940     -0.0000     -0.0000     -0.0000
        61         0.0000     -0.0000     -0.0000     -0.0000      0.6325     -0.0000
        62         0.4484     -0.6338      0.4816     -0.0000      0.0000     -0.0000
        63         0.0000      0.0000      0.0000      0.4634      0.0000     -0.0000
        64         0.0000     -0.0000      0.0000      0.0000     -0.0000      0.0217
        65        -0.3895     -0.8755     -0.3119     -0.0000     -0.0000     -0.0000
        66        -0.0000     -0.0000     -0.0000     -0.0000     -0.0000     -0.3931
        67         0.0000     -0.0000     -0.0000     -0.0000      0.0000     -0.2548
        68        -0.0000      0.0000     -0.0000     -0.0000     -0.0000     -0.7316
        69        -0.0000     -0.0000     -0.0000      0.0000      0.4128     -0.0000
        70        -1.1587      0.3749      0.3324     -0.0000     -0.0000     -0.0000
        71         0.3685      0.4432     -0.2341      0.0000     -0.0000     -0.0000
        72        -0.0000      0.0000     -0.0000     -0.0000     -0.0000      0.9006
        73         0.0000     -0.0000     -0.0000      0.0000     -0.3317     -0.0000
        74         0.0000     -0.0000     -0.0000      0.0000     -0.7068     -0.0000
        75         0.6957     -0.5257      0.2183      0.0000     -0.0000     -0.0000
        76        -0.0000      0.0000      0.0000      0.8550      0.0000     -0.0000
        77        -0.0377     -0.8217      0.8970      0.0000     -0.0000     -0.0000
        78         0.0000      0.0000      0.0000      0.2635      0.0000     -0.0000
        79         0.0000      0.0000      0.0000     -0.0000     -0.0000     -0.1527
        80         0.7115      0.3458      1.3207      0.0000      0.0000      0.0000
        81         0.0000      0.0000      0.0000     -0.4455      0.0000      0.0000
        82         0.0000     -0.0000     -0.0000      0.0000      0.0000      0.1105
        83         0.1817      0.3064      0.8184      0.0000      0.0000     -0.0000
        84         0.0000      0.0000      0.0000     -0.0000      0.0883      0.0000
        85         0.0000      0.0000      0.0000     -0.0000     -0.0000     -0.6060
        86         0.0690      0.4320     -0.0553      0.0000      0.0000      0.0000
        87        -0.0000      0.0000     -0.0000      0.0000      0.0000      0.3806
        88        -0.0000      0.0000      0.0000     -0.7521     -0.0000      0.0000
        89         0.0208     -1.4899     -0.2137      0.0000      0.0000      0.0000
        90         1.1876      0.1637     -0.0620     -0.0000     -0.0000     -0.0000
        91         0.0000      0.0000      0.0000      0.0000      0.0000      0.6855
        92         0.0000     -0.0000     -0.0000      0.0000      0.0307      0.0000
        93         0.0000     -0.0000      0.0000      0.0000      0.3578     -0.0000
        94         0.4536      1.2784      0.2982      0.0000      0.0000      0.0000
        95        -0.0000      0.0000     -0.0000     -0.0000     -0.4593     -0.0000
        96         0.0000      0.0000      0.0000     -0.3511      0.0000      0.0000
        97         0.0000      0.0000     -0.0000     -0.0000      0.7687     -0.0000
        98         0.0000     -0.0000     -0.0000      0.0000      0.0000     -0.6954
        99        -0.0000      0.0000      0.0000     -1.0818      0.0000      0.0000
       100         0.5848      0.2959     -0.2724     -0.0000     -0.0000      0.0000
       101        -0.5523      1.2841     -1.0535      0.0000      0.0000      0.0000
       102         0.0000     -0.0000      0.0000      0.0000     -0.0000     -0.3316
       103         0.0000     -0.0000     -0.0000     -0.0000     -0.0000     -0.7197
       104         0.0000      0.0000      0.0000      0.2965     -0.0000      0.0000
       105         0.0000     -0.0000      0.0000      0.0000     -0.0000     -0.4739
       106         0.0000     -0.0000     -0.0000      0.8639     -0.0000     -0.0000
       107         1.2380      0.4431      1.1666     -0.0000     -0.0000      0.0000
       108         0.0000      0.0000      0.0000     -0.0000     -0.0023      0.0000
       109         0.1049     -0.3453      0.1770     -0.0000      0.0000      0.0000
       110         0.0000     -0.0000     -0.0000      0.0000      0.6015     -0.0000
       111         0.7304     -0.3076     -0.0181     -0.0000     -0.0000      0.0000
       112         0.0000     -0.0000      0.0000     -0.0000     -0.0000     -0.2488
       113         0.0000     -0.0000     -0.0000      0.0000      0.0000     -0.3401
       114        -0.5894     -0.6830      0.6237      0.0000      0.0000     -0.0000
       115         0.0000      0.0000      0.0000     -0.0000     -0.0000     -0.0239
       116        -0.2053      0.4751      0.2585      0.0000      0.0000     -0.0000
       117         0.3201     -0.0956     -0.2037     -0.0000     -0.0000     -0.0000
       118         0.0000      0.0000      0.0000      0.0000      0.2583      0.0000
       119         0.0000      0.0000      0.0000      0.5787     -0.0000      0.0000
       120         0.0000     -0.0000      0.0000      0.0000      0.0000      0.4993
       121         0.0000     -0.0000      0.0000      0.0000     -0.2116      0.0000
       122         0.0000      0.0000      0.0000      0.4268     -0.0000      0.0000
       123         0.0000      0.0000      0.0000     -0.0000      0.6402      0.0000
       124        -0.2820     -0.2493      1.2175      0.0000      0.0000      0.0000
       125        -0.0000     -0.0000     -0.0000     -0.0000      0.0000     -0.1067
       126        -0.0000     -0.0000     -0.0000      0.0000      0.6869     -0.0000
       127        -0.2568      0.4716     -0.0337      0.0000      0.0000     -0.0000
       128        -0.0000      0.0000      0.0000     -0.0000     -0.2546      0.0000
       129        -0.0000     -0.0000     -0.0000      0.4003     -0.0000      0.0000
       130         0.0000     -0.0000      0.0000      0.0000      0.0000      0.3814
       131        -0.1317     -0.1164      0.2203     -0.0000     -0.0000     -0.0000
       132        -0.0000     -0.0000     -0.0000      0.2909      0.0000     -0.0000
       133        -0.0000      0.0000     -0.0000     -0.0000     -0.0000     -0.5426
       134         0.1172     -0.1789     -0.6163     -0.0000     -0.0000      0.0000
       135        -0.4580      0.2200      0.2644     -0.0000     -0.0000      0.0000
       136         0.0000      0.0000      0.0000      0.0000      0.0000     -0.2394
 <0|del|b> * <b|rxdel|0> + <0|del|b> * <b|delr+rdel|0>
 Rotatory Strengths (R) in cgs (10**-40 erg-esu-cm/Gauss)
       state          XX          YY          ZZ    R(velocity)    E-M Angle
         1         0.0000     -0.0000      0.0000      0.0000       90.00
         2         0.0000     -0.0000     -0.0000     -0.0000       90.00
         3        -0.0000      0.0000     -0.0000     -0.0000       90.00
         4        -0.0000     -0.0000      0.0000     -0.0000       90.00
         5        -0.0000     -0.0000     -0.0000     -0.0000       90.00
         6         0.0000     -0.0000      0.0000      0.0000       90.00
         7         0.0000     -0.0000      0.0000      0.0000       90.00
         8        -0.0000      0.0000     -0.0000     -0.0000       90.00
         9        -0.0000      0.0000      0.0000     -0.0000       90.00
        10        -0.0000      0.0000     -0.0000      0.0000       90.00
        11         0.0000      0.0000     -0.0000     -0.0000       90.00
        12         0.0000     -0.0000      0.0000      0.0000       90.00
        13        -0.0000      0.0000     -0.0000     -0.0000       90.00
        14         0.0000     -0.0000     -0.0000     -0.0000       90.00
        15         0.0000     -0.0000      0.0000      0.0000       90.00
        16         0.0000      0.0000      0.0000      0.0000       90.00
        17        -0.0000      0.0000      0.0000      0.0000       90.00
        18         0.0000      0.0000      0.0000      0.0000       90.00
        19        -0.0000      0.0000     -0.0000     -0.0000       90.00
        20        -0.0000      0.0000     -0.0000     -0.0000       90.00
        21        -0.0000      0.0000      0.0000      0.0000       90.00
        22         0.0000     -0.0000      0.0000     -0.0000       90.00
        23        -0.0000     -0.0000      0.0000     -0.0000       90.00
        24         0.0000     -0.0000     -0.0000     -0.0000       90.00
        25        -0.0000      0.0000      0.0000      0.0000       90.00
        26        -0.0000      0.0000     -0.0000     -0.0000       90.00
        27         0.0000     -0.0000      0.0000      0.0000       90.00
        28         0.0000      0.0000     -0.0000      0.0000       90.00
        29        -0.0000     -0.0000     -0.0000     -0.0000       90.00
        30         0.0000      0.0000     -0.0000      0.0000       90.00
        31        -0.0000     -0.0000     -0.0000     -0.0000       90.00
        32        -0.0000     -0.0000     -0.0000     -0.0000       90.00
        33        -0.0000      0.0000      0.0000      0.0000       90.00
        34        -0.0000      0.0000     -0.0000     -0.0000       90.00
        35         0.0000     -0.0000      0.0000      0.0000       90.00
        36        -0.0000      0.0000     -0.0000     -0.0000       90.00
        37        -0.0000     -0.0000      0.0000     -0.0000       90.00
        38         0.0000      0.0000     -0.0000      0.0000       90.00
        39         0.0000      0.0000     -0.0000      0.0000       90.00
        40         0.0000     -0.0000      0.0000      0.0000       90.00
        41         0.0000     -0.0000      0.0000      0.0000       90.00
        42         0.0000     -0.0000      0.0000      0.0000       90.00
        43         0.0000      0.0000      0.0000      0.0000       90.00
        44        -0.0000      0.0000      0.0000      0.0000       90.00
        45        -0.0000      0.0000      0.0000     -0.0000       90.00
        46         0.0000      0.0000      0.0000      0.0000       90.00
        47        -0.0000     -0.0000     -0.0000     -0.0000       90.00
        48         0.0000      0.0000     -0.0000      0.0000       90.00
        49        -0.0000     -0.0000      0.0000      0.0000       90.00
        50        -0.0000     -0.0000     -0.0000     -0.0000       90.00
        51         0.0000      0.0000     -0.0000      0.0000       90.00
        52        -0.0000     -0.0000      0.0000     -0.0000       90.00
        53         0.0000     -0.0000     -0.0000      0.0000       90.00
        54         0.0000     -0.0000      0.0000     -0.0000       90.00
        55         0.0000      0.0000     -0.0000     -0.0000       90.00
        56         0.0000     -0.0000     -0.0000     -0.0000       90.00
        57        -0.0000     -0.0000      0.0000     -0.0000       90.00
        58         0.0000     -0.0000     -0.0000     -0.0000       90.00
        59        -0.0000      0.0000     -0.0000     -0.0000       90.00
        60        -0.0000      0.0000      0.0000      0.0000       90.00
        61        -0.0000     -0.0000      0.0000     -0.0000       90.00
        62        -0.0000      0.0000     -0.0000      0.0000       90.00
        63         0.0000     -0.0000      0.0000      0.0000       90.00
        64        -0.0000      0.0000      0.0000      0.0000       90.00
        65        -0.0000      0.0000      0.0000      0.0000       90.00
        66         0.0000     -0.0000      0.0000     -0.0000       90.00
        67        -0.0000      0.0000     -0.0000     -0.0000       90.00
        68         0.0000     -0.0000      0.0000      0.0000       90.00
        69        -0.0000     -0.0000      0.0000     -0.0000       90.00
        70        -0.0000      0.0000      0.0000      0.0000       90.00
        71         0.0000      0.0000      0.0000      0.0000       90.00
        72        -0.0000      0.0000     -0.0000      0.0000       90.00
        73         0.0000     -0.0000     -0.0000     -0.0000       90.00
        74         0.0000     -0.0000     -0.0000     -0.0000       90.00
        75        -0.0000     -0.0000     -0.0000     -0.0000       90.00
        76        -0.0000      0.0000     -0.0000      0.0000       90.00
        77        -0.0000      0.0000      0.0000      0.0000       90.00
        78         0.0000     -0.0000      0.0000     -0.0000       90.00
        79         0.0000      0.0000      0.0000      0.0000       90.00
        80         0.0000      0.0000      0.0000      0.0000       90.00
        81         0.0000     -0.0000      0.0000      0.0000       90.00
        82        -0.0000     -0.0000     -0.0000     -0.0000       90.00
        83        -0.0000      0.0000      0.0000      0.0000       90.00
        84        -0.0000      0.0000     -0.0000     -0.0000       90.00
        85        -0.0000     -0.0000      0.0000     -0.0000       90.00
        86        -0.0000     -0.0000     -0.0000     -0.0000       90.00
        87         0.0000      0.0000     -0.0000     -0.0000       90.00
        88        -0.0000      0.0000     -0.0000      0.0000       90.00
        89        -0.0000     -0.0000      0.0000     -0.0000       90.00
        90         0.0000      0.0000     -0.0000      0.0000       90.00
        91         0.0000     -0.0000      0.0000      0.0000       90.00
        92         0.0000     -0.0000     -0.0000     -0.0000       90.00
        93         0.0000      0.0000     -0.0000      0.0000       90.00
        94         0.0000      0.0000     -0.0000      0.0000       90.00
        95        -0.0000     -0.0000      0.0000      0.0000       90.00
        96         0.0000     -0.0000     -0.0000      0.0000       90.00
        97        -0.0000      0.0000     -0.0000     -0.0000       90.00
        98        -0.0000      0.0000     -0.0000     -0.0000       90.00
        99         0.0000     -0.0000     -0.0000     -0.0000       90.00
       100        -0.0000      0.0000     -0.0000      0.0000       90.00
       101         0.0000      0.0000      0.0000      0.0000       90.00
       102        -0.0000      0.0000      0.0000     -0.0000       90.00
       103        -0.0000     -0.0000      0.0000     -0.0000       90.00
       104        -0.0000      0.0000      0.0000      0.0000       90.00
       105        -0.0000      0.0000     -0.0000     -0.0000       90.00
       106         0.0000     -0.0000      0.0000     -0.0000       90.00
       107         0.0000     -0.0000     -0.0000     -0.0000       90.00
       108        -0.0000      0.0000     -0.0000     -0.0000       90.00
       109        -0.0000     -0.0000     -0.0000     -0.0000       90.00
       110        -0.0000      0.0000      0.0000      0.0000       90.00
       111         0.0000      0.0000      0.0000      0.0000       90.00
       112         0.0000      0.0000      0.0000      0.0000       90.00
       113        -0.0000      0.0000     -0.0000      0.0000       90.00
       114        -0.0000      0.0000      0.0000      0.0000       90.00
       115         0.0000     -0.0000     -0.0000     -0.0000       90.00
       116         0.0000     -0.0000     -0.0000      0.0000       90.00
       117        -0.0000      0.0000      0.0000      0.0000       90.00
       118         0.0000      0.0000     -0.0000      0.0000       90.00
       119        -0.0000      0.0000      0.0000      0.0000       90.00
       120        -0.0000     -0.0000     -0.0000     -0.0000       90.00
       121        -0.0000     -0.0000      0.0000     -0.0000       90.00
       122         0.0000     -0.0000      0.0000     -0.0000       90.00
       123         0.0000      0.0000     -0.0000     -0.0000       90.00
       124         0.0000      0.0000     -0.0000      0.0000       90.00
       125         0.0000     -0.0000     -0.0000     -0.0000       90.00
       126        -0.0000     -0.0000      0.0000      0.0000       90.00
       127         0.0000     -0.0000     -0.0000     -0.0000       90.00
       128        -0.0000     -0.0000      0.0000      0.0000       90.00
       129         0.0000     -0.0000      0.0000     -0.0000       90.00
       130        -0.0000     -0.0000      0.0000      0.0000       90.00
       131         0.0000     -0.0000      0.0000      0.0000       90.00
       132         0.0000     -0.0000      0.0000      0.0000       90.00
       133         0.0000     -0.0000      0.0000      0.0000       90.00
       134        -0.0000     -0.0000      0.0000     -0.0000       90.00
       135        -0.0000      0.0000     -0.0000     -0.0000       90.00
       136         0.0000      0.0000     -0.0000     -0.0000       90.00
 1/2[<0|r|b>*<b|rxdel|0> + (<0|rxdel|b>*<b|r|0>)*]
 Rotatory Strengths (R) in cgs (10**-40 erg-esu-cm/Gauss)
       state          XX          YY          ZZ     R(length)
         1         0.0000      0.0000     -0.0000      0.0000
         2         0.0000     -0.0000     -0.0000     -0.0000
         3         0.0000     -0.0000     -0.0000     -0.0000
         4        -0.0000     -0.0000      0.0000     -0.0000
         5         0.0000     -0.0000     -0.0000     -0.0000
         6        -0.0000      0.0000     -0.0000      0.0000
         7         0.0000      0.0000      0.0000      0.0000
         8         0.0000     -0.0000      0.0000     -0.0000
         9         0.0000     -0.0000     -0.0000      0.0000
        10        -0.0000     -0.0000      0.0000      0.0000
        11         0.0000      0.0000      0.0000      0.0000
        12        -0.0000      0.0000      0.0000      0.0000
        13         0.0000     -0.0000      0.0000     -0.0000
[...]
      3  -0.127629D+00  0.445955D-01 -0.243983D+00  0.000000D+00  0.000000D+00
      4   0.000000D+00  0.000000D+00  0.000000D+00  0.000000D+00 -0.882740D-01
      5   0.000000D+00  0.000000D+00  0.000000D+00  0.145578D+00  0.000000D+00
      6   0.129712D+00 -0.650988D-01  0.306536D+00  0.000000D+00  0.000000D+00
      7   0.000000D+00  0.000000D+00  0.000000D+00  0.000000D+00  0.161709D+00
      8  -0.182981D+00 -0.955897D-01 -0.170091D-01  0.000000D+00  0.000000D+00
      9   0.000000D+00  0.000000D+00  0.000000D+00 -0.858618D-03  0.000000D+00
     10   0.000000D+00  0.000000D+00  0.000000D+00  0.000000D+00  0.000000D+00
     11   0.000000D+00  0.000000D+00  0.000000D+00  0.000000D+00 -0.115874D+01
     12   0.000000D+00  0.000000D+00  0.000000D+00  0.000000D+00  0.374947D+00
     13   0.000000D+00  0.000000D+00  0.000000D+00  0.000000D+00  0.332443D+00
     14   0.000000D+00  0.000000D+00  0.000000D+00  0.000000D+00  0.000000D+00
     15   0.000000D+00  0.000000D+00  0.000000D+00  0.412774D+00  0.000000D+00
     16  -0.393068D+00 -0.254777D+00 -0.731556D+00  0.000000D+00  0.000000D+00
                71            72            73            74            75 
      1  -0.749167D+02 -0.749166D+02 -0.748795D+02 -0.748745D+02 -0.748691D+02
      2   0.000000D+00  0.000000D+00 -0.365955D-01  0.355945D-01  0.000000D+00
      3   0.000000D+00  0.633274D-01  0.000000D+00  0.000000D+00  0.000000D+00
      4   0.426634D-01  0.000000D+00  0.000000D+00  0.000000D+00 -0.170040D+00
      5   0.000000D+00  0.000000D+00  0.767146D-01 -0.416206D-01  0.000000D+00
      6   0.000000D+00 -0.747844D-01  0.000000D+00  0.000000D+00  0.000000D+00
      7  -0.945092D-01  0.000000D+00  0.000000D+00  0.000000D+00  0.272522D+00
      8   0.000000D+00  0.832196D-01  0.000000D+00  0.000000D+00  0.000000D+00
      9   0.000000D+00  0.000000D+00  0.343429D-01 -0.103295D+00  0.000000D+00
     10   0.000000D+00  0.000000D+00  0.000000D+00  0.000000D+00  0.000000D+00
     11   0.368506D+00  0.000000D+00  0.000000D+00  0.000000D+00  0.695701D+00
     12   0.443216D+00  0.000000D+00  0.000000D+00  0.000000D+00 -0.525717D+00
     13  -0.234125D+00  0.000000D+00  0.000000D+00  0.000000D+00  0.218329D+00
     14   0.000000D+00  0.000000D+00  0.000000D+00  0.000000D+00  0.000000D+00
     15   0.000000D+00  0.000000D+00 -0.331673D+00 -0.706848D+00  0.000000D+00
     16   0.000000D+00  0.900620D+00  0.000000D+00  0.000000D+00  0.000000D+00
                76            77            78            79            80 
      1  -0.748418D+02 -0.748402D+02 -0.747340D+02 -0.747076D+02 -0.746497D+02
      2   0.000000D+00  0.000000D+00  0.000000D+00  0.000000D+00  0.000000D+00
      3   0.000000D+00  0.000000D+00  0.000000D+00 -0.229835D+00  0.000000D+00
      4   0.000000D+00  0.533642D-01  0.000000D+00  0.000000D+00  0.562845D-01
      5   0.000000D+00  0.000000D+00  0.000000D+00  0.000000D+00  0.000000D+00
      6   0.000000D+00  0.000000D+00  0.000000D+00  0.382363D+00  0.000000D+00
      7   0.000000D+00 -0.108179D+00  0.000000D+00  0.000000D+00 -0.729983D-01
      8   0.000000D+00  0.000000D+00  0.000000D+00  0.199268D+00  0.000000D+00
      9   0.000000D+00  0.000000D+00  0.000000D+00  0.000000D+00  0.000000D+00
     10  -0.140078D+00  0.000000D+00 -0.155948D+00  0.000000D+00  0.000000D+00
     11   0.000000D+00 -0.377038D-01  0.000000D+00  0.000000D+00  0.711501D+00
     12   0.000000D+00 -0.821728D+00  0.000000D+00  0.000000D+00  0.345793D+00
     13   0.000000D+00  0.897018D+00  0.000000D+00  0.000000D+00  0.132066D+01
     14   0.855021D+00  0.000000D+00  0.263531D+00  0.000000D+00  0.000000D+00
     15   0.000000D+00  0.000000D+00  0.000000D+00  0.000000D+00  0.000000D+00
     16   0.000000D+00  0.000000D+00  0.000000D+00 -0.152715D+00  0.000000D+00
                81            82            83            84            85 
      1  -0.746304D+02 -0.745498D+02 -0.745142D+02 -0.745125D+02 -0.744673D+02
      2   0.000000D+00  0.000000D+00  0.000000D+00 -0.258029D+00  0.000000D+00
      3   0.000000D+00  0.166650D+00  0.000000D+00  0.000000D+00 -0.234132D+00
      4   0.000000D+00  0.000000D+00  0.283091D+00  0.000000D+00  0.000000D+00
      5   0.000000D+00  0.000000D+00  0.000000D+00  0.515009D+00  0.000000D+00
      6   0.000000D+00 -0.339517D+00  0.000000D+00  0.000000D+00  0.384270D+00
      7   0.000000D+00  0.000000D+00 -0.530205D+00  0.000000D+00  0.000000D+00
      8   0.000000D+00  0.299694D+00  0.000000D+00  0.000000D+00 -0.129725D+00
      9   0.000000D+00  0.000000D+00  0.000000D+00  0.140468D+00  0.000000D+00
     10  -0.428207D-01  0.000000D+00  0.000000D+00  0.000000D+00  0.000000D+00
     11   0.000000D+00  0.000000D+00  0.181671D+00  0.000000D+00  0.000000D+00
     12   0.000000D+00  0.000000D+00  0.306422D+00  0.000000D+00  0.000000D+00
     13   0.000000D+00  0.000000D+00  0.818409D+00  0.000000D+00  0.000000D+00
     14  -0.445524D+00  0.000000D+00  0.000000D+00  0.000000D+00  0.000000D+00
     15   0.000000D+00  0.000000D+00  0.000000D+00  0.882784D-01  0.000000D+00
     16   0.000000D+00  0.110462D+00  0.000000D+00  0.000000D+00 -0.605983D+00
                86            87            88            89            90 
      1  -0.744468D+02 -0.744389D+02 -0.744163D+02 -0.743407D+02 -0.743150D+02
      2   0.000000D+00  0.000000D+00  0.000000D+00  0.000000D+00  0.000000D+00
      3   0.000000D+00  0.307453D+00  0.000000D+00  0.000000D+00  0.000000D+00
      4  -0.111702D+00  0.000000D+00  0.000000D+00 -0.111318D+00 -0.171278D+00
      5   0.000000D+00  0.000000D+00  0.000000D+00  0.000000D+00  0.000000D+00
      6   0.000000D+00 -0.597419D+00  0.000000D+00  0.000000D+00  0.000000D+00
      7   0.187445D+00  0.000000D+00  0.000000D+00  0.183890D+00  0.334878D+00
      8   0.000000D+00  0.178409D+00  0.000000D+00  0.000000D+00  0.000000D+00
      9   0.000000D+00  0.000000D+00  0.000000D+00  0.000000D+00  0.000000D+00
     10   0.000000D+00  0.000000D+00  0.288314D+00  0.000000D+00  0.000000D+00
     11   0.690148D-01  0.000000D+00  0.000000D+00  0.207789D-01  0.118758D+01
     12   0.431989D+00  0.000000D+00  0.000000D+00 -0.148987D+01  0.163659D+00
     13  -0.553084D-01  0.000000D+00  0.000000D+00 -0.213720D+00 -0.620163D-01
     14   0.000000D+00  0.000000D+00 -0.752097D+00  0.000000D+00  0.000000D+00
     15   0.000000D+00  0.000000D+00  0.000000D+00  0.000000D+00  0.000000D+00
     16   0.000000D+00  0.380602D+00  0.000000D+00  0.000000D+00  0.000000D+00
                91            92            93            94            95 
      1  -0.742881D+02 -0.742819D+02 -0.742618D+02 -0.742502D+02 -0.742413D+02
      2   0.000000D+00 -0.300049D+00  0.199074D-01  0.000000D+00 -0.384622D+00
      3   0.904777D-01  0.000000D+00  0.000000D+00  0.000000D+00  0.000000D+00
      4   0.000000D+00  0.000000D+00  0.000000D+00 -0.280487D+00  0.000000D+00
      5   0.000000D+00  0.702120D+00 -0.446764D-01  0.000000D+00  0.725793D+00
      6  -0.139415D+00  0.000000D+00  0.000000D+00  0.000000D+00  0.000000D+00
      7   0.000000D+00  0.000000D+00  0.000000D+00  0.623057D+00  0.000000D+00
      8  -0.143003D+00  0.000000D+00  0.000000D+00  0.000000D+00  0.000000D+00
      9   0.000000D+00  0.128637D+00  0.434595D-01  0.000000D+00 -0.236473D+00
     10   0.000000D+00  0.000000D+00  0.000000D+00  0.000000D+00  0.000000D+00
     11   0.000000D+00  0.000000D+00  0.000000D+00  0.453637D+00  0.000000D+00
     12   0.000000D+00  0.000000D+00  0.000000D+00  0.127840D+01  0.000000D+00
     13   0.000000D+00  0.000000D+00  0.000000D+00  0.298160D+00  0.000000D+00
     14   0.000000D+00  0.000000D+00  0.000000D+00  0.000000D+00  0.000000D+00
     15   0.000000D+00  0.307003D-01  0.357798D+00  0.000000D+00 -0.459348D+00
     16   0.685528D+00  0.000000D+00  0.000000D+00  0.000000D+00  0.000000D+00
                96            97            98            99           100 
      1  -0.742202D+02 -0.741995D+02 -0.741445D+02 -0.741130D+02 -0.741129D+02
      2   0.000000D+00  0.363336D+00  0.000000D+00  0.000000D+00  0.000000D+00
      3   0.000000D+00  0.000000D+00  0.104973D+00  0.000000D+00  0.000000D+00
      4   0.000000D+00  0.000000D+00  0.000000D+00  0.000000D+00 -0.393571D+00
      5   0.000000D+00 -0.719425D+00  0.000000D+00  0.000000D+00  0.000000D+00
      6   0.000000D+00  0.000000D+00 -0.260008D+00  0.000000D+00  0.000000D+00
      7   0.000000D+00  0.000000D+00  0.000000D+00  0.000000D+00  0.754622D+00
      8   0.000000D+00  0.000000D+00 -0.186103D+00  0.000000D+00  0.000000D+00
      9   0.000000D+00  0.925723D-01  0.000000D+00  0.000000D+00  0.000000D+00
     10  -0.479814D-01  0.000000D+00  0.000000D+00  0.451267D+00  0.000000D+00
     11   0.000000D+00  0.000000D+00  0.000000D+00  0.000000D+00  0.584767D+00
     12   0.000000D+00  0.000000D+00  0.000000D+00  0.000000D+00  0.295924D+00
     13   0.000000D+00  0.000000D+00  0.000000D+00  0.000000D+00 -0.272428D+00
     14  -0.351100D+00  0.000000D+00  0.000000D+00 -0.108179D+01  0.000000D+00
     15   0.000000D+00  0.768726D+00  0.000000D+00  0.000000D+00  0.000000D+00
     16   0.000000D+00  0.000000D+00 -0.695431D+00  0.000000D+00  0.000000D+00
               101           102           103           104           105 
      1  -0.739901D+02 -0.739789D+02 -0.739546D+02 -0.739183D+02 -0.738227D+02
      2   0.000000D+00  0.000000D+00  0.000000D+00  0.000000D+00  0.000000D+00
      3   0.000000D+00  0.215994D+00  0.221251D+00  0.000000D+00  0.754181D-01
      4  -0.961472D-02  0.000000D+00  0.000000D+00  0.000000D+00  0.000000D+00
      5   0.000000D+00  0.000000D+00  0.000000D+00  0.000000D+00  0.000000D+00
      6   0.000000D+00 -0.445945D+00 -0.517835D+00  0.000000D+00 -0.136311D+00
      7  -0.879011D-02  0.000000D+00  0.000000D+00  0.000000D+00  0.000000D+00
      8   0.000000D+00 -0.383464D+00 -0.159981D+00  0.000000D+00  0.422983D-01
      9   0.000000D+00  0.000000D+00  0.000000D+00  0.000000D+00  0.000000D+00
     10   0.000000D+00  0.000000D+00  0.000000D+00 -0.920617D-01  0.000000D+00
     11  -0.552289D+00  0.000000D+00  0.000000D+00  0.000000D+00  0.000000D+00
     12   0.128411D+01  0.000000D+00  0.000000D+00  0.000000D+00  0.000000D+00
     13  -0.105346D+01  0.000000D+00  0.000000D+00  0.000000D+00  0.000000D+00
     14   0.000000D+00  0.000000D+00  0.000000D+00  0.296497D+00  0.000000D+00
     15   0.000000D+00  0.000000D+00  0.000000D+00  0.000000D+00  0.000000D+00
     16   0.000000D+00 -0.331611D+00 -0.719674D+00  0.000000D+00 -0.473907D+00
               106           107           108           109           110 
      1  -0.738177D+02 -0.737884D+02 -0.737395D+02 -0.737186D+02 -0.736712D+02
      2   0.000000D+00  0.000000D+00 -0.279862D+00  0.000000D+00  0.154363D+00
      3   0.000000D+00  0.000000D+00  0.000000D+00  0.000000D+00  0.000000D+00
      4   0.000000D+00  0.444639D-01  0.000000D+00  0.636560D-01  0.000000D+00
      5   0.000000D+00  0.000000D+00  0.572919D+00  0.000000D+00 -0.312948D+00
      6   0.000000D+00  0.000000D+00  0.000000D+00  0.000000D+00  0.000000D+00
      7   0.000000D+00 -0.957513D-01  0.000000D+00 -0.154881D+00  0.000000D+00
      8   0.000000D+00  0.000000D+00  0.000000D+00  0.000000D+00  0.000000D+00
      9   0.000000D+00  0.000000D+00  0.141116D+00  0.000000D+00  0.155734D+00
     10  -0.337464D+00  0.000000D+00  0.000000D+00  0.000000D+00  0.000000D+00
     11   0.000000D+00  0.123801D+01  0.000000D+00  0.104852D+00  0.000000D+00
     12   0.000000D+00  0.443115D+00  0.000000D+00 -0.345289D+00  0.000000D+00
     13   0.000000D+00  0.116659D+01  0.000000D+00  0.177018D+00  0.000000D+00
     14   0.863927D+00  0.000000D+00  0.000000D+00  0.000000D+00  0.000000D+00
     15   0.000000D+00  0.000000D+00 -0.230925D-02  0.000000D+00  0.601474D+00
     16   0.000000D+00  0.000000D+00  0.000000D+00  0.000000D+00  0.000000D+00
               111           112           113           114           115 
      1  -0.736396D+02 -0.735711D+02 -0.735555D+02 -0.735369D+02 -0.732382D+02
      2   0.000000D+00  0.000000D+00  0.000000D+00  0.000000D+00  0.000000D+00
      3   0.000000D+00  0.466620D-01  0.577403D-01  0.000000D+00 -0.103504D+00
      4   0.125664D+00  0.000000D+00  0.000000D+00  0.501258D-01  0.000000D+00
      5   0.000000D+00  0.000000D+00  0.000000D+00  0.000000D+00  0.000000D+00
      6   0.000000D+00 -0.181861D+00 -0.191051D+00  0.000000D+00  0.376309D+00
      7  -0.316137D+00  0.000000D+00  0.000000D+00 -0.539288D-01  0.000000D+00
      8   0.000000D+00  0.262201D+00 -0.146390D+00  0.000000D+00 -0.930554D-01
      9   0.000000D+00  0.000000D+00  0.000000D+00  0.000000D+00  0.000000D+00
     10   0.000000D+00  0.000000D+00  0.000000D+00  0.000000D+00  0.000000D+00
     11   0.730407D+00  0.000000D+00  0.000000D+00 -0.589443D+00  0.000000D+00
     12  -0.307573D+00  0.000000D+00  0.000000D+00 -0.683047D+00  0.000000D+00
     13  -0.180915D-01  0.000000D+00  0.000000D+00  0.623727D+00  0.000000D+00
     14   0.000000D+00  0.000000D+00  0.000000D+00  0.000000D+00  0.000000D+00
     15   0.000000D+00  0.000000D+00  0.000000D+00  0.000000D+00  0.000000D+00
     16   0.000000D+00 -0.248797D+00 -0.340073D+00  0.000000D+00 -0.238884D-01
               116           117           118           119           120 
      1  -0.731206D+02 -0.730974D+02 -0.730658D+02 -0.730479D+02 -0.730474D+02
      2   0.000000D+00  0.000000D+00 -0.189120D+00  0.000000D+00  0.000000D+00
      3   0.000000D+00  0.000000D+00  0.000000D+00  0.000000D+00 -0.305209D+00
      4  -0.249713D+00 -0.132633D+00  0.000000D+00  0.000000D+00  0.000000D+00
      5   0.000000D+00  0.000000D+00  0.518332D+00  0.000000D+00  0.000000D+00
      6   0.000000D+00  0.000000D+00  0.000000D+00  0.000000D+00  0.901040D+00
      7   0.687101D+00  0.442009D+00  0.000000D+00  0.000000D+00  0.000000D+00
      8   0.000000D+00  0.000000D+00  0.000000D+00  0.000000D+00 -0.124459D+00
      9   0.000000D+00  0.000000D+00  0.111491D+00  0.000000D+00  0.000000D+00
     10   0.000000D+00  0.000000D+00  0.000000D+00 -0.616305D-01  0.000000D+00
     11  -0.205347D+00  0.320132D+00  0.000000D+00  0.000000D+00  0.000000D+00
     12   0.475136D+00 -0.955763D-01  0.000000D+00  0.000000D+00  0.000000D+00
     13   0.258505D+00 -0.203652D+00  0.000000D+00  0.000000D+00  0.000000D+00
     14   0.000000D+00  0.000000D+00  0.000000D+00  0.578655D+00  0.000000D+00
     15   0.000000D+00  0.000000D+00  0.258348D+00  0.000000D+00  0.000000D+00
     16   0.000000D+00  0.000000D+00  0.000000D+00  0.000000D+00  0.499349D+00
               121           122           123           124           125 
      1  -0.729752D+02 -0.729702D+02 -0.728350D+02 -0.728032D+02 -0.727374D+02
      2   0.903530D-01  0.000000D+00 -0.282458D+00  0.000000D+00  0.000000D+00
      3   0.000000D+00  0.000000D+00  0.000000D+00  0.000000D+00  0.173777D+00
      4   0.000000D+00  0.000000D+00  0.000000D+00 -0.356001D+00  0.000000D+00
      5  -0.278374D+00  0.000000D+00  0.859540D+00  0.000000D+00  0.000000D+00
      6   0.000000D+00  0.000000D+00  0.000000D+00  0.000000D+00 -0.594303D+00
      7   0.000000D+00  0.000000D+00  0.000000D+00  0.114731D+01  0.000000D+00
      8   0.000000D+00  0.000000D+00  0.000000D+00  0.000000D+00  0.202090D+00
      9  -0.429060D-01  0.000000D+00  0.200032D+00  0.000000D+00  0.000000D+00
     10   0.000000D+00 -0.652239D-01  0.000000D+00  0.000000D+00  0.000000D+00
     11   0.000000D+00  0.000000D+00  0.000000D+00 -0.281981D+00  0.000000D+00
     12   0.000000D+00  0.000000D+00  0.000000D+00 -0.249290D+00  0.000000D+00
     13   0.000000D+00  0.000000D+00  0.000000D+00  0.121749D+01  0.000000D+00
     14   0.000000D+00  0.426803D+00  0.000000D+00  0.000000D+00  0.000000D+00
     15  -0.211623D+00  0.000000D+00  0.640229D+00  0.000000D+00  0.000000D+00
     16   0.000000D+00  0.000000D+00  0.000000D+00  0.000000D+00 -0.106682D+00
               126           127           128           129           130 
      1  -0.724972D+02 -0.724722D+02 -0.724670D+02 -0.724347D+02 -0.723127D+02
      2  -0.135516D+00  0.000000D+00  0.327441D+00  0.000000D+00  0.000000D+00
      3   0.000000D+00  0.000000D+00  0.000000D+00  0.000000D+00 -0.146336D+00
      4   0.000000D+00 -0.612472D-01  0.000000D+00  0.000000D+00  0.000000D+00
      5   0.478712D+00  0.000000D+00 -0.115105D+01  0.000000D+00  0.000000D+00
      6   0.000000D+00  0.000000D+00  0.000000D+00  0.000000D+00  0.522171D+00
      7   0.000000D+00  0.168748D+00  0.000000D+00  0.000000D+00  0.000000D+00
      8   0.000000D+00  0.000000D+00  0.000000D+00  0.000000D+00 -0.108971D+00
      9   0.761026D-01  0.000000D+00 -0.195781D+00  0.000000D+00  0.000000D+00
     10   0.000000D+00  0.000000D+00  0.000000D+00 -0.989700D-02  0.000000D+00
     11   0.000000D+00 -0.256767D+00  0.000000D+00  0.000000D+00  0.000000D+00
     12   0.000000D+00  0.471593D+00  0.000000D+00  0.000000D+00  0.000000D+00
     13   0.000000D+00 -0.337321D-01  0.000000D+00  0.000000D+00  0.000000D+00
     14   0.000000D+00  0.000000D+00  0.000000D+00  0.400334D+00  0.000000D+00
     15   0.686909D+00  0.000000D+00 -0.254622D+00  0.000000D+00  0.000000D+00
     16   0.000000D+00  0.000000D+00  0.000000D+00  0.000000D+00  0.381410D+00
               131           132           133           134           135 
      1  -0.722960D+02 -0.721597D+02 -0.720331D+02 -0.718975D+02 -0.718799D+02
      2   0.000000D+00  0.000000D+00  0.000000D+00  0.000000D+00  0.000000D+00
      3   0.000000D+00  0.000000D+00  0.241797D+00  0.000000D+00  0.000000D+00
      4   0.502401D-01  0.000000D+00  0.000000D+00  0.173863D+00 -0.808935D-01
      5   0.000000D+00  0.000000D+00  0.000000D+00  0.000000D+00  0.000000D+00
      6   0.000000D+00  0.000000D+00 -0.937227D+00  0.000000D+00  0.000000D+00
      7  -0.191914D+00  0.000000D+00  0.000000D+00 -0.698200D+00  0.324823D+00
      8   0.000000D+00  0.000000D+00  0.149139D+00  0.000000D+00  0.000000D+00
      9   0.000000D+00  0.000000D+00  0.000000D+00  0.000000D+00  0.000000D+00
     10   0.000000D+00  0.241811D-01  0.000000D+00  0.000000D+00  0.000000D+00
     11  -0.131725D+00  0.000000D+00  0.000000D+00  0.117167D+00 -0.458044D+00
     12  -0.116368D+00  0.000000D+00  0.000000D+00 -0.178898D+00  0.220006D+00
     13   0.220349D+00  0.000000D+00  0.000000D+00 -0.616319D+00  0.264421D+00
     14   0.000000D+00  0.290936D+00  0.000000D+00  0.000000D+00  0.000000D+00
     15   0.000000D+00  0.000000D+00  0.000000D+00  0.000000D+00  0.000000D+00
     16   0.000000D+00  0.000000D+00 -0.542557D+00  0.000000D+00  0.000000D+00
               136 
      1  -0.714847D+02
      2   0.000000D+00
      3   0.260528D-01
      4   0.000000D+00
      5   0.000000D+00
      6  -0.942416D-01
      7   0.000000D+00
      8   0.120930D-01
      9   0.000000D+00
     10   0.000000D+00
     11   0.000000D+00
     12   0.000000D+00
     13   0.000000D+00
     14   0.000000D+00
     15   0.000000D+00
     16  -0.239405D+00
 Unable to Open any file for archive entry.
 1\1\GINC-HEL12\SP\RPW91PW91 TD-FC\Gen\H2O1\SABYASACHI\21-Mar-2022\0\\#
 P TD(Nstates=10000) pw91pw91/Gen SCF(maxcycles=100) Int(Grid=ultrafine
 )\\xGDB7_00001_tier4.com\\0,1\O,0,0.,0.,0.116015\H,0,0.,0.761895,-0.46
 4058\H,0,0.,-0.761895,-0.464058\\Version=EM64L-G16RevC.01\State=1-A1\H
 F=-76.3531464\RMSD=2.703e-09\PG=C02V [C2(O1),SGV(H2)]\\@
 The archive entry for this job was punched.


 GOD GAVE US TWO ENDS... ONE TO SIT ON...    
 AND THE OTHER TO THINK WITH...              
 YOUR SUCCESS DEPENDS UPON WHICH END YOU     
 USE THE MOST...                             
                                             
 IT'S A CASE OF HEADS YOU WIN TAILS YOU LOSE.
          SOURCE UNKNOWN(IT'S JUST AS WELL.) 
 Job cpu time:       0 days  0 hours  0 minutes 14.6 seconds.
 Elapsed time:       0 days  0 hours  0 minutes  2.1 seconds.
 File lengths (MBytes):  RWF=     12 Int=      0 D2E=      0 Chk=      6 Scr=      1
 Normal termination of Gaussian 16 at Mon Mar 21 20:11:05 2022.
