 Entering Gaussian System, Link 0=g16
 Input=000031.com
 Output=000031.log
 Initial command:
 /home/sabyasachi/g16/l1.exe "/scratch/sabyasachi/PBS_7976528.helios/Gau-31833.inp" -scrdir="/scratch/sabyasachi/PBS_7976528.helios/"
 Entering Link 1 = /home/sabyasachi/g16/l1.exe PID=     31834.
  
 Copyright (c) 1988-2019, Gaussian, Inc.  All Rights Reserved.
  
 This is part of the Gaussian(R) 16 program.  It is based on
 the Gaussian(R) 09 system (copyright 2009, Gaussian, Inc.),
 the Gaussian(R) 03 system (copyright 2003, Gaussian, Inc.),
 the Gaussian(R) 98 system (copyright 1998, Gaussian, Inc.),
 the Gaussian(R) 94 system (copyright 1995, Gaussian, Inc.),
 the Gaussian 92(TM) system (copyright 1992, Gaussian, Inc.),
 the Gaussian 90(TM) system (copyright 1990, Gaussian, Inc.),
 the Gaussian 88(TM) system (copyright 1988, Gaussian, Inc.),
 the Gaussian 86(TM) system (copyright 1986, Carnegie Mellon
 University), and the Gaussian 82(TM) system (copyright 1983,
 Carnegie Mellon University). Gaussian is a federally registered
 trademark of Gaussian, Inc.
  
 This software contains proprietary and confidential information,
 including trade secrets, belonging to Gaussian, Inc.
  
 This software is provided under written license and may be
 used, copied, transmitted, or stored only in accord with that
 written license.
  
 The following legend is applicable only to US Government
 contracts under FAR:
  
                    RESTRICTED RIGHTS LEGEND
  
 Use, reproduction and disclosure by the US Government is
 subject to restrictions as set forth in subparagraphs (a)
 and (c) of the Commercial Computer Software - Restricted
 Rights clause in FAR 52.227-19.
  
 Gaussian, Inc.
 340 Quinnipiac St., Bldg. 40, Wallingford CT 06492
  
  
 ---------------------------------------------------------------
 Warning -- This program may not be used in any manner that
 competes with the business of Gaussian, Inc. or will provide
 assistance to any competitor of Gaussian, Inc.  The licensee
 of this program is prohibited from giving any competitor of
 Gaussian, Inc. access to this program.  By using this program,
 the user acknowledges that Gaussian, Inc. is engaged in the
 business of creating and licensing software in the field of
 computational chemistry and represents and warrants to the
 licensee that it is not a competitor of Gaussian, Inc. and that
 it will not use this program in any manner prohibited above.
 ---------------------------------------------------------------
  

 Cite this work as:
 Gaussian 16, Revision C.01,
 M. J. Frisch, G. W. Trucks, H. B. Schlegel, G. E. Scuseria, 
 M. A. Robb, J. R. Cheeseman, G. Scalmani, V. Barone, 
 G. A. Petersson, H. Nakatsuji, X. Li, M. Caricato, A. V. Marenich, 
 J. Bloino, B. G. Janesko, R. Gomperts, B. Mennucci, H. P. Hratchian, 
 J. V. Ortiz, A. F. Izmaylov, J. L. Sonnenberg, D. Williams-Young, 
 F. Ding, F. Lipparini, F. Egidi, J. Goings, B. Peng, A. Petrone, 
 T. Henderson, D. Ranasinghe, V. G. Zakrzewski, J. Gao, N. Rega, 
 G. Zheng, W. Liang, M. Hada, M. Ehara, K. Toyota, R. Fukuda, 
 J. Hasegawa, M. Ishida, T. Nakajima, Y. Honda, O. Kitao, H. Nakai, 
 T. Vreven, K. Throssell, J. A. Montgomery, Jr., J. E. Peralta, 
 F. Ogliaro, M. J. Bearpark, J. J. Heyd, E. N. Brothers, K. N. Kudin, 
 V. N. Staroverov, T. A. Keith, R. Kobayashi, J. Normand, 
 K. Raghavachari, A. P. Rendell, J. C. Burant, S. S. Iyengar, 
 J. Tomasi, M. Cossi, J. M. Millam, M. Klene, C. Adamo, R. Cammi, 
 J. W. Ochterski, R. L. Martin, K. Morokuma, O. Farkas, 
 J. B. Foresman, and D. J. Fox, Gaussian, Inc., Wallingford CT, 2019.
 
 ******************************************
 Gaussian 16:  EM64L-G16RevC.01  3-Jul-2019
                21-Mar-2022 
 ******************************************
 %mem=64gb
 %nproc=8
 Will use up to    8 processors via shared memory.
 ----------------------------------------------------------------------
 #P TD(Nstates=10000) pw91pw91/Gen SCF(maxcycles=100) Int(Grid=ultrafin
 e)
 ----------------------------------------------------------------------
 1/38=1,172=1/1;
 2/12=2,17=6,18=5,40=1/2;
 3/5=7,11=9,25=1,30=1,74=608,75=-5/1,2,3,8;
 4//1;
 5/5=2,7=100,38=5/2;
 8/6=1,10=1,108=10000/1;
 9/41=10000,42=1,70=2/14;
 6/7=2,8=2,9=2,10=2/1;
 99/5=1,9=1/99;
 Leave Link    1 at Mon Mar 21 20:19:24 2022, MaxMem=  8589934592 cpu:               0.4 elap:               0.1
 (Enter /home/sabyasachi/g16/l101.exe)
 ---------------------
 xGDB7_00001_tier4.com
 ---------------------
 Symbolic Z-matrix:
 Charge =  0 Multiplicity = 1
 6                     0.51685   0.69483   0. 
 6                    -0.86017   0.1002    0. 
 6                     0.34331  -0.79502   0. 
 1                     0.86651   1.16486   0.90918 
 1                     0.86651   1.16486  -0.90918 
 1                    -1.44205   0.16796  -0.90918 
 1                    -1.44205   0.16797   0.90918 
 1                     0.57557  -1.33284  -0.90918 
 1                     0.57557  -1.33284   0.90918 
 
 ITRead=  0  0  0  0  0  0  0  0  0
 MicOpt= -1 -1 -1 -1 -1 -1 -1 -1 -1
 NAtoms=      9 NQM=        9 NQMF=       0 NMMI=      0 NMMIF=      0
                NMic=       0 NMicF=      0.
                    Isotopes and Nuclear Properties:
 (Nuclear quadrupole moments (NQMom) in fm**2, nuclear magnetic moments (NMagM)
  in nuclear magnetons)

  Atom         1           2           3           4           5           6           7           8           9
 IAtWgt=          12          12          12           1           1           1           1           1           1
 AtmWgt=  12.0000000  12.0000000  12.0000000   1.0078250   1.0078250   1.0078250   1.0078250   1.0078250   1.0078250
 NucSpn=           0           0           0           1           1           1           1           1           1
 AtZEff=  -0.0000000  -0.0000000  -0.0000000  -0.0000000  -0.0000000  -0.0000000  -0.0000000  -0.0000000  -0.0000000
 NQMom=    0.0000000   0.0000000   0.0000000   0.0000000   0.0000000   0.0000000   0.0000000   0.0000000   0.0000000
 NMagM=    0.0000000   0.0000000   0.0000000   2.7928460   2.7928460   2.7928460   2.7928460   2.7928460   2.7928460
 AtZNuc=   6.0000000   6.0000000   6.0000000   1.0000000   1.0000000   1.0000000   1.0000000   1.0000000   1.0000000
 Leave Link  101 at Mon Mar 21 20:19:24 2022, MaxMem=  8589934592 cpu:               0.7 elap:               0.1
 (Enter /home/sabyasachi/g16/l202.exe)
                          Input orientation:                          
 ---------------------------------------------------------------------
 Center     Atomic      Atomic             Coordinates (Angstroms)
 Number     Number       Type             X           Y           Z
 ---------------------------------------------------------------------
      1          6           0        0.516845    0.694830    0.000000
      2          6           0       -0.860166    0.100195    0.000000
      3          6           0        0.343308   -0.795021    0.000000
      4          1           0        0.866514    1.164858    0.909176
      5          1           0        0.866513    1.164859   -0.909176
      6          1           0       -1.442047    0.167964   -0.909177
      7          1           0       -1.442048    0.167965    0.909176
      8          1           0        0.575574   -1.332837   -0.909179
      9          1           0        0.575574   -1.332837    0.909179
 ---------------------------------------------------------------------
                    Distance matrix (angstroms):
                    1          2          3          4          5
     1  C    0.000000
     2  C    1.499917   0.000000
     3  C    1.499924   1.499920   0.000000
     4  H    1.081571   2.222956   2.222942   0.000000
     5  H    1.081571   2.222955   2.222943   1.818352   0.000000
     6  H    2.222937   1.081564   2.222934   3.103169   2.514607
     7  H    2.222937   1.081564   2.222935   2.514608   3.103169
     8  H    2.222946   2.222957   1.081573   3.103150   2.514584
     9  H    2.222946   2.222957   1.081573   2.514583   3.103151
                    6          7          8          9
     6  H    0.000000
     7  H    1.818353   0.000000
     8  H    2.514597   3.103163   0.000000
     9  H    3.103162   2.514598   1.818358   0.000000
 Stoichiometry    C3H6
 Framework group  CS[SG(C3),X(H6)]
 Deg. of freedom    12
 Full point group                 CS      NOp   2
 Largest Abelian subgroup         CS      NOp   2
 Largest concise Abelian subgroup CS      NOp   2
                         Standard orientation:                         
 ---------------------------------------------------------------------
 Center     Atomic      Atomic             Coordinates (Angstroms)
 Number     Number       Type             X           Y           Z
 ---------------------------------------------------------------------
      1          6           0        0.000000    0.865978    0.000000
      2          6           0        0.749967   -0.432983    0.000000
      3          6           0       -0.749954   -0.432999    0.000000
      4          1           0       -0.000033    1.451806   -0.909176
      5          1           0       -0.000033    1.451806    0.909176
      6          1           0        1.257295   -0.725894    0.909177
      7          1           0        1.257295   -0.725894   -0.909177
      8          1           0       -1.257302   -0.725899    0.909179
      9          1           0       -1.257302   -0.725899   -0.909179
 ---------------------------------------------------------------------
 Rotational constants (GHZ):          20.3211092          20.3210941          12.7163454
 Leave Link  202 at Mon Mar 21 20:19:24 2022, MaxMem=  8589934592 cpu:               0.1 elap:               0.0
 (Enter /home/sabyasachi/g16/l301.exe)
 General basis read from cards:  (5D, 7F)
 Centers:       4      5      6      7      8      9
 S 3 1.00
     Exponent=  1.3010701000D+01 Coefficients=  1.9682158000D-02
     Exponent=  1.9622572000D+00 Coefficients=  1.3796524000D-01
     Exponent=  4.4453796000D-01 Coefficients=  4.7831935000D-01
 S 1 1.00
     Exponent=  1.2194962000D-01 Coefficients=  1.0000000000D+00
 P 1 1.00
     Exponent=  8.0000000000D-01 Coefficients=  1.0000000000D+00
 P 1 1.00
     Exponent=  1.1704099050D-01 Coefficients=  1.0000000000D+00
 ****
 Centers:       1      2      3
 S 5 1.00
     Exponent=  1.2384016938D+03 Coefficients=  5.4568832082D-03
     Exponent=  1.8629004992D+02 Coefficients=  4.0638409211D-02
     Exponent=  4.2251176346D+01 Coefficients=  1.8025593888D-01
     Exponent=  1.1676557932D+01 Coefficients=  4.6315121755D-01
     Exponent=  3.5930506482D+00 Coefficients=  4.4087173314D-01
 S 1 1.00
     Exponent=  4.0245147363D-01 Coefficients=  1.0000000000D+00
 S 1 1.00
     Exponent=  1.3090182668D-01 Coefficients=  1.0000000000D+00
 S 1 1.00
     Exponent=  6.7053540256D-02 Coefficients=  1.0000000000D+00
 P 3 1.00
     Exponent=  9.4680970621D+00 Coefficients=  3.8387871728D-02
     Exponent=  2.0103545142D+00 Coefficients=  2.1117025112D-01
     Exponent=  5.4771004707D-01 Coefficients=  5.1328172114D-01
 P 1 1.00
     Exponent=  1.5268613795D-01 Coefficients=  1.0000000000D+00
 D 1 1.00
     Exponent=  8.0000000000D-01 Coefficients=  1.0000000000D+00
 D 1 1.00
     Exponent=  1.1713185140D-01 Coefficients=  1.0000000000D+00
 ****
 Ernie: Thresh=  0.10000D-02 Tol=  0.10000D-05 Strict=F.
 There are    72 symmetry adapted cartesian basis functions of A'  symmetry.
 There are    42 symmetry adapted cartesian basis functions of A"  symmetry.
 There are    66 symmetry adapted basis functions of A'  symmetry.
 There are    42 symmetry adapted basis functions of A"  symmetry.
   108 basis functions,   156 primitive gaussians,   114 cartesian basis functions
    12 alpha electrons       12 beta electrons
       nuclear repulsion energy        76.0150796331 Hartrees.
 IExCor=  608 DFT=T Ex=PW91 Corr=PW91 ExCW=0 ScaHFX=  0.000000
 ScaDFX=  1.000000  1.000000  1.000000  1.000000 ScalE2=  1.000000  1.000000
 IRadAn=      5 IRanWt=     -1 IRanGd=            0 ICorTp=0 IEmpDi=  4
 NAtoms=    9 NActive=    9 NUniq=    6 SFac= 2.25D+00 NAtFMM=   60 NAOKFM=F Big=F
 Integral buffers will be    131072 words long.
 Regular integral format.
 Two-electron integral symmetry is turned on.
 Leave Link  301 at Mon Mar 21 20:19:24 2022, MaxMem=  8589934592 cpu:               0.5 elap:               0.1
 (Enter /home/sabyasachi/g16/l302.exe)
 NPDir=0 NMtPBC=     1 NCelOv=     1 NCel=       1 NClECP=     1 NCelD=      1
         NCelK=      1 NCelE2=     1 NClLst=     1 CellRange=     0.0.
 One-electron integrals computed using PRISM.
 One-electron integral symmetry used in STVInt
 NBasis=   108 RedAO= T EigKep=  1.77D-04  NBF=    66    42
 NBsUse=   108 1.00D-06 EigRej= -1.00D+00 NBFU=    66    42
 Precomputing XC quadrature grid using
 IXCGrd= 4 IRadAn=           5 IRanWt=          -1 IRanGd=           0 AccXCQ= 0.00D+00.
 Generated NRdTot=       0 NPtTot=           0 NUsed=           0 NTot=          32
 NSgBfM=   114   114   114   114   114 MxSgAt=     9 MxSgA2=     9.
 Leave Link  302 at Mon Mar 21 20:19:24 2022, MaxMem=  8589934592 cpu:               1.1 elap:               0.2
 (Enter /home/sabyasachi/g16/l303.exe)
 DipDrv:  MaxL=1.
 Leave Link  303 at Mon Mar 21 20:19:24 2022, MaxMem=  8589934592 cpu:               0.2 elap:               0.0
 (Enter /home/sabyasachi/g16/l308.exe)
 Leave Link  308 at Mon Mar 21 20:19:25 2022, MaxMem=  8589934592 cpu:               0.2 elap:               0.0
 (Enter /home/sabyasachi/g16/l401.exe)
 ExpMin= 6.71D-02 ExpMax= 1.24D+03 ExpMxC= 1.86D+02 IAcc=3 IRadAn=         5 AccDes= 0.00D+00
 Harris functional with IExCor=  608 and IRadAn=       5 diagonalized for initial guess.
 HarFok:  IExCor=  608 AccDes= 0.00D+00 IRadAn=         5 IDoV= 1 UseB2=F ITyADJ=14
 ICtDFT=  3500011 ScaDFX=  1.000000  1.000000  1.000000  1.000000
 FoFCou: FMM=F IPFlag=           0 FMFlag=      100000 FMFlg1=           0
         NFxFlg=           0 DoJE=T BraDBF=F KetDBF=T FulRan=T
         wScrn=  0.000000 ICntrl=       500 IOpCl=  0 I1Cent=   200000004 NGrid=           0
         NMat0=    1 NMatS0=      1 NMatT0=    0 NMatD0=    1 NMtDS0=    0 NMtDT0=    0
 Petite list used in FoFCou.
 Harris En= -117.859340040328    
 JPrj=0 DoOrth=F DoCkMO=F.
 Initial guess orbital symmetries:
       Occupied  (A') (A') (A') (A') (A') (A') (A") (A') (A") (A")
                 (A') (A')
       Virtual   (A') (A') (A") (A') (A') (A') (A") (A") (A') (A')
                 (A") (A') (A') (A') (A") (A") (A') (A') (A') (A')
                 (A") (A") (A') (A') (A") (A") (A') (A") (A") (A')
                 (A') (A') (A') (A') (A") (A") (A") (A') (A') (A')
                 (A') (A') (A") (A") (A") (A') (A") (A') (A') (A")
                 (A") (A') (A') (A') (A') (A") (A') (A') (A') (A')
                 (A') (A") (A") (A') (A") (A") (A') (A') (A") (A")
                 (A") (A") (A") (A') (A') (A') (A') (A") (A") (A')
                 (A') (A') (A') (A') (A") (A") (A") (A') (A') (A')
                 (A") (A') (A') (A') (A") (A")
 The electronic state of the initial guess is 1-A'.
 Leave Link  401 at Mon Mar 21 20:19:25 2022, MaxMem=  8589934592 cpu:               2.3 elap:               0.3
 (Enter /home/sabyasachi/g16/l502.exe)
 Keep J ints in memory in symmetry-blocked form, NReq=26033091.
 FoFCou: FMM=F IPFlag=           0 FMFlag=           0 FMFlg1=           0
         NFxFlg=           0 DoJE=F BraDBF=F KetDBF=F FulRan=T
         wScrn=  0.000000 ICntrl=       600 IOpCl=  0 I1Cent=           0 NGrid=           0
         NMat0=    1 NMatS0=   5886 NMatT0=    0 NMatD0=    1 NMtDS0=    0 NMtDT0=    0
 Petite list used in FoFCou.
 Closed shell SCF:
 Using DIIS extrapolation, IDIIS=  1040.
 NGot=  8589934592 LenX=  8581199601 LenY=  8581186164
 Requested convergence on RMS density matrix=1.00D-08 within 100 cycles.
 Requested convergence on MAX density matrix=1.00D-06.
 Requested convergence on             energy=1.00D-06.
 No special actions if energy rises.
 Integral accuracy reduced to 1.0D-05 until final iterations.

 Cycle   1  Pass 0  IDiag  1:
 E= -117.646157881510    
 DIIS: error= 3.89D-02 at cycle   1 NSaved=   1.
 NSaved= 1 IEnMin= 1 EnMin= -117.646157881510     IErMin= 1 ErrMin= 3.89D-02
 ErrMax= 3.89D-02  0.00D+00 EMaxC= 1.00D-01 BMatC= 9.23D-02 BMatP= 9.23D-02
 IDIUse=3 WtCom= 6.11D-01 WtEn= 3.89D-01
 Coeff-Com:  0.100D+01
 Coeff-En:   0.100D+01
 Coeff:      0.100D+01
 Gap=     0.162 Goal=   None    Shift=    0.000
 GapD=    0.162 DampG=1.000 DampE=0.500 DampFc=0.5000 IDamp=-1.
 Damping current iteration by 5.00D-01
 RMSDP=7.29D-03 MaxDP=1.36D-01              OVMax= 2.09D-01

 Cycle   2  Pass 0  IDiag  1:
 E= -117.669844375959     Delta-E=       -0.023686494449 Rises=F Damp=T
 DIIS: error= 1.43D-02 at cycle   2 NSaved=   2.
 NSaved= 2 IEnMin= 2 EnMin= -117.669844375959     IErMin= 2 ErrMin= 1.43D-02
 ErrMax= 1.43D-02  0.00D+00 EMaxC= 1.00D-01 BMatC= 1.21D-02 BMatP= 9.23D-02
 IDIUse=3 WtCom= 8.57D-01 WtEn= 1.43D-01
 Coeff-Com:  0.249D+00 0.751D+00
 Coeff-En:   0.396D+00 0.604D+00
 Coeff:      0.270D+00 0.730D+00
 Gap=     0.265 Goal=   None    Shift=    0.000
 RMSDP=2.01D-03 MaxDP=1.99D-02 DE=-2.37D-02 OVMax= 1.37D-01

 Cycle   3  Pass 0  IDiag  1:
 E= -117.756281645395     Delta-E=       -0.086437269436 Rises=F Damp=F
 DIIS: error= 2.21D-03 at cycle   3 NSaved=   3.
 NSaved= 3 IEnMin= 3 EnMin= -117.756281645395     IErMin= 3 ErrMin= 2.21D-03
 ErrMax= 2.21D-03  0.00D+00 EMaxC= 1.00D-01 BMatC= 3.99D-04 BMatP= 1.21D-02
 IDIUse=3 WtCom= 9.78D-01 WtEn= 2.21D-02
 Coeff-Com:  0.696D-01 0.199D+00 0.732D+00
 Coeff-En:   0.000D+00 0.000D+00 0.100D+01
 Coeff:      0.681D-01 0.194D+00 0.738D+00
 Gap=     0.272 Goal=   None    Shift=    0.000
 RMSDP=8.14D-04 MaxDP=1.69D-02 DE=-8.64D-02 OVMax= 6.59D-03

 Cycle   4  Pass 0  IDiag  1:
 E= -117.756670396354     Delta-E=       -0.000388750959 Rises=F Damp=F
 DIIS: error= 3.79D-04 at cycle   4 NSaved=   4.
 NSaved= 4 IEnMin= 4 EnMin= -117.756670396354     IErMin= 4 ErrMin= 3.79D-04
 ErrMax= 3.79D-04  0.00D+00 EMaxC= 1.00D-01 BMatC= 1.01D-05 BMatP= 3.99D-04
 IDIUse=3 WtCom= 9.96D-01 WtEn= 3.79D-03
 Coeff-Com:  0.119D-02 0.122D-01 0.140D+00 0.846D+00
 Coeff-En:   0.000D+00 0.000D+00 0.000D+00 0.100D+01
 Coeff:      0.118D-02 0.121D-01 0.140D+00 0.847D+00
 Gap=     0.271 Goal=   None    Shift=    0.000
 RMSDP=9.32D-05 MaxDP=1.65D-03 DE=-3.89D-04 OVMax= 1.07D-03

 Cycle   5  Pass 0  IDiag  1:
 E= -117.756682044834     Delta-E=       -0.000011648481 Rises=F Damp=F
 DIIS: error= 1.75D-05 at cycle   5 NSaved=   5.
 NSaved= 5 IEnMin= 5 EnMin= -117.756682044834     IErMin= 5 ErrMin= 1.75D-05
 ErrMax= 1.75D-05  0.00D+00 EMaxC= 1.00D-01 BMatC= 3.19D-08 BMatP= 1.01D-05
 IDIUse=1 WtCom= 1.00D+00 WtEn= 0.00D+00
 Coeff-Com: -0.200D-03-0.142D-03 0.804D-02 0.938D-01 0.898D+00
 Coeff:     -0.200D-03-0.142D-03 0.804D-02 0.938D-01 0.898D+00
 Gap=     0.271 Goal=   None    Shift=    0.000
 RMSDP=1.36D-05 MaxDP=2.56D-04 DE=-1.16D-05 OVMax= 4.74D-05

 Cycle   6  Pass 0  IDiag  1:
 E= -117.756682080505     Delta-E=       -0.000000035670 Rises=F Damp=F
 DIIS: error= 2.70D-06 at cycle   6 NSaved=   6.
 NSaved= 6 IEnMin= 6 EnMin= -117.756682080505     IErMin= 6 ErrMin= 2.70D-06
 ErrMax= 2.70D-06  0.00D+00 EMaxC= 1.00D-01 BMatC= 3.28D-10 BMatP= 3.19D-08
 IDIUse=1 WtCom= 1.00D+00 WtEn= 0.00D+00
 Coeff-Com:  0.413D-04-0.716D-05 0.336D-03 0.531D-02 0.695D-01 0.925D+00
 Coeff:      0.413D-04-0.716D-05 0.336D-03 0.531D-02 0.695D-01 0.925D+00
 Gap=     0.271 Goal=   None    Shift=    0.000
 RMSDP=4.30D-07 MaxDP=7.96D-06 DE=-3.57D-08 OVMax= 6.67D-06

 Initial convergence to 1.0D-05 achieved.  Increase integral accuracy.
 Cycle   7  Pass 1  IDiag  1:
 E= -117.756684013777     Delta-E=       -0.000001933272 Rises=F Damp=F
 DIIS: error= 5.03D-06 at cycle   1 NSaved=   1.
 NSaved= 1 IEnMin= 1 EnMin= -117.756684013777     IErMin= 1 ErrMin= 5.03D-06
 ErrMax= 5.03D-06  0.00D+00 EMaxC= 1.00D-01 BMatC= 2.18D-09 BMatP= 2.18D-09
 IDIUse=1 WtCom= 1.00D+00 WtEn= 0.00D+00
 Coeff-Com:  0.100D+01
 Coeff:      0.100D+01
 Gap=     0.271 Goal=   None    Shift=    0.000
 RMSDP=4.30D-07 MaxDP=7.96D-06 DE=-1.93D-06 OVMax= 4.76D-05

 Cycle   8  Pass 1  IDiag  1:
 E= -117.756684019549     Delta-E=       -0.000000005772 Rises=F Damp=F
 DIIS: error= 9.74D-07 at cycle   2 NSaved=   2.
 NSaved= 2 IEnMin= 2 EnMin= -117.756684019549     IErMin= 2 ErrMin= 9.74D-07
 ErrMax= 9.74D-07  0.00D+00 EMaxC= 1.00D-01 BMatC= 8.34D-11 BMatP= 2.18D-09
 IDIUse=1 WtCom= 1.00D+00 WtEn= 0.00D+00
 Coeff-Com:  0.397D-01 0.960D+00
 Coeff:      0.397D-01 0.960D+00
 Gap=     0.271 Goal=   None    Shift=    0.000
 RMSDP=2.74D-07 MaxDP=5.81D-06 DE=-5.77D-09 OVMax= 5.37D-06

 Cycle   9  Pass 1  IDiag  1:
 E= -117.756684019482     Delta-E=        0.000000000068 Rises=F Damp=F
 DIIS: error= 1.40D-06 at cycle   3 NSaved=   3.
 NSaved= 3 IEnMin= 2 EnMin= -117.756684019549     IErMin= 2 ErrMin= 9.74D-07
 ErrMax= 1.40D-06  0.00D+00 EMaxC= 1.00D-01 BMatC= 1.53D-10 BMatP= 8.34D-11
 IDIUse=1 WtCom= 1.00D+00 WtEn= 0.00D+00
 Coeff-Com: -0.331D-02 0.580D+00 0.424D+00
 Coeff:     -0.331D-02 0.580D+00 0.424D+00
 Gap=     0.271 Goal=   None    Shift=    0.000
 RMSDP=1.30D-07 MaxDP=3.39D-06 DE= 6.75D-11 OVMax= 3.53D-06

 Cycle  10  Pass 1  IDiag  1:
 E= -117.756684019643     Delta-E=       -0.000000000161 Rises=F Damp=F
 DIIS: error= 1.25D-07 at cycle   4 NSaved=   4.
 NSaved= 4 IEnMin= 4 EnMin= -117.756684019643     IErMin= 4 ErrMin= 1.25D-07
 ErrMax= 1.25D-07  0.00D+00 EMaxC= 1.00D-01 BMatC= 1.67D-12 BMatP= 8.34D-11
 IDIUse=1 WtCom= 1.00D+00 WtEn= 0.00D+00
 Coeff-Com: -0.278D-02 0.212D+00 0.179D+00 0.612D+00
 Coeff:     -0.278D-02 0.212D+00 0.179D+00 0.612D+00
 Gap=     0.271 Goal=   None    Shift=    0.000
 RMSDP=3.05D-08 MaxDP=4.27D-07 DE=-1.61D-10 OVMax= 5.46D-07

 Cycle  11  Pass 1  IDiag  1:
 E= -117.756684019643     Delta-E=       -0.000000000001 Rises=F Damp=F
 DIIS: error= 2.42D-08 at cycle   5 NSaved=   5.
 NSaved= 5 IEnMin= 5 EnMin= -117.756684019643     IErMin= 5 ErrMin= 2.42D-08
 ErrMax= 2.42D-08  0.00D+00 EMaxC= 1.00D-01 BMatC= 5.61D-14 BMatP= 1.67D-12
 IDIUse=1 WtCom= 1.00D+00 WtEn= 0.00D+00
 Coeff-Com: -0.904D-03 0.568D-01 0.483D-01 0.219D+00 0.676D+00
 Coeff:     -0.904D-03 0.568D-01 0.483D-01 0.219D+00 0.676D+00
 Gap=     0.271 Goal=   None    Shift=    0.000
 RMSDP=4.67D-09 MaxDP=8.44D-08 DE=-5.40D-13 OVMax= 1.53D-07

 SCF Done:  E(RPW91-PW91) =  -117.756684020     A.U. after   11 cycles
            NFock= 11  Conv=0.47D-08     -V/T= 2.0127
 KE= 1.162758407564D+02 PE=-4.234302115779D+02 EE= 1.133826071688D+02
 Leave Link  502 at Mon Mar 21 20:19:27 2022, MaxMem=  8589934592 cpu:              13.1 elap:               1.7
 (Enter /home/sabyasachi/g16/l801.exe)
 DoSCS=F DFT=T ScalE2(SS,OS)=  1.000000  1.000000
 ExpMin= 6.71D-02 ExpMax= 1.24D+03 ExpMxC= 1.86D+02 IAcc=3 IRadAn=         5 AccDes= 0.00D+00
 HarFok:  IExCor=  205 AccDes= 0.00D+00 IRadAn=         5 IDoV=-2 UseB2=F ITyADJ=14
 ICtDFT= 12500011 ScaDFX=  1.000000  1.000000  1.000000  1.000000
 Largest valence mixing into a core orbital is  7.01D-05
 Largest core mixing into a valence orbital is  1.36D-05
 Range of M.O.s used for correlation:     4   108
 NBasis=   108 NAE=    12 NBE=    12 NFC=     3 NFV=     0
 NROrb=    105 NOA=     9 NOB=     9 NVA=    96 NVB=    96

 **** Warning!!: The largest alpha MO coefficient is  0.36669314D+02

 Leave Link  801 at Mon Mar 21 20:19:27 2022, MaxMem=  8589934592 cpu:               0.5 elap:               0.1
 (Enter /home/sabyasachi/g16/l914.exe)
 RHF ground state
 Keep J ints in memory in symmetry-blocked form, NReq=917743031.
 FoFCou: FMM=F IPFlag=           0 FMFlag=           0 FMFlg1=           0
         NFxFlg=           0 DoJE=F BraDBF=F KetDBF=F FulRan=T
         wScrn=  0.000000 ICntrl=       600 IOpCl=  0 I1Cent=           0 NGrid=           0
         NMat0=    1 NMatS0=   5886 NMatT0=    0 NMatD0=    1 NMtDS0=    0 NMtDT0=    0
 Petite list used in FoFCou.
 MDV=  8589934592 DFT=T DoStab=F Mixed=F DoRPA=T DoScal=T NonHer=F
 Making orbital integer symmetry assigments:
 Orbital symmetries:
       Occupied  (A') (A') (A') (A') (A') (A') (A") (A') (A") (A")
                 (A') (A')
       Virtual   (A') (A') (A') (A") (A') (A') (A") (A") (A') (A')
                 (A') (A') (A") (A") (A") (A') (A') (A') (A') (A')
                 (A") (A") (A") (A") (A') (A') (A') (A') (A') (A")
                 (A") (A') (A') (A') (A") (A") (A") (A') (A') (A')
                 (A') (A') (A") (A") (A") (A") (A') (A') (A') (A")
                 (A") (A') (A') (A') (A') (A") (A') (A') (A') (A')
                 (A') (A") (A") (A") (A") (A') (A') (A') (A") (A")
                 (A") (A") (A") (A') (A') (A') (A') (A") (A") (A')
                 (A') (A') (A') (A') (A") (A") (A") (A') (A') (A')
                 (A") (A') (A') (A') (A") (A")
   864 initial guesses have been made.
 Convergence on wavefunction:    0.001000000000000
 Davidson Disk Diagonalization:  ConvIn= 1.00D-03 SkipCon=T Conv= 1.00D-03.
 Max sub-space:  3456 roots to seek:  1728 dimension of matrix:         1728
 *** WARNING: Number of orthogonal guesses is          864
 Iteration     1 Dimension   864 NMult     0 NNew    864
 CISAX will form   864 AO SS matrices at one time.
 NMat=   864 NSing=   864 JSym2X=-1.
 New state      3 was old state      4
 New state      4 was old state      3
 New state      5 was old state      6
 New state      6 was old state      5
 New state     15 was old state     16
 New state     16 was old state     15
 New state     17 was old state     19
 New state     18 was old state     20
 New state     19 was old state     22
 New state     20 was old state     21
 New state     21 was old state     23
 New state     22 was old state     24
 New state     23 was old state     17
 New state     24 was old state     18
 New state     25 was old state     27
 New state     26 was old state     25
 New state     27 was old state     26
 New state     29 was old state     30
 New state     30 was old state     31
 New state     31 was old state     32
 New state     32 was old state     29
 New state     33 was old state     35
 New state     35 was old state     37
 New state     37 was old state     33
 New state     41 was old state     43
 New state     43 was old state     45
 New state     45 was old state     47
 New state     47 was old state     49
 New state     48 was old state     50
 New state     49 was old state     48
 New state     50 was old state     60
 New state     51 was old state     53
 New state     52 was old state     55
 New state     53 was old state     56
 New state     54 was old state     57
 New state     55 was old state     54
 New state     56 was old state     51
 New state     57 was old state     52
 New state     60 was old state     61
 New state     61 was old state     64
 New state     63 was old state     65
 New state     64 was old state     66
 New state     65 was old state     70
 New state     66 was old state     69
 New state     67 was old state     71
 New state     68 was old state     63
 New state     69 was old state     67
 New state     70 was old state     68
 New state     71 was old state     90
 New state     72 was old state     73
 New state     73 was old state     74
 New state     74 was old state     72
 New state     75 was old state     76
 New state     76 was old state     75
 New state     77 was old state     80
 New state     78 was old state     81
 New state     79 was old state     82
 New state     80 was old state     83
 New state     81 was old state     84
 New state     82 was old state     77
 New state     83 was old state     78
 New state     84 was old state     79
 New state     90 was old state     93
 New state     91 was old state     94
 New state     92 was old state     97
 New state     93 was old state     98
 New state     94 was old state     95
 New state     95 was old state     96
 New state     96 was old state    100
 New state     97 was old state     99
 New state     98 was old state    101
 New state     99 was old state    102
 New state    100 was old state     91
 New state    101 was old state    108
 New state    102 was old state    107
 New state    104 was old state    109
 New state    105 was old state    110
 New state    106 was old state    104
 New state    107 was old state    106
 New state    108 was old state    105
 New state    109 was old state    133
 New state    110 was old state    132
 New state    116 was old state    118
 New state    117 was old state    119
 New state    118 was old state    116
 New state    119 was old state    117
 New state    120 was old state    121
 New state    121 was old state    122
 New state    122 was old state    123
 New state    123 was old state    125
 New state    125 was old state    127
 New state    127 was old state    128
 New state    128 was old state    129
 New state    129 was old state    135
 New state    130 was old state    120
 New state    131 was old state    134
 New state    132 was old state    138
 New state    133 was old state    139
 New state    134 was old state    136
 New state    135 was old state    137
 New state    136 was old state    141
 New state    137 was old state    142
 New state    138 was old state    140
 New state    139 was old state    144
 New state    140 was old state    130
 New state    141 was old state    131
 New state    142 was old state    147
 New state    144 was old state    150
 New state    145 was old state    148
 New state    147 was old state    145
 New state    148 was old state    151
 New state    150 was old state    153
 New state    151 was old state    154
 New state    152 was old state    155
 New state    153 was old state    157
 New state    154 was old state    158
 New state    155 was old state    156
 New state    156 was old state    152
 New state    157 was old state    167
 No map to state    158
 New state    161 was old state    162
 New state    162 was old state    165
 New state    163 was old state    161
 New state    165 was old state    163
 New state    166 was old state    168
 New state    167 was old state    166
 New state    168 was old state    169
 New state    169 was old state    170
 New state    170 was old state    172
 New state    171 was old state    188
 New state    172 was old state    171
 New state    173 was old state    175
 New state    174 was old state    173
 New state    175 was old state    174
 New state    177 was old state    178
 New state    178 was old state    181
 New state    179 was old state    182
 New state    180 was old state    179
 New state    181 was old state    180
 New state    182 was old state    186
 New state    183 was old state    187
 New state    185 was old state    183
 New state    186 was old state    185
 New state    187 was old state    189
 New state    188 was old state    195
 New state    189 was old state    194
 New state    190 was old state    196
 New state    191 was old state    197
 New state    192 was old state    198
 New state    193 was old state    199
 New state    194 was old state    204
 New state    195 was old state    200
 New state    196 was old state    191
 New state    197 was old state    202
 New state    198 was old state    192
 New state    199 was old state    193
 New state    200 was old state    190
 New state    201 was old state    211
 New state    202 was old state    205
 New state    203 was old state    206
 New state    204 was old state    207
 New state    205 was old state    209
 New state    206 was old state    212
 New state    207 was old state    213
 New state    208 was old state    214
 New state    209 was old state    210
 No map to state    210
 New state    211 was old state    201
 New state    212 was old state    208
 New state    213 was old state    222
 New state    214 was old state    215
 New state    215 was old state    216
 New state    216 was old state    218
 New state    218 was old state    221
 New state    221 was old state    245
 New state    222 was old state    241
 New state    227 was old state    231
 New state    228 was old state    227
 New state    229 was old state    234
 New state    230 was old state    235
 New state    231 was old state    230
 New state    234 was old state    236
 New state    235 was old state    237
 New state    236 was old state    239
 New state    237 was old state    238
 New state    238 was old state    250
 New state    239 was old state    251
 New state    240 was old state    244
 New state    241 was old state    246
 New state    242 was old state    247
 New state    243 was old state    248
 New state    244 was old state    249
 New state    245 was old state    253
 New state    246 was old state    254
 New state    247 was old state    252
 New state    248 was old state    240
 New state    249 was old state    242
 New state    250 was old state    243
 New state    251 was old state    255
 New state    252 was old state    256
 New state    253 was old state    260
 New state    254 was old state    261
 New state    255 was old state    267
 New state    256 was old state    258
 New state    257 was old state    259
 New state    258 was old state    262
 New state    259 was old state    263
 New state    260 was old state    257
 New state    261 was old state    266
 New state    262 was old state    265
 New state    263 was old state    264
 New state    264 was old state    268
 New state    265 was old state    269
 New state    266 was old state    270
 New state    267 was old state    271
 New state    268 was old state    273
 New state    269 was old state    272
 New state    270 was old state    274
 New state    271 was old state    275
 New state    272 was old state    280
 New state    273 was old state    276
 New state    274 was old state    277
 New state    275 was old state    278
 New state    276 was old state    279
 New state    277 was old state    282
 New state    278 was old state    283
 New state    279 was old state    281
 No map to state    280
 New state    281 was old state    285
 New state    282 was old state    284
 New state    283 was old state    306
 New state    284 was old state    305
 New state    285 was old state    287
 New state    286 was old state    288
 New state    287 was old state    291
 New state    288 was old state    290
 New state    289 was old state    312
 New state    290 was old state    286
 New state    291 was old state    292
 New state    292 was old state    293
 New state    293 was old state    294
 New state    294 was old state    297
 New state    295 was old state    296
 New state    296 was old state    295
 New state    297 was old state    298
 New state    298 was old state    299
 New state    299 was old state    301
 New state    300 was old state    289
 New state    301 was old state    304
 New state    304 was old state    307
 New state    305 was old state    308
 New state    306 was old state    309
 New state    307 was old state    310
 New state    308 was old state    315
 New state    309 was old state    311
 New state    310 was old state    313
 New state    311 was old state    316
 New state    312 was old state    314
 New state    313 was old state    329
 New state    314 was old state    320
 New state    315 was old state    332
 New state    316 was old state    330
 New state    317 was old state    300
 New state    318 was old state    323
 New state    319 was old state    324
 New state    320 was old state    317
 New state    321 was old state    318
 New state    322 was old state    328
 New state    323 was old state    326
 New state    324 was old state    325
 New state    325 was old state    327
 New state    326 was old state    331
 New state    327 was old state    319
 New state    328 was old state    321
 New state    329 was old state    322
 New state    330 was old state    336
 New state    331 was old state    335
 New state    332 was old state    339
 New state    333 was old state    340
 New state    334 was old state    338
 New state    335 was old state    333
 New state    336 was old state    334
 No map to state    337
 No map to state    338
 New state    339 was old state    343
 New state    340 was old state    337
 New state    343 was old state    344
 New state    344 was old state    347
 New state    345 was old state    348
 New state    346 was old state    345
 New state    347 was old state    346
 New state    348 was old state    351
 New state    349 was old state    352
 No map to state    350
 New state    351 was old state    353
 New state    352 was old state    354
 New state    353 was old state    357
 New state    354 was old state    355
 New state    355 was old state    349
 New state    356 was old state    350
 New state    357 was old state    356
 New state    361 was old state    362
 New state    362 was old state    361
 New state    363 was old state    367
 New state    364 was old state    368
 New state    365 was old state    363
 New state    366 was old state    364
 New state    367 was old state    369
 New state    368 was old state    370
 New state    369 was old state    371
 New state    370 was old state    372
 New state    371 was old state    365
 New state    372 was old state    366
 New state    375 was old state    376
 New state    376 was old state    375
 New state    379 was old state    384
 New state    380 was old state    383
 New state    381 was old state    385
 New state    382 was old state    388
 New state    383 was old state    386
 New state    384 was old state    379
 New state    385 was old state    380
 New state    386 was old state    387
 New state    387 was old state    382
 No map to state    388
 New state    390 was old state    394
 New state    391 was old state    393
 New state    392 was old state    391
 New state    393 was old state    392
 New state    394 was old state    390
 New state    399 was old state    400
 New state    400 was old state    399
 New state    403 was old state    404
 New state    404 was old state    406
 New state    406 was old state    403
 New state    408 was old state    409
 New state    409 was old state    410
 New state    410 was old state    411
 New state    411 was old state    408
 New state    412 was old state    414
 New state    413 was old state    415
 New state    414 was old state    412
 New state    415 was old state    413
 New state    416 was old state    418
 New state    417 was old state    416
 New state    418 was old state    417
 New state    419 was old state    426
 New state    420 was old state    425
 New state    421 was old state    423
 New state    422 was old state    424
 New state    423 was old state    422
 New state    424 was old state    427
 New state    425 was old state    428
 New state    426 was old state    429
 New state    427 was old state    430
 New state    428 was old state    431
 New state    429 was old state    432
 New state    430 was old state    450
 New state    431 was old state    451
 New state    432 was old state    433
 New state    433 was old state    434
 New state    434 was old state    435
 New state    435 was old state    436
 New state    436 was old state    437
 New state    437 was old state    442
 New state    438 was old state    443
 New state    439 was old state    444
 New state    440 was old state    445
 New state    441 was old state    448
 New state    442 was old state    449
 New state    443 was old state    446
 New state    444 was old state    447
 New state    445 was old state    438
 New state    446 was old state    440
 New state    447 was old state    441
 No map to state    448
 New state    449 was old state    419
 New state    450 was old state    452
 New state    451 was old state    453
 New state    452 was old state    460
 New state    453 was old state    459
 New state    459 was old state    462
 New state    460 was old state    461
 New state    461 was old state    463
 New state    462 was old state    464
 New state    463 was old state    467
 New state    464 was old state    466
 New state    466 was old state    472
 New state    467 was old state    473
 New state    470 was old state    471
 New state    471 was old state    474
 New state    472 was old state    470
 New state    473 was old state    476
 New state    474 was old state    477
 New state    476 was old state    478
 New state    477 was old state    479
 New state    478 was old state    480
 New state    479 was old state    484
 New state    480 was old state    483
 New state    483 was old state    486
 New state    484 was old state    488
 New state    485 was old state    487
 New state    486 was old state    490
 New state    487 was old state    491
 New state    488 was old state    489
 New state    489 was old state    485
 New state    490 was old state    507
 New state    491 was old state    506
 New state    496 was old state    498
 New state    497 was old state    501
 New state    498 was old state    496
 New state    499 was old state    497
 New state    501 was old state    502
 New state    502 was old state    503
 New state    503 was old state    504
 New state    504 was old state    505
 New state    505 was old state    508
 New state    506 was old state    509
 New state    507 was old state    499
 New state    508 was old state    510
 New state    509 was old state    511
 New state    510 was old state    512
 New state    511 was old state    513
 New state    512 was old state    524
 New state    513 was old state    525
 New state    515 was old state    518
 New state    516 was old state    519
 New state    518 was old state    515
 New state    519 was old state    516
 New state    520 was old state    521
 New state    521 was old state    520
 New state    524 was old state    528
 New state    525 was old state    530
 New state    528 was old state    532
 New state    530 was old state    534
 New state    531 was old state    535
 New state    532 was old state    536
 New state    533 was old state    537
 New state    534 was old state    533
 New state    535 was old state    538
 New state    536 was old state    539
 New state    537 was old state    531
 New state    538 was old state    546
 New state    539 was old state    540
 New state    540 was old state    541
 New state    541 was old state    549
 New state    542 was old state    544
 New state    543 was old state    542
 New state    544 was old state    543
 No map to state    546
 New state    549 was old state    551
 New state    551 was old state    552
 New state    552 was old state    553
 New state    553 was old state    554
 New state    554 was old state    555
 New state    555 was old state    556
 No map to state    556
 New state    558 was old state    559
 New state    559 was old state    560
 New state    560 was old state    558
 New state    568 was old state    571
 New state    569 was old state    572
 New state    571 was old state    569
 New state    572 was old state    568
 New state    574 was old state    576
 New state    575 was old state    574
 New state    576 was old state    575
 New state    579 was old state    580
 New state    580 was old state    579
 New state    588 was old state    589
 New state    589 was old state    590
 New state    590 was old state    588
 New state    604 was old state    605
 New state    605 was old state    604
 New state    610 was old state    614
 New state    611 was old state    613
 New state    613 was old state    615
 New state    614 was old state    617
 New state    615 was old state    616
 New state    616 was old state    611
 New state    617 was old state    610
 New state    620 was old state    622
 New state    622 was old state    623
 New state    623 was old state    620
 New state    625 was old state    626
 New state    626 was old state    625
 New state    633 was old state    635
 New state    634 was old state    636
 New state    635 was old state    634
 New state    636 was old state    637
 New state    637 was old state    633
 New state    644 was old state    645
 New state    645 was old state    644
 New state    652 was old state    654
 New state    653 was old state    655
 New state    654 was old state    652
 New state    655 was old state    653
 New state    656 was old state    658
 New state    657 was old state    659
 New state    658 was old state    661
 New state    659 was old state    656
 New state    660 was old state    657
 New state    661 was old state    660
 New state    662 was old state    663
 New state    663 was old state    664
 New state    664 was old state    662
 New state    667 was old state    668
 New state    668 was old state    667
 New state    673 was old state    674
 New state    674 was old state    673
 New state    675 was old state    676
 New state    676 was old state    675
 New state    677 was old state    679
 New state    678 was old state    677
 New state    679 was old state    681
 New state    680 was old state    682
 New state    681 was old state    680
 New state    682 was old state    678
 New state    685 was old state    686
 New state    686 was old state    685
 New state    697 was old state    698
 New state    698 was old state    697
 New state    714 was old state    715
 New state    715 was old state    716
 New state    716 was old state    714
 New state    724 was old state    725
 New state    725 was old state    724
 New state    726 was old state    727
 New state    727 was old state    728
 New state    728 was old state    726
 New state    730 was old state    731
 New state    731 was old state    730
 New state    735 was old state    737
 New state    736 was old state    735
 New state    737 was old state    736
 New state    738 was old state    739
 New state    739 was old state    740
 New state    740 was old state    741
 New state    741 was old state    738
 New state    743 was old state    744
 New state    744 was old state    743
 New state    754 was old state    756
 New state    755 was old state    757
 New state    756 was old state    754
 New state    757 was old state    755
 New state    764 was old state    765
 New state    765 was old state    764
 New state    769 was old state    771
 New state    770 was old state    769
 New state    771 was old state    770
 New state    776 was old state    777
 New state    777 was old state    776
 New state    784 was old state    787
 New state    785 was old state    788
 New state    787 was old state    784
 New state    788 was old state    785
 New state    795 was old state    796
 New state    796 was old state    795
 New state    801 was old state    803
 New state    802 was old state    804
 New state    803 was old state    801
 New state    804 was old state    802
 New state    807 was old state    808
 New state    808 was old state    807
 New state    809 was old state    813
 New state    810 was old state    809
 New state    813 was old state    817
 New state    815 was old state    816
 New state    816 was old state    810
 New state    817 was old state    815
 New state    822 was old state    823
 New state    823 was old state    822
 New state    825 was old state    827
 New state    826 was old state    828
 New state    827 was old state    825
 New state    828 was old state    826
 New state    833 was old state    835
 New state    834 was old state    833
 New state    835 was old state    834
 New state    840 was old state    841
 New state    841 was old state    840
 New state    846 was old state    847
 New state    847 was old state    846
 New state    859 was old state    860
 New state    860 was old state    859
 Excitation Energies [eV] at current iteration:
 Root      1 :     7.436574082500636
 Root      2 :     7.436735193730414
 Root      3 :     8.104886383806743
 Root      4 :     8.107158018031377
 Root      5 :     8.159312091846109
 Root      6 :     8.159336483746317
 Root      7 :     8.299448316530787
 Root      8 :     8.299617051520787
 Root      9 :     9.005844624792585
 Root     10 :     9.005923026726400
 Root     11 :     9.598252566653450
 Root     12 :     9.598416974154526
 Root     13 :     9.618836917851349
 Root     14 :     9.668356779707176
 Root     15 :     9.668379232207792
 Root     16 :     9.764972796502061
 Root     17 :    10.032588461473120
 Root     18 :    10.032669573826070
 Root     19 :    10.442331360298720
 Root     20 :    10.446800802454430
 Root     21 :    10.458647128077100
 Root     22 :    10.458652052138500
 Root     23 :    10.592105102224210
 Root     24 :    10.592237797146420
 Root     25 :    11.165542863217410
 Root     26 :    11.195594592564280
 Root     27 :    11.195682345600150
 Root     28 :    11.210987732427790
 Root     29 :    11.211069748392390
 Root     30 :    11.460616474399050
 Root     31 :    11.460703083446100
 Root     32 :    11.491728187390190
 Root     33 :    11.766393222106050
 Root     34 :    11.771617100767030
 Root     35 :    11.842659220672910
 Root     36 :    11.842667669084230
 Root     37 :    11.846188454511110
 Root     38 :    11.919036772334640
 Root     39 :    11.919208505750000
 Root     40 :    11.998083583710380
 Root     41 :    12.159677757582120
 Root     42 :    12.159711561567540
 Root     43 :    12.212063324097660
 Root     44 :    12.212070140779620
 Root     45 :    12.219302125879970
 Root     46 :    12.325948652225900
 Root     47 :    12.469243740989610
 Root     48 :    12.469352752718640
 Root     49 :    12.479648246527680
 Root     50 :    12.607403440955410
 Root     51 :    12.678957191398760
 Root     52 :    12.695503991836130
 Root     53 :    12.728449311809520
 Root     54 :    12.728457817280000
 Root     55 :    12.780286760812170
 Root     56 :    12.797447421703600
 Root     57 :    12.797595649264380
 Root     58 :    13.132581549648020
 Root     59 :    13.132704872052250
 Root     60 :    13.326293973074260
 Root     61 :    13.433068536979760
 Root     62 :    13.433087697844540
 Root     63 :    13.674062056781350
 Root     64 :    13.674156246551860
 Root     65 :    13.730854092736930
 Root     66 :    13.787533265411570
 Root     67 :    13.874132959766160
 Root     68 :    13.886384332025250
 Root     69 :    14.090286883645350
 Root     70 :    14.090325405837310
 Root     71 :    14.191219470005380
 Root     72 :    14.227023873659850
 Root     73 :    14.227097010223640
 Root     74 :    14.345342041205330
 Root     75 :    14.642312597011320
 Root     76 :    14.663005542607890
 Root     77 :    14.789480944295860
 Root     78 :    14.789548665609430
 Root     79 :    14.808388790669530
 Root     80 :    14.808440642923880
 Root     81 :    14.880743531586680
 Root     82 :    14.893361956169240
 Root     83 :    14.893408469195540
 Root     84 :    14.971623075483830
 Root     85 :    15.183414321864230
 Root     86 :    15.183576165449140
 Root     87 :    15.391147346670230
 Root     88 :    15.391204529180610
 Root     89 :    15.436967654744240
 Root     90 :    15.448910140682050
 Root     91 :    15.448924178108420
 Root     92 :    15.534382046827670
 Root     93 :    15.534547682535390
 Root     94 :    15.549264113442640
 Root     95 :    15.549300769481220
 Root     96 :    15.644557755614010
 Root     97 :    15.644568132334500
 Root     98 :    15.651381486263780
 Root     99 :    15.651461037566010
 Root    100 :    15.970567694336250
 Root    101 :    16.045573687113810
 Root    102 :    16.045609244694360
 Root    103 :    16.087471135419850
 Root    104 :    16.168476769924390
 Root    105 :    16.168523517507820
 Root    106 :    16.210775042512840
 Root    107 :    16.210790498859770
 Root    108 :    16.280102604949000
 Root    109 :    16.397821344285730
 Root    110 :    16.397869736779280
 Root    111 :    16.440609795744570
 Root    112 :    16.596794990038560
 Root    113 :    16.596817541475910
 Root    114 :    16.705029380149430
 Root    115 :    16.705102278604230
 Root    116 :    16.848201607111530
 Root    117 :    16.848300728087460
 Root    118 :    16.920964353163100
 Root    119 :    16.920997227328440
 Root    120 :    16.952391499492230
 Root    121 :    16.965340525318440
 Root    122 :    16.965427063163930
 Root    123 :    16.970110849506550
 Root    124 :    17.002432207534660
 Root    125 :    17.034358220508140
 Root    126 :    17.034370091670780
 Root    127 :    17.084711735279770
 Root    128 :    17.084840068490010
 Root    129 :    17.109032788379520
 Root    130 :    17.126851274403490
 Root    131 :    17.206312719188900
 Root    132 :    17.235697785720940
 Root    133 :    17.235711922406870
 Root    134 :    17.345142178788110
 Root    135 :    17.345228261639610
 Root    136 :    17.404422994432830
 Root    137 :    17.404446756525430
 Root    138 :    17.614410436242020
 Root    139 :    17.693674937572460
 Root    140 :    17.708162833157570
 Root    141 :    17.708259992952430
 Root    142 :    17.770740738531070
 Root    143 :    17.771130275524450
 Root    144 :    17.850543262622930
 Root    145 :    17.850547096779870
 Root    146 :    17.851667501576550
 Root    147 :    17.851739444377310
 Root    148 :    17.919828758514300
 Root    149 :    17.943310610841970
 Root    150 :    17.952476226695530
 Root    151 :    17.952478399159680
 Root    152 :    17.960045680369130
 Root    153 :    17.960148950791010
 Root    154 :    18.128859646559330
 Root    155 :    18.128961292597480
 Root    156 :    18.130780928393730
 Root    157 :    18.131097125396220
 Root    158 :    18.131207586632260
 Root    159 :    18.479948674190250
 Root    160 :    18.480058904088600
 Root    161 :    18.489133701909320
 Root    162 :    18.545713561823550
 Root    163 :    18.566568675680160
 Root    164 :    18.601397628946580
 Root    165 :    18.601402597409980
 Root    166 :    18.623789307216320
 Root    167 :    18.623857452705580
 Root    168 :    18.682307069283150
 Root    169 :    18.731386767024690
 Root    170 :    18.731430932006200
 Root    171 :    18.761897388742430
 Root    172 :    18.992778173205750
 Root    173 :    19.100463280359410
 Root    174 :    19.200112137808740
 Root    175 :    19.200183474895710
 Root    176 :    19.242740081359710
 Root    177 :    19.242742248337870
 Root    178 :    19.272452331945440
 Root    179 :    19.272538439315670
 Root    180 :    19.295945095740310
 Root    181 :    19.295979550687640
 Root    182 :    19.304378438577900
 Root    183 :    19.325985190944380
 Root    184 :    19.346907496248110
 Root    185 :    19.360153040198030
 Root    186 :    19.360192277433460
 Root    187 :    19.490972217667090
 Root    188 :    19.570725239996680
 Root    189 :    19.577502353861960
 Root    190 :    19.577549648824430
 Root    191 :    19.589436311616120
 Root    192 :    19.621850760762470
 Root    193 :    19.621973333797050
 Root    194 :    19.638091794473390
 Root    195 :    19.643209881599340
 Root    196 :    19.656923777545260
 Root    197 :    19.677983960431440
 Root    198 :    19.684118030791910
 Root    199 :    19.684212581846310
 Root    200 :    19.747143797814500
 Root    201 :    19.747173719554250
 Root    202 :    19.775337139254010
 Root    203 :    19.775419379346080
 Root    204 :    19.787102499199490
 Root    205 :    19.865916507324790
 Root    206 :    19.872984770246250
 Root    207 :    19.873047462034620
 Root    208 :    19.918509998106420
 Root    209 :    20.020872492390860
 Root    210 :    20.020948487116580
 Root    211 :    20.038243808994320
 Root    212 :    20.038292053410330
 Root    213 :    20.116206560387500
 Root    214 :    20.146943474596050
 Root    215 :    20.306742182765970
 Root    216 :    20.375138490718640
 Root    217 :    20.504447541048500
 Root    218 :    20.547061237187800
 Root    219 :    20.602213517423770
 Root    220 :    20.602223859100650
 Root    221 :    20.911410957611790
 Root    222 :    20.996778332182350
 Root    223 :    21.272166261672900
 Root    224 :    21.272287962152370
 Root    225 :    21.335473288393310
 Root    226 :    21.335562408885950
 Root    227 :    21.361281097407120
 Root    228 :    21.376094896149600
 Root    229 :    21.478913560873960
 Root    230 :    21.479040754455000
 Root    231 :    21.490486085159040
 Root    232 :    21.537811294447550
 Root    233 :    21.537853559135130
 Root    234 :    21.574750058673640
 Root    235 :    21.629227256776980
 Root    236 :    21.686105450127370
 Root    237 :    21.686139081489690
 Root    238 :    21.876900183856490
 Root    239 :    21.877014632503770
 Root    240 :    21.966346386800630
 Root    241 :    21.993044946852000
 Root    242 :    21.993058587145850
 Root    243 :    22.001833223410890
 Root    244 :    22.001996431112640
 Root    245 :    22.054490780632440
 Root    246 :    22.054748146868390
 Root    247 :    22.055374146721730
 Root    248 :    22.103359461359890
 Root    249 :    22.103580614575280
 Root    250 :    22.118769353860490
 Root    251 :    22.199969621201150
 Root    252 :    22.200090070961900
 Root    253 :    22.350990010819940
 Root    254 :    22.351017420946860
 Root    255 :    22.379292840345640
 Root    256 :    22.401304276221910
 Root    257 :    22.401389503534480
 Root    258 :    22.456125887797830
 Root    259 :    22.456173295974110
 Root    260 :    22.463942284672470
 Root    261 :    22.531265595801940
 Root    262 :    22.775875370701420
 Root    263 :    22.775881739525290
 Root    264 :    22.816754926013310
 Root    265 :    22.817253721157610
 Root    266 :    22.864495296240640
 Root    267 :    22.864587081709520
 Root    268 :    22.966239908731570
 Root    269 :    22.966276008032870
 Root    270 :    23.044105117656350
 Root    271 :    23.044180497857620
 Root    272 :    23.050223171677070
 Root    273 :    23.059157062034630
 Root    274 :    23.059309550785880
 Root    275 :    23.137593371867140
 Root    276 :    23.137617239640160
 Root    277 :    23.155564216147620
 Root    278 :    23.213425305908240
 Root    279 :    23.237936703875960
 Root    280 :    23.237954380179600
 Root    281 :    23.556572221986820
 Root    282 :    23.627422380891870
 Root    283 :    23.780150449699660
 Root    284 :    23.780179118775730
 Root    285 :    23.920512109951020
 Root    286 :    23.939131935695530
 Root    287 :    23.953222309475930
 Root    288 :    23.953253301165880
 Root    289 :    24.046861949806010
 Root    290 :    24.057495811923390
 Root    291 :    24.178642902701240
 Root    292 :    24.178695184477860
 Root    293 :    24.312181623240920
 Root    294 :    24.337779120963520
 Root    295 :    24.337803619736600
 Root    296 :    24.399555155433910
 Root    297 :    24.514161028606870
 Root    298 :    24.514215590631290
 Root    299 :    24.522231690329990
 Root    300 :    24.551524418429040
 Root    301 :    24.565473573363690
 Root    302 :    24.713906095642390
 Root    303 :    24.713924929037290
 Root    304 :    24.948775082947250
 Root    305 :    24.948793815259210
 Root    306 :    25.002763650781410
 Root    307 :    25.002806178619100
 Root    308 :    25.087625770419500
 Root    309 :    25.087687651806880
 Root    310 :    25.087697233210420
 Root    311 :    25.087786352466830
 Root    312 :    25.095476955871500
 Root    313 :    25.230111289611110
 Root    314 :    25.253488646287980
 Root    315 :    25.281266782317150
 Root    316 :    25.281297426138980
 Root    317 :    25.307264980128040
 Root    318 :    25.336773691059950
 Root    319 :    25.336782890488680
 Root    320 :    25.396871014038560
 Root    321 :    25.396904057530670
 Root    322 :    25.412059980910390
 Root    323 :    25.516696149483820
 Root    324 :    25.528647382265720
 Root    325 :    25.528678993377840
 Root    326 :    25.546603635448960
 Root    327 :    25.568451176396680
 Root    328 :    25.568456087633210
 Root    329 :    25.582526988468420
 Root    330 :    25.759926490576120
 Root    331 :    25.759939959316590
 Root    332 :    25.807305288774920
 Root    333 :    25.807387564226960
 Root    334 :    25.820992393558770
 Root    335 :    25.876633878634900
 Root    336 :    25.876698589585860
 Root    337 :    25.965822717991500
 Root    338 :    25.965913047196660
 Root    339 :    26.015110165429970
 Root    340 :    26.132706225813610
 Root    341 :    26.226744106480730
 Root    342 :    26.226770522391370
 Root    343 :    26.513028240039100
 Root    344 :    26.601729280582070
 Root    345 :    26.601838645143810
 Root    346 :    26.677450480617780
 Root    347 :    26.677583497022750
 Root    348 :    26.694485609422410
 Root    349 :    26.694614693335810
 Root    350 :    26.726435098983310
 Root    351 :    27.020158134381920
 Root    352 :    27.020299178694340
 Root    353 :    27.190033977765190
 Root    354 :    27.190436900255960
 Root    355 :    27.309242744079180
 Root    356 :    27.309367741995160
 Root    357 :    27.361692041907340
 Root    358 :    27.361736801890930
 Root    359 :    27.805899619938040
 Root    360 :    27.805904332900760
 Root    361 :    27.835748406516970
 Root    362 :    27.923534701531750
 Root    363 :    28.307339973972470
 Root    364 :    28.307432456363670
 Root    365 :    28.468679410070120
 Root    366 :    28.468709878414940
 Root    367 :    28.722581339379750
 Root    368 :    28.722702106032820
 Root    369 :    28.828177220906000
 Root    370 :    28.828279673536280
 Root    371 :    28.867297185899850
 Root    372 :    28.867379921567630
 Root    373 :    28.941622755960330
 Root    374 :    28.941659419285530
 Root    375 :    28.961595956584030
 Root    376 :    28.968615834270840
 Root    377 :    28.999564747714520
 Root    378 :    28.999627984500690
 Root    379 :    29.095103583349090
 Root    380 :    29.134622091426220
 Root    381 :    29.460891481469580
 Root    382 :    29.483667813309930
 Root    383 :    29.494350174492290
 Root    384 :    29.801842134724350
 Root    385 :    29.801898287280580
 Root    386 :    29.924339925146440
 Root    387 :    29.964491857910950
 Root    388 :    30.256471886109690
 Root    389 :    30.566193006765250
 Root    390 :    30.639413908883070
 Root    391 :    30.658344918108190
 Root    392 :    30.664914119680030
 Root    393 :    30.664917234733680
 Root    394 :    30.820626092192460
 Root    395 :    30.889257854075740
 Root    396 :    30.889285713395630
 Root    397 :    30.996714769155560
 Root    398 :    30.996805707849120
 Root    399 :    31.126275419039820
 Root    400 :    31.159750193402750
 Root    401 :    31.224254500217690
 Root    402 :    31.224545567631920
 Root    403 :    31.325805408367040
 Root    404 :    31.327932456245900
 Root    405 :    31.327962695306540
 Root    406 :    31.350306538079580
 Root    407 :    31.705964343436510
 Root    408 :    31.827820515156820
 Root    409 :    31.874107070167960
 Root    410 :    31.874501929144210
 Root    411 :    32.022155850473320
 Root    412 :    32.091200846888530
 Root    413 :    32.091242754677700
 Root    414 :    32.105970439418310
 Root    415 :    32.106093595726110
 Root    416 :    32.301298480693000
 Root    417 :    32.319428340754290
 Root    418 :    32.319509509240890
 Root    419 :    32.505696457729360
 Root    420 :    32.505779043029790
 Root    421 :    32.516186928906880
 Root    422 :    32.516292389213070
 Root    423 :    32.529236025747250
 Root    424 :    32.609543620286790
 Root    425 :    32.637349913268160
 Root    426 :    33.089408631776680
 Root    427 :    33.089583048792240
 Root    428 :    33.413529114283090
 Root    429 :    33.413668320985560
 Root    430 :    33.514523788860980
 Root    431 :    33.514644321944010
 Root    432 :    33.624031322897030
 Root    433 :    33.690230811094660
 Root    434 :    33.690314424003820
 Root    435 :    33.851397602872490
 Root    436 :    33.851444659623660
 Root    437 :    34.006410122906030
 Root    438 :    34.006518075125080
 Root    439 :    34.134165103985370
 Root    440 :    34.134272769518240
 Root    441 :    34.233063651849380
 Root    442 :    34.233225095074090
 Root    443 :    34.256404053845150
 Root    444 :    34.375202466802080
 Root    445 :    34.375254677349940
 Root    446 :    34.386378749192670
 Root    447 :    34.386457792338060
 Root    448 :    34.409003549638790
 Root    449 :    34.505190947653350
 Root    450 :    34.754780913775330
 Root    451 :    34.754863728386700
 Root    452 :    34.817035902698180
 Root    453 :    34.817043990576460
 Root    454 :    35.292853377529800
 Root    455 :    35.292898355537310
 Root    456 :    35.480300579057670
 Root    457 :    35.602948285541690
 Root    458 :    35.603084402404700
 Root    459 :    35.895060929787380
 Root    460 :    35.895078430393440
 Root    461 :    36.228294319164390
 Root    462 :    36.228330215107440
 Root    463 :    36.415790349978670
 Root    464 :    36.500233128047650
 Root    465 :    36.504446065447940
 Root    466 :    36.603287662040870
 Root    467 :    36.603297239302210
 Root    468 :    36.899507716208020
 Root    469 :    37.072584353362390
 Root    470 :    37.072592751094450
 Root    471 :    37.132588619528260
 Root    472 :    37.227589513782450
 Root    473 :    37.687489398280960
 Root    474 :    37.687542929270460
 Root    475 :    37.755533459999410
 Root    476 :    37.949996750347080
 Root    477 :    37.950093704221690
 Root    478 :    38.048194006102620
 Root    479 :    38.154281039922250
 Root    480 :    38.240722739786900
 Root    481 :    38.240756487360870
 Root    482 :    38.386811846089000
 Root    483 :    38.510524702890000
 Root    484 :    38.533450620020450
 Root    485 :    38.533465814290530
 Root    486 :    38.547734570801550
 Root    487 :    38.547743966998470
 Root    488 :    38.651995719199730
 Root    489 :    38.894235197077840
 Root    490 :    38.904954134548490
 Root    491 :    38.905064238140400
 Root    492 :    39.098207442880650
 Root    493 :    39.585683858866220
 Root    494 :    39.623306394156540
 Root    495 :    39.623406331157850
 Root    496 :    40.033102565555050
 Root    497 :    40.147446727257090
 Root    498 :    40.155378824298780
 Root    499 :    40.155403919455240
 Root    500 :    40.272397569149210
 Root    501 :    40.272466664713040
 Root    502 :    40.273254287216740
 Root    503 :    40.425076874110240
 Root    504 :    40.425172736015280
 Root    505 :    40.734145541804640
 Root    506 :    40.854234768398800
 Root    507 :    41.113849738165740
 Root    508 :    41.390264407434460
 Root    509 :    41.390365839086660
 Root    510 :    41.685083964094000
 Root    511 :    41.685165835280910
 Root    512 :    41.694047066635820
 Root    513 :    41.694138871107540
 Root    514 :    41.757411279616680
 Root    515 :    41.901830145249880
 Root    516 :    41.901889835173870
 Root    517 :    42.129989042358960
 Root    518 :    42.130051661304920
 Root    519 :    42.200667218223170
 Root    520 :    42.623244890924580
 Root    521 :    42.817163416478320
 Root    522 :    42.817168948882750
 Root    523 :    42.971524716242220
 Root    524 :    43.332436887775800
 Root    525 :    43.332676725035140
 Root    526 :    43.677102573771270
 Root    527 :    44.154598987533490
 Root    528 :    44.284215913708370
 Root    529 :    44.298949802862180
 Root    530 :    44.367118119057130
 Root    531 :    44.367123999696730
 Root    532 :    44.635616125489410
 Root    533 :    44.635971280025430
 Root    534 :    44.650626248863800
 Root    535 :    44.779151186461420
 Root    536 :    44.779226046307990
 Root    537 :    44.906497449665600
 Root    538 :    44.906515339173150
 Root    539 :    45.334284681797050
 Root    540 :    45.334642217529610
 Root    541 :    45.476178295422380
 Root    542 :    46.192815422706890
 Root    543 :    46.259215540331980
 Root    544 :    46.259298728199180
 Root    545 :    46.852715056628400
 Root    546 :    46.852768570812960
 Root    547 :    47.217958484256560
 Root    548 :    47.218105128601050
 Root    549 :    47.530454040355390
 Root    550 :    47.540411247989080
 Root    551 :    47.766696148500160
 Root    552 :    47.766704161220340
 Root    553 :    47.972242088551410
 Root    554 :    47.972378581217380
 Root    555 :    48.014313629188930
 Root    556 :    48.111436192903150
 Root    557 :    48.201613528520890
 Root    558 :    48.201659895975410
 Root    559 :    48.285343586541160
 Root    560 :    48.885211062413340
 Root    561 :    49.228457237427290
 Root    562 :    49.228605605998500
 Root    563 :    49.714479307164860
 Root    564 :    49.936999477736220
 Root    565 :    50.032769604394460
 Root    566 :    50.032780865398120
 Root    567 :    50.067860896839120
 Root    568 :    50.089082143611340
 Root    569 :    50.089166181541640
 Root    570 :    50.215527067202780
 Root    571 :    50.215554690903100
 Root    572 :    50.493465768407010
 Root    573 :    50.889495736613890
 Root    574 :    50.923159729463160
 Root    575 :    50.923238361917840
 Root    576 :    51.419170416197560
 Root    577 :    51.743042499147120
 Root    578 :    51.743170796272210
 Root    579 :    52.256523899588980
 Root    580 :    52.256641885956300
 Root    581 :    52.274186642938630
 Root    582 :    52.342843471100860
 Root    583 :    52.458349152590860
 Root    584 :    52.458693669187990
 Root    585 :    52.790829370704660
 Root    586 :    52.790955997272800
 Root    587 :    53.113651445528000
 Root    588 :    53.439504236051140
 Root    589 :    53.439959099035010
 Root    590 :    53.507733741230220
 Root    591 :    53.634728724547530
 Root    592 :    53.963246902868800
 Root    593 :    53.963407069400060
 Root    594 :    54.204639077415290
 Root    595 :    54.204991380316700
 Root    596 :    54.329955908769460
 Root    597 :    54.330151889778110
 Root    598 :    54.590513039948730
 Root    599 :    54.590528162615570
 Root    600 :    55.192436377122570
 Root    601 :    55.192555846400600
 Root    602 :    55.369362129269370
 Root    603 :    55.520272056858540
 Root    604 :    55.520333021333900
 Root    605 :    55.665828524392500
 Root    606 :    55.667979323026840
 Root    607 :    55.668096101591970
 Root    608 :    55.756501421699500
 Root    609 :    55.756584371527370
 Root    610 :    55.887831537242900
 Root    611 :    55.985584546021840
 Root    612 :    55.985603167028050
 Root    613 :    56.009687874105720
 Root    614 :    56.027592244182960
 Root    615 :    56.027643193729810
 Root    616 :    56.652106025597010
 Root    617 :    56.652130465780010
 Root    618 :    56.802447227194850
 Root    619 :    56.802608394545660
 Root    620 :    57.518962586585200
 Root    621 :    57.603123343045870
 Root    622 :    57.603154992009540
 Root    623 :    57.637154607490140
 Root    624 :    57.678555453729740
 Root    625 :    57.966406548744340
 Root    626 :    58.190775406786860
 Root    627 :    58.208445883977590
 Root    628 :    58.341284148769620
 Root    629 :    58.341301537017270
 Root    630 :    58.430905442233840
 Root    631 :    58.556662286914800
 Root    632 :    59.030346071349170
 Root    633 :    59.108907173954410
 Root    634 :    59.343796549930420
 Root    635 :    59.343808100258850
 Root    636 :    59.447611710641210
 Root    637 :    59.523496432777720
 Root    638 :    60.184071351559430
 Root    639 :    60.184163784973840
 Root    640 :    60.349567959037290
 Root    641 :    60.349862442674020
 Root    642 :    60.761229955102730
 Root    643 :    60.909358921059200
 Root    644 :    60.909383058643080
 Root    645 :    60.939324598282430
 Root    646 :    60.965630399439810
 Root    647 :    60.965963566415860
 Root    648 :    61.371675050622550
 Root    649 :    61.371783130268580
 Root    650 :    61.384039083058190
 Root    651 :    61.384129445591870
 Root    652 :    61.494345754425740
 Root    653 :    61.494460675031160
 Root    654 :    61.656590266069450
 Root    655 :    61.656636363761950
 Root    656 :    61.994060731361430
 Root    657 :    61.994118757867060
 Root    658 :    62.164600862325290
 Root    659 :    62.241129276380970
 Root    660 :    62.241507640867280
 Root    661 :    62.771257000118980
 Root    662 :    63.036801462874700
 Root    663 :    63.036886499767020
 Root    664 :    63.132542627782990
 Root    665 :    63.157895574994820
 Root    666 :    63.157964847897180
 Root    667 :    63.315154970326330
 Root    668 :    63.340365407971100
 Root    669 :    63.340384590315370
 Root    670 :    63.344087523996430
 Root    671 :    63.486853648131250
 Root    672 :    63.486951390046620
 Root    673 :    63.600382788522770
 Root    674 :    63.695557164844080
 Root    675 :    63.719377981302630
 Root    676 :    63.719384916236360
 Root    677 :    64.014225560311100
 Root    678 :    64.014246286332120
 Root    679 :    64.346154612980800
 Root    680 :    64.346245658660020
 Root    681 :    64.585902908980270
 Root    682 :    64.651398821563890
 Root    683 :    64.904882911946100
 Root    684 :    64.905011397409600
 Root    685 :    65.287472482987450
 Root    686 :    65.287518277999500
 Root    687 :    65.288849948173250
 Root    688 :    65.388131667780270
 Root    689 :    65.768161864775660
 Root    690 :    65.818716068800870
 Root    691 :    66.380637121936250
 Root    692 :    66.542623436266570
 Root    693 :    66.542935717559840
 Root    694 :    66.551389566830760
 Root    695 :    66.552737119807460
 Root    696 :    66.576881322602460
 Root    697 :    66.576887730007950
 Root    698 :    66.584871588618670
 Root    699 :    67.204856057356420
 Root    700 :    67.228484971848600
 Root    701 :    67.228798085606630
 Root    702 :    67.976707663408260
 Root    703 :    68.241690197057470
 Root    704 :    68.242232638796270
 Root    705 :    68.250136206604590
 Root    706 :    68.727959694765130
 Root    707 :    68.728043262676720
 Root    708 :    68.746464797911330
 Root    709 :    68.746987005655310
 Root    710 :    68.764581806977350
 Root    711 :    68.764738436080650
 Root    712 :    68.829230417461360
 Root    713 :    68.829320672534580
 Root    714 :    69.385049584359920
 Root    715 :    69.518574979536060
 Root    716 :    69.518589411273750
 Root    717 :    69.559901350996580
 Root    718 :    69.902124798998060
 Root    719 :    69.902453148199950
 Root    720 :    70.364450216510890
 Root    721 :    70.364562632565420
 Root    722 :    70.786304218381700
 Root    723 :    70.931906945889080
 Root    724 :    70.931915562230690
 Root    725 :    71.015408631467050
 Root    726 :    71.070363512249320
 Root    727 :    71.322661260787610
 Root    728 :    71.322667358459370
 Root    729 :    71.432591067791450
 Root    730 :    71.561729983210070
 Root    731 :    71.778759933091280
 Root    732 :    72.013031974422470
 Root    733 :    72.013040274572430
 Root    734 :    72.220257583493140
 Root    735 :    72.266165080297610
 Root    736 :    72.266197930591350
 Root    737 :    72.299417122649740
 Root    738 :    73.189782865297190
 Root    739 :    73.189856627678310
 Root    740 :    73.307634468367380
 Root    741 :    73.317615198008550
 Root    742 :    73.532274025276650
 Root    743 :    73.532298002352090
 Root    744 :    73.533230338639070
 Root    745 :    73.921656574485520
 Root    746 :    75.198798242947960
 Root    747 :    75.199012754525550
 Root    748 :    75.363042406172980
 Root    749 :    75.483814390243980
 Root    750 :    75.664635412206830
 Root    751 :    75.664876301222510
 Root    752 :    76.057045313232440
 Root    753 :    76.057326542127910
 Root    754 :    76.107278972843080
 Root    755 :    76.107388507073720
 Root    756 :    76.209789574733360
 Root    757 :    76.210103588235270
 Root    758 :    76.842286175274540
 Root    759 :    76.842579141816830
 Root    760 :    77.869935423854230
 Root    761 :    77.870460027870920
 Root    762 :    78.060021477711080
 Root    763 :    78.124795811605210
 Root    764 :    78.124808694291940
 Root    765 :    78.135202722559340
 Root    766 :    78.291402975410900
 Root    767 :    78.291553673343980
 Root    768 :    79.018064777723230
 Root    769 :    79.074132254824930
 Root    770 :    79.074142402715440
 Root    771 :    79.233788078128060
 Root    772 :    79.774030424440260
 Root    773 :    79.774110918487640
 Root    774 :    80.473681831919780
 Root    775 :    80.677808632856920
 Root    776 :    80.987414304928170
 Root    777 :    80.987458679876870
 Root    778 :    82.242255892149690
 Root    779 :    82.242278423329440
 Root    780 :    82.245109945383940
 Root    781 :    82.253174274367150
 Root    782 :    82.447933865977160
 Root    783 :    83.055795481265350
 Root    784 :    83.151818335950670
 Root    785 :    83.151983723945260
 Root    786 :    83.210574744980530
 Root    787 :    83.265919745737580
 Root    788 :    83.266128009390300
 Root    789 :    84.638990575110340
 Root    790 :    84.639062901436530
 Root    791 :    84.785367831856830
 Root    792 :    84.785460635585660
 Root    793 :    84.842224519868250
 Root    794 :    84.842300447740130
 Root    795 :    85.030332415010280
 Root    796 :    85.030343854025970
 Root    797 :    85.302426385849070
 Root    798 :    85.302664073206870
 Root    799 :    85.499296062378530
 Root    800 :    85.499382366108010
 Root    801 :    85.665711130638330
 Root    802 :    85.665799178025220
 Root    803 :    85.710069111295670
 Root    804 :    85.710205452500860
 Root    805 :    86.466192444495820
 Root    806 :    86.466284093176340
 Root    807 :    87.599413961822580
 Root    808 :    87.633865247886150
 Root    809 :    88.020262675274110
 Root    810 :    88.036433261460930
 Root    811 :    88.036439915931480
 Root    812 :    88.065899006082520
 Root    813 :    88.067311631019360
 Root    814 :    88.161209345617110
 Root    815 :    88.161212194875020
 Root    816 :    88.171187568933110
 Root    817 :    88.247259635744750
 Root    818 :    88.360823851957820
 Root    819 :    89.312543080829730
 Root    820 :    89.662666580531650
 Root    821 :    89.662679174415520
 Root    822 :    89.716500353227690
 Root    823 :    89.746137817597840
 Root    824 :    90.018862670898190
 Root    825 :    90.516935440548100
 Root    826 :    90.517019686287170
 Root    827 :    90.552011866106410
 Root    828 :    90.552103260818700
 Root    829 :    92.112608418798060
 Root    830 :    92.304434521094170
 Root    831 :    92.304569925307040
 Root    832 :    92.316137766874960
 Root    833 :    92.381017719013220
 Root    834 :    92.381026749608400
 Root    835 :    92.469390541006760
 Root    836 :    92.602212825067160
 Root    837 :    92.602765146745170
 Root    838 :    93.211291356655660
 Root    839 :    93.211889560978150
 Root    840 :    94.033128348055470
 Root    841 :    94.040257421129850
 Root    842 :    94.040276275006220
 Root    843 :    94.200540485405160
 Root    844 :    94.823197558531870
 Root    845 :    94.823420235964160
 Root    846 :    95.498406298161680
 Root    847 :    95.498428695455870
 Root    848 :    95.506700305735150
 Root    849 :    95.595666873088320
 Root    850 :    96.787790502723400
 Root    851 :    96.788449944033450
 Root    852 :    97.111267866871360
 Root    853 :    97.382418607007480
 Root    854 :    97.507048131030230
 Root    855 :    97.507713661431990
 Root    856 :    99.026786381954950
 Root    857 :    99.711262501177860
 Root    858 :    99.711267700720070
 Root    859 :    99.745668847050000
 Root    860 :    99.791285351686110
 Root    861 :   102.110369389903400
 Root    862 :   102.110987868312900
 Root    863 :   106.394663917365300
 Root    864 :   106.395322290454700
[...]
     13   0.297688D-04 -0.147663D-04 -0.320414D-04  0.107751D-04  0.975717D-05
     14   0.138769D-01  0.609930D-02  0.149566D+00  0.509827D-01  0.284877D+00
     15   0.000000D+00  0.000000D+00  0.000000D+00  0.000000D+00  0.000000D+00
     16   0.000000D+00  0.000000D+00  0.000000D+00  0.000000D+00  0.000000D+00
               796           797           798           799           800 
      1  -0.114632D+03 -0.114622D+03 -0.114622D+03 -0.114615D+03 -0.114615D+03
      2   0.495222D-01 -0.307212D-01  0.137816D+00  0.000000D+00  0.000000D+00
      3   0.406102D-01  0.137804D+00  0.307196D-01  0.000000D+00  0.000000D+00
      4   0.000000D+00  0.000000D+00  0.000000D+00  0.197744D-05  0.107874D-05
      5  -0.129537D+00  0.884536D-01 -0.396820D+00  0.000000D+00  0.000000D+00
      6  -0.106223D+00 -0.396787D+00 -0.884493D-01  0.000000D+00  0.000000D+00
      7   0.000000D+00  0.000000D+00  0.000000D+00 -0.660264D-05 -0.364665D-05
      8   0.000000D+00  0.000000D+00  0.000000D+00 -0.249232D-03  0.424547D-02
      9   0.000000D+00  0.000000D+00  0.000000D+00  0.422005D-02  0.250354D-03
     10  -0.130096D-03 -0.458433D-04 -0.336808D-04  0.000000D+00  0.000000D+00
     11  -0.285005D+00 -0.241402D+00  0.379319D+00  0.000000D+00  0.000000D+00
     12   0.285024D+00  0.241550D+00 -0.379592D+00  0.000000D+00  0.000000D+00
     13   0.272948D-04 -0.628628D-04  0.664147D-04  0.000000D+00  0.000000D+00
     14   0.478739D+00 -0.379505D+00 -0.241430D+00  0.000000D+00  0.000000D+00
     15   0.000000D+00  0.000000D+00  0.000000D+00  0.254687D+00  0.106205D-01
     16   0.000000D+00  0.000000D+00  0.000000D+00  0.106165D-01 -0.254691D+00
               801           802           803           804           805 
      1  -0.114609D+03 -0.114609D+03 -0.114607D+03 -0.114607D+03 -0.114579D+03
      2   0.000000D+00  0.000000D+00  0.000000D+00  0.000000D+00  0.000000D+00
      3   0.000000D+00  0.000000D+00  0.000000D+00  0.000000D+00  0.000000D+00
      4   0.000000D+00  0.000000D+00 -0.836444D-05  0.353181D-05  0.845102D-05
      5   0.000000D+00  0.000000D+00  0.000000D+00  0.000000D+00  0.000000D+00
      6   0.000000D+00  0.000000D+00  0.000000D+00  0.000000D+00  0.000000D+00
      7   0.000000D+00 -0.200621D-05  0.261496D-04 -0.110995D-04 -0.257342D-04
      8  -0.948961D-01 -0.729065D-01 -0.711872D-02  0.958559D-01  0.275946D+00
      9  -0.730392D-01  0.954321D-01 -0.952337D-01 -0.678225D-02 -0.184556D-01
     10   0.000000D+00  0.000000D+00  0.000000D+00  0.000000D+00  0.000000D+00
     11   0.000000D+00  0.000000D+00  0.000000D+00  0.000000D+00  0.000000D+00
     12   0.000000D+00  0.000000D+00  0.000000D+00  0.000000D+00  0.000000D+00
     13   0.000000D+00  0.000000D+00  0.000000D+00  0.000000D+00  0.000000D+00
     14   0.000000D+00  0.000000D+00  0.000000D+00  0.000000D+00  0.000000D+00
     15   0.123324D+00 -0.161894D+00 -0.133198D+00 -0.976383D-02  0.245651D-01
     16  -0.162682D+00 -0.123506D+00  0.918871D-02 -0.132119D+00  0.374245D+00
               806           807           808           809           810 
      1  -0.114579D+03 -0.114537D+03 -0.114536D+03 -0.114522D+03 -0.114521D+03
      2   0.000000D+00  0.000000D+00 -0.194435D-04  0.107382D-03 -0.393800D-01
      3   0.000000D+00  0.000000D+00 -0.399682D-04 -0.230646D-03  0.325882D-01
      4  -0.130624D-04 -0.928691D-01  0.000000D+00  0.000000D+00  0.000000D+00
      5   0.000000D+00  0.000000D+00  0.535713D-04 -0.214550D-03  0.936986D-01
      6   0.000000D+00  0.000000D+00  0.115003D-03  0.668330D-03 -0.774617D-01
      7   0.401641D-04  0.251448D+00  0.000000D+00  0.000000D+00  0.000000D+00
      8  -0.184486D-01  0.000000D+00  0.000000D+00  0.000000D+00  0.000000D+00
      9  -0.275916D+00  0.139672D-04  0.000000D+00  0.000000D+00  0.000000D+00
     10   0.000000D+00  0.000000D+00 -0.514629D+00  0.242726D+00  0.921870D-03
     11   0.000000D+00  0.000000D+00 -0.787596D-04 -0.494676D-03 -0.136752D+00
     12   0.000000D+00  0.000000D+00 -0.375178D-04 -0.161239D-02  0.136247D+00
     13   0.000000D+00  0.000000D+00 -0.887173D-03 -0.650319D-03  0.231855D-02
     14   0.000000D+00  0.000000D+00 -0.637306D-04 -0.376927D-03 -0.486815D-01
     15   0.374197D+00  0.788820D-05  0.000000D+00  0.000000D+00  0.000000D+00
     16  -0.245435D-01  0.122133D-04  0.000000D+00  0.000000D+00  0.000000D+00
               811           812           813           814           815 
      1  -0.114521D+03 -0.114520D+03 -0.114520D+03 -0.114517D+03 -0.114517D+03
      2  -0.325828D-01  0.897865D-04  0.000000D+00 -0.745516D-01  0.364455D-01
      3  -0.393886D-01 -0.170033D-03  0.000000D+00 -0.364383D-01 -0.745528D-01
      4   0.000000D+00  0.000000D+00 -0.214890D-04  0.000000D+00  0.000000D+00
      5   0.774538D-01 -0.145560D-03  0.000000D+00  0.230827D+00 -0.112808D+00
      6   0.937161D-01  0.398837D-03  0.000000D+00  0.112781D+00  0.230825D+00
      7   0.000000D+00  0.000000D+00  0.628279D-04  0.000000D+00  0.000000D+00
      8   0.000000D+00  0.000000D+00 -0.276192D-05  0.000000D+00  0.000000D+00
      9   0.000000D+00  0.000000D+00  0.556928D-05  0.000000D+00  0.000000D+00
     10   0.883169D-03 -0.204159D-03  0.000000D+00  0.159416D-01  0.196994D-01
     11  -0.488819D-01 -0.812812D-01  0.000000D+00  0.172849D+00 -0.177577D+00
     12   0.487318D-01 -0.830477D-01  0.000000D+00 -0.172947D+00  0.177712D+00
     13  -0.214145D-03  0.482594D+00  0.000000D+00 -0.419745D-03  0.181060D-03
     14   0.136430D+00  0.261962D-03  0.000000D+00 -0.177650D+00 -0.172846D+00
     15   0.000000D+00  0.000000D+00  0.355863D-04  0.000000D+00  0.000000D+00
     16   0.000000D+00  0.000000D+00  0.382535D-04  0.000000D+00  0.000000D+00
               816           817           818           819           820 
      1  -0.114516D+03 -0.114514D+03 -0.114509D+03 -0.114475D+03 -0.114462D+03
      2  -0.495320D-03  0.181504D-03  0.129253D-04 -0.826455D-05  0.000000D+00
      3  -0.202663D-02 -0.158514D-04  0.158367D-05  0.944018D-05  0.000000D+00
      4   0.000000D+00  0.000000D+00  0.000000D+00  0.000000D+00 -0.929806D-03
      5   0.151417D-02 -0.571330D-03 -0.478138D-04  0.265388D-04  0.000000D+00
      6   0.626119D-02  0.519324D-04  0.681128D-05 -0.314589D-04  0.000000D+00
      7   0.000000D+00  0.000000D+00  0.000000D+00  0.000000D+00  0.270544D-02
      8   0.000000D+00  0.000000D+00  0.000000D+00  0.000000D+00 -0.636921D-01
      9   0.000000D+00  0.000000D+00  0.000000D+00  0.000000D+00 -0.302786D+00
     10  -0.103637D+01  0.123665D-02  0.444023D-03 -0.112942D-03  0.000000D+00
     11  -0.101534D-02 -0.543008D-01 -0.636869D+00 -0.181456D+00  0.000000D+00
     12   0.915469D-03 -0.534062D-01 -0.636687D+00 -0.181617D+00  0.000000D+00
     13   0.214898D-02  0.900057D-01 -0.257203D+00 -0.353761D-01  0.000000D+00
     14  -0.597459D-02  0.161975D-03 -0.963072D-04 -0.253440D-04  0.000000D+00
     15   0.000000D+00  0.000000D+00  0.000000D+00  0.000000D+00  0.366785D+00
     16   0.000000D+00  0.000000D+00  0.000000D+00  0.000000D+00 -0.771467D-01
               821           822           823           824           825 
      1  -0.114462D+03 -0.114460D+03 -0.114459D+03 -0.114449D+03 -0.114430D+03
      2   0.000000D+00  0.000000D+00  0.000000D+00  0.000000D+00  0.000000D+00
      3   0.000000D+00  0.000000D+00  0.000000D+00  0.000000D+00  0.000000D+00
      4   0.246697D-04 -0.145457D+00  0.155983D-03  0.148217D+00  0.455761D-05
      5   0.000000D+00  0.000000D+00  0.000000D+00  0.000000D+00  0.000000D+00
      6   0.000000D+00  0.000000D+00  0.000000D+00  0.000000D+00  0.000000D+00
      7  -0.706481D-04  0.425320D+00 -0.466092D-03 -0.383292D+00 -0.100712D-04
      8   0.302768D+00  0.460964D-03  0.983967D-03 -0.645166D-05  0.252114D+00
      9  -0.636897D-01  0.190541D-02 -0.206182D-03 -0.173461D-04  0.151790D-01
     10   0.000000D+00  0.000000D+00  0.000000D+00  0.000000D+00  0.000000D+00
     11   0.000000D+00  0.000000D+00  0.000000D+00  0.000000D+00  0.000000D+00
     12   0.000000D+00  0.000000D+00  0.000000D+00  0.000000D+00  0.000000D+00
     13   0.000000D+00  0.000000D+00  0.000000D+00  0.000000D+00  0.000000D+00
     14   0.000000D+00  0.000000D+00  0.000000D+00  0.000000D+00  0.000000D+00
     15   0.771481D-01 -0.228660D-02  0.238118D-03  0.237261D-04 -0.128218D-02
     16   0.366771D+00  0.531744D-03  0.114055D-02 -0.346760D-04  0.998054D-02
               826           827           828           829           830 
      1  -0.114430D+03 -0.114429D+03 -0.114429D+03 -0.114372D+03 -0.114365D+03
      2   0.000000D+00  0.630261D-01  0.365035D-02  0.000000D+00 -0.593186D-03
      3   0.000000D+00  0.364883D-02 -0.630196D-01  0.000000D+00 -0.312971D-01
      4   0.106866D-04  0.000000D+00  0.000000D+00 -0.812474D-04  0.000000D+00
      5   0.000000D+00 -0.137233D+00 -0.792687D-02  0.000000D+00  0.146916D-02
      6   0.000000D+00 -0.792169D-02  0.137217D+00  0.000000D+00  0.747159D-01
      7  -0.358622D-04  0.000000D+00  0.000000D+00  0.262662D-03  0.000000D+00
      8   0.151795D-01  0.000000D+00  0.000000D+00  0.239493D-03  0.000000D+00
      9  -0.252129D+00  0.000000D+00  0.000000D+00 -0.120732D-03  0.000000D+00
     10   0.000000D+00  0.801111D-04  0.000000D+00  0.000000D+00  0.688772D-05
     11   0.000000D+00 -0.650028D+00 -0.278690D+00  0.000000D+00 -0.202420D-01
     12   0.000000D+00  0.650066D+00  0.278769D+00  0.000000D+00  0.201964D-01
     13   0.000000D+00 -0.712322D-04 -0.696226D-04  0.000000D+00  0.187791D-04
     14   0.000000D+00  0.278706D+00 -0.650095D+00  0.000000D+00 -0.565777D-01
     15   0.997441D-02  0.000000D+00  0.000000D+00  0.221031D-03  0.000000D+00
     16   0.127642D-02  0.000000D+00  0.000000D+00  0.334365D-03  0.000000D+00
               831           832           833           834           835 
      1  -0.114365D+03 -0.114364D+03 -0.114362D+03 -0.114362D+03 -0.114358D+03
      2  -0.313322D-01  0.000000D+00  0.000000D+00  0.000000D+00  0.000000D+00
      3   0.599207D-03  0.000000D+00  0.000000D+00  0.000000D+00  0.000000D+00
      4   0.000000D+00 -0.148791D-03  0.173198D-03 -0.232048D-03 -0.978556D-01
      5   0.748260D-01  0.000000D+00  0.000000D+00  0.000000D+00  0.000000D+00
      6  -0.148925D-02  0.000000D+00  0.000000D+00  0.000000D+00  0.000000D+00
      7   0.000000D+00  0.482230D-03 -0.529604D-03  0.709331D-03  0.301783D+00
      8   0.000000D+00  0.148626D-02  0.303978D+00  0.237658D-02  0.493004D-03
      9   0.000000D+00 -0.883329D-03  0.238419D-02 -0.304029D+00  0.570659D-03
     10   0.117576D-03  0.000000D+00  0.000000D+00  0.000000D+00  0.000000D+00
     11   0.566739D-01  0.000000D+00  0.000000D+00  0.000000D+00  0.000000D+00
     12  -0.566242D-01  0.000000D+00  0.000000D+00  0.000000D+00  0.000000D+00
     13  -0.395412D-04  0.000000D+00  0.000000D+00  0.000000D+00  0.000000D+00
     14  -0.202324D-01  0.000000D+00  0.000000D+00  0.000000D+00  0.000000D+00
     15   0.000000D+00  0.153204D-02 -0.338822D-02  0.509093D+00 -0.107111D-02
     16   0.000000D+00  0.241895D-02  0.509056D+00  0.338065D-02  0.810649D-03
               836           837           838           839           840 
      1  -0.114354D+03 -0.114354D+03 -0.114331D+03 -0.114331D+03 -0.114301D+03
      2   0.395792D-02  0.631093D-01  0.000000D+00  0.000000D+00  0.143127D-02
      3   0.631319D-01 -0.395362D-02  0.000000D+00  0.000000D+00  0.196167D-02
      4   0.000000D+00  0.000000D+00  0.000000D+00 -0.239202D-04  0.000000D+00
      5  -0.125138D-01 -0.199163D+00  0.000000D+00  0.000000D+00 -0.464312D-02
      6  -0.199219D+00  0.125032D-01  0.000000D+00  0.000000D+00 -0.636175D-02
      7   0.000000D+00  0.000000D+00  0.000000D+00  0.653025D-04  0.000000D+00
      8   0.000000D+00  0.000000D+00 -0.358242D+00  0.232704D-01  0.000000D+00
      9   0.000000D+00  0.000000D+00  0.232726D-01  0.358217D+00  0.000000D+00
     10  -0.164107D-04 -0.694085D-04  0.000000D+00  0.000000D+00 -0.437199D-01
     11   0.241566D-01 -0.801853D-01  0.000000D+00  0.000000D+00  0.235203D-02
     12  -0.240770D-01  0.800572D-01  0.000000D+00  0.000000D+00 -0.377391D-02
     13  -0.696093D-04  0.825854D-04  0.000000D+00  0.000000D+00  0.195469D-02
     14   0.801646D-01  0.241166D-01  0.000000D+00  0.000000D+00 -0.106857D-01
     15   0.000000D+00  0.000000D+00 -0.354435D-01 -0.547768D+00  0.000000D+00
     16   0.000000D+00  0.000000D+00 -0.547803D+00  0.354338D-01  0.000000D+00
               841           842           843           844           845 
      1  -0.114301D+03 -0.114301D+03 -0.114295D+03 -0.114272D+03 -0.114272D+03
      2   0.488737D-01  0.339249D-01 -0.113996D-03  0.381821D-02 -0.198151D-01
      3  -0.339498D-01  0.488338D-01  0.738945D-04 -0.198190D-01 -0.381406D-02
      4   0.000000D+00  0.000000D+00  0.000000D+00  0.000000D+00  0.000000D+00
      5  -0.158487D+00 -0.110004D+00  0.369630D-03 -0.153770D-01  0.794066D-01
      6   0.110081D+00 -0.158357D+00 -0.243118D-03  0.794158D-01  0.153614D-01
      7   0.000000D+00  0.000000D+00  0.000000D+00  0.000000D+00  0.000000D+00
      8   0.000000D+00  0.000000D+00  0.000000D+00  0.000000D+00  0.000000D+00
      9   0.000000D+00  0.000000D+00  0.000000D+00  0.000000D+00  0.000000D+00
     10   0.420809D-04  0.181121D-02  0.106340D-02 -0.742891D-05 -0.182421D-04
     11   0.262401D+00  0.697158D-01 -0.808471D+00  0.386251D-01 -0.645528D-01
     12  -0.266178D+00 -0.699262D-01 -0.807357D+00 -0.387414D-01  0.645531D-01
     13  -0.283714D-03 -0.885525D-04 -0.113447D+00  0.483518D-04  0.114180D-04
     14   0.699835D-01 -0.264046D+00 -0.371516D-04  0.646143D-01  0.387138D-01
     15   0.000000D+00  0.000000D+00  0.000000D+00  0.000000D+00  0.000000D+00
     16   0.000000D+00  0.000000D+00  0.000000D+00  0.000000D+00  0.000000D+00
               846           847           848           849           850 
      1  -0.114247D+03 -0.114247D+03 -0.114247D+03 -0.114244D+03 -0.114200D+03
      2   0.131025D-02 -0.387967D-01 -0.226834D-03  0.134439D-03  0.000000D+00
      3  -0.387710D-01 -0.130349D-02 -0.120033D-02 -0.362272D-04  0.000000D+00
      4   0.000000D+00  0.000000D+00  0.000000D+00  0.000000D+00 -0.162419D-05
      5  -0.347442D-02  0.105284D+00  0.621870D-03 -0.361413D-03  0.000000D+00
      6   0.105208D+00  0.345745D-02  0.325751D-02  0.100955D-03  0.000000D+00
      7   0.000000D+00  0.000000D+00  0.000000D+00  0.000000D+00  0.417096D-05
      8   0.000000D+00  0.000000D+00  0.000000D+00  0.000000D+00 -0.471895D+00
      9   0.000000D+00  0.000000D+00  0.000000D+00  0.000000D+00 -0.642067D-01
     10  -0.129506D-02 -0.176628D-03  0.405561D-01  0.475608D-03  0.000000D+00
     11   0.145522D+00 -0.357628D+00  0.497333D-02  0.749592D+00  0.000000D+00
     12  -0.147209D+00  0.362850D+00  0.801261D-03  0.746889D+00  0.000000D+00
     13   0.244263D-03 -0.845686D-03  0.234063D-03 -0.131179D+00  0.000000D+00
     14   0.360039D+00  0.146340D+00  0.121046D-01 -0.115458D-03  0.000000D+00
     15   0.000000D+00  0.000000D+00  0.000000D+00  0.000000D+00  0.714590D-01
     16   0.000000D+00  0.000000D+00  0.000000D+00  0.000000D+00 -0.524253D+00
               851           852           853           854           855 
      1  -0.114200D+03 -0.114188D+03 -0.114178D+03 -0.114173D+03 -0.114173D+03
      2   0.000000D+00 -0.204286D-05  0.000000D+00  0.955448D-02 -0.841961D-01
      3   0.000000D+00  0.249174D-05  0.000000D+00 -0.841941D-01 -0.955283D-02
      4   0.128261D-04  0.000000D+00  0.175247D+00  0.000000D+00  0.000000D+00
      5   0.000000D+00  0.479506D-05  0.000000D+00 -0.296033D-01  0.261100D+00
      6   0.000000D+00 -0.868689D-05  0.000000D+00  0.261090D+00  0.295983D-01
      7  -0.425086D-04  0.000000D+00 -0.512477D+00  0.000000D+00  0.000000D+00
      8  -0.642009D-01  0.000000D+00 -0.217928D-04  0.000000D+00  0.000000D+00
      9   0.471896D+00  0.000000D+00 -0.169051D-04  0.000000D+00  0.000000D+00
     10   0.000000D+00  0.365397D-01  0.000000D+00 -0.285783D-04  0.548611D-04
     11   0.000000D+00  0.508065D-04  0.000000D+00  0.958204D-01 -0.193540D+00
     12   0.000000D+00  0.947269D-04  0.000000D+00 -0.958805D-01  0.193690D+00
     13   0.000000D+00 -0.314156D-04  0.000000D+00  0.138233D-04 -0.307979D-04
     14   0.000000D+00 -0.171143D-04  0.000000D+00  0.193620D+00  0.958491D-01
     15  -0.524251D+00  0.000000D+00  0.397977D-04  0.000000D+00  0.000000D+00
     16  -0.714598D-01  0.000000D+00 -0.552163D-04  0.000000D+00  0.000000D+00
               856           857           858           859           860 
      1  -0.114118D+03 -0.114092D+03 -0.114092D+03 -0.114091D+03 -0.114089D+03
      2   0.292305D-05  0.000000D+00  0.000000D+00  0.000000D+00  0.000000D+00
      3  -0.115252D-04  0.000000D+00  0.000000D+00  0.000000D+00  0.000000D+00
      4   0.000000D+00  0.616034D-03  0.318884D-03  0.630505D-01 -0.683147D-03
      5  -0.139099D-04  0.000000D+00  0.000000D+00  0.000000D+00  0.000000D+00
      6   0.334786D-04  0.000000D+00  0.000000D+00  0.000000D+00  0.000000D+00
      7   0.000000D+00 -0.175354D-02 -0.910919D-03 -0.179617D+00  0.247850D-02
      8   0.000000D+00  0.113280D+00 -0.671794D-01 -0.759790D-03 -0.394087D-03
      9   0.000000D+00  0.671720D-01  0.113283D+00 -0.118730D-02  0.251201D-03
     10  -0.583792D-04  0.000000D+00  0.000000D+00  0.000000D+00  0.000000D+00
     11  -0.623481D-01  0.000000D+00  0.000000D+00  0.000000D+00  0.000000D+00
     12  -0.622883D-01  0.000000D+00  0.000000D+00  0.000000D+00  0.000000D+00
     13   0.146680D+00  0.000000D+00  0.000000D+00  0.000000D+00  0.000000D+00
     14  -0.365940D-04  0.000000D+00  0.000000D+00  0.000000D+00  0.000000D+00
     15   0.000000D+00 -0.620006D-01 -0.105242D+00  0.110548D-02 -0.248192D-03
     16   0.000000D+00  0.105229D+00 -0.620019D-01 -0.704805D-03 -0.359518D-03
               861           862           863           864 
      1  -0.114004D+03 -0.114004D+03 -0.113847D+03 -0.113847D+03
      2   0.403621D-02  0.480367D-01  0.000000D+00  0.000000D+00
      3   0.480347D-01 -0.405234D-02  0.000000D+00  0.000000D+00
      4   0.000000D+00  0.000000D+00  0.177045D-05 -0.475075D-05
      5  -0.113140D-01 -0.134444D+00  0.000000D+00  0.000000D+00
      6  -0.134435D+00  0.113650D-01  0.000000D+00  0.000000D+00
      7   0.000000D+00  0.000000D+00 -0.314205D-05  0.112110D-04
      8   0.000000D+00  0.000000D+00  0.470654D+00  0.626969D-01
      9   0.000000D+00  0.000000D+00  0.626922D-01 -0.470652D+00
     10  -0.234200D-04 -0.128476D-04  0.000000D+00  0.000000D+00
     11  -0.292554D-01  0.112492D+00  0.000000D+00  0.000000D+00
     12   0.292489D-01 -0.112388D+00  0.000000D+00  0.000000D+00
     13   0.820739D-05 -0.306922D-04  0.000000D+00  0.000000D+00
     14  -0.112509D+00 -0.294108D-01  0.000000D+00  0.000000D+00
     15   0.000000D+00  0.000000D+00 -0.601116D-01  0.455504D+00
     16   0.000000D+00  0.000000D+00  0.455523D+00  0.600970D-01
 Unable to Open any file for archive entry.
 1\1\GINC-HEL11\SP\RPW91PW91 TD-FC\Gen\C3H6\SABYASACHI\21-Mar-2022\0\\#
 P TD(Nstates=10000) pw91pw91/Gen SCF(maxcycles=100) Int(Grid=ultrafine
 )\\xGDB7_00001_tier4.com\\0,1\C,0,0.516845,0.69483,0.\C,0,-0.860166,0.
 100195,0.\C,0,0.343308,-0.795021,0.\H,0,0.866514,1.164858,0.909176\H,0
 ,0.866513,1.164859,-0.909176\H,0,-1.442047,0.167964,-0.909177\H,0,-1.4
 42048,0.167965,0.909176\H,0,0.575574,-1.332837,-0.909179\H,0,0.575574,
 -1.332837,0.909179\\Version=EM64L-G16RevC.01\State=1-A'\HF=-117.756684
 \RMSD=4.674e-09\PG=CS [SG(C3),X(H6)]\\@
 The archive entry for this job was punched.


 LAWS OF PROGRAMMING DEFINITION:  A WORKING PROGRAM
                                  IS ONE THAT HAS
                                  ONLY UNOBSERVED
                                  BUGS.
 Job cpu time:       0 days  0 hours 10 minutes 27.1 seconds.
 Elapsed time:       0 days  0 hours  1 minutes 18.7 seconds.
 File lengths (MBytes):  RWF=    377 Int=      0 D2E=      0 Chk=    240 Scr=      1
 Normal termination of Gaussian 16 at Mon Mar 21 20:20:43 2022.
