 Entering Gaussian System, Link 0=g16
 Input=000002.com
 Output=000002.log
 Initial command:
 /home/sabyasachi/g16/l1.exe "/scratch/sabyasachi/PBS_7976499.helios/Gau-147138.inp" -scrdir="/scratch/sabyasachi/PBS_7976499.helios/"
 Entering Link 1 = /home/sabyasachi/g16/l1.exe PID=    147139.
  
 Copyright (c) 1988-2019, Gaussian, Inc.  All Rights Reserved.
  
 This is part of the Gaussian(R) 16 program.  It is based on
 the Gaussian(R) 09 system (copyright 2009, Gaussian, Inc.),
 the Gaussian(R) 03 system (copyright 2003, Gaussian, Inc.),
 the Gaussian(R) 98 system (copyright 1998, Gaussian, Inc.),
 the Gaussian(R) 94 system (copyright 1995, Gaussian, Inc.),
 the Gaussian 92(TM) system (copyright 1992, Gaussian, Inc.),
 the Gaussian 90(TM) system (copyright 1990, Gaussian, Inc.),
 the Gaussian 88(TM) system (copyright 1988, Gaussian, Inc.),
 the Gaussian 86(TM) system (copyright 1986, Carnegie Mellon
 University), and the Gaussian 82(TM) system (copyright 1983,
 Carnegie Mellon University). Gaussian is a federally registered
 trademark of Gaussian, Inc.
  
 This software contains proprietary and confidential information,
 including trade secrets, belonging to Gaussian, Inc.
  
 This software is provided under written license and may be
 used, copied, transmitted, or stored only in accord with that
 written license.
  
 The following legend is applicable only to US Government
 contracts under FAR:
  
                    RESTRICTED RIGHTS LEGEND
  
 Use, reproduction and disclosure by the US Government is
 subject to restrictions as set forth in subparagraphs (a)
 and (c) of the Commercial Computer Software - Restricted
 Rights clause in FAR 52.227-19.
  
 Gaussian, Inc.
 340 Quinnipiac St., Bldg. 40, Wallingford CT 06492
  
  
 ---------------------------------------------------------------
 Warning -- This program may not be used in any manner that
 competes with the business of Gaussian, Inc. or will provide
 assistance to any competitor of Gaussian, Inc.  The licensee
 of this program is prohibited from giving any competitor of
 Gaussian, Inc. access to this program.  By using this program,
 the user acknowledges that Gaussian, Inc. is engaged in the
 business of creating and licensing software in the field of
 computational chemistry and represents and warrants to the
 licensee that it is not a competitor of Gaussian, Inc. and that
 it will not use this program in any manner prohibited above.
 ---------------------------------------------------------------
  

 Cite this work as:
 Gaussian 16, Revision C.01,
 M. J. Frisch, G. W. Trucks, H. B. Schlegel, G. E. Scuseria, 
 M. A. Robb, J. R. Cheeseman, G. Scalmani, V. Barone, 
 G. A. Petersson, H. Nakatsuji, X. Li, M. Caricato, A. V. Marenich, 
 J. Bloino, B. G. Janesko, R. Gomperts, B. Mennucci, H. P. Hratchian, 
 J. V. Ortiz, A. F. Izmaylov, J. L. Sonnenberg, D. Williams-Young, 
 F. Ding, F. Lipparini, F. Egidi, J. Goings, B. Peng, A. Petrone, 
 T. Henderson, D. Ranasinghe, V. G. Zakrzewski, J. Gao, N. Rega, 
 G. Zheng, W. Liang, M. Hada, M. Ehara, K. Toyota, R. Fukuda, 
 J. Hasegawa, M. Ishida, T. Nakajima, Y. Honda, O. Kitao, H. Nakai, 
 T. Vreven, K. Throssell, J. A. Montgomery, Jr., J. E. Peralta, 
 F. Ogliaro, M. J. Bearpark, J. J. Heyd, E. N. Brothers, K. N. Kudin, 
 V. N. Staroverov, T. A. Keith, R. Kobayashi, J. Normand, 
 K. Raghavachari, A. P. Rendell, J. C. Burant, S. S. Iyengar, 
 J. Tomasi, M. Cossi, J. M. Millam, M. Klene, C. Adamo, R. Cammi, 
 J. W. Ochterski, R. L. Martin, K. Morokuma, O. Farkas, 
 J. B. Foresman, and D. J. Fox, Gaussian, Inc., Wallingford CT, 2019.
 
 ******************************************
 Gaussian 16:  EM64L-G16RevC.01  3-Jul-2019
                21-Mar-2022 
 ******************************************
 %mem=64gb
 %nproc=8
 Will use up to    8 processors via shared memory.
 ----------------------------------------------------------------------
 #P TD(Nstates=10000) pw91pw91/Gen SCF(maxcycles=100) Int(Grid=ultrafin
 e)
 ----------------------------------------------------------------------
 1/38=1,172=1/1;
 2/12=2,17=6,18=5,40=1/2;
 3/5=7,11=9,25=1,30=1,74=608,75=-5/1,2,3,8;
 4//1;
 5/5=2,7=100,38=5/2;
 8/6=1,10=1,108=10000/1;
 9/41=10000,42=1,70=2/14;
 6/7=2,8=2,9=2,10=2/1;
 99/5=1,9=1/99;
 Leave Link    1 at Mon Mar 21 20:10:56 2022, MaxMem=  8589934592 cpu:               0.4 elap:               0.1
 (Enter /home/sabyasachi/g16/l101.exe)
 ---------------------
 xGDB7_00001_tier4.com
 ---------------------
 Symbolic Z-matrix:
 Charge =  0 Multiplicity = 1
 7                     0.        0.        0.11046 
 1                     0.15411   0.92909  -0.25776 
 1                     0.72756  -0.59801  -0.25776 
 1                    -0.88169  -0.33108  -0.25773 
 
 ITRead=  0  0  0  0
 MicOpt= -1 -1 -1 -1
 NAtoms=      4 NQM=        4 NQMF=       0 NMMI=      0 NMMIF=      0
                NMic=       0 NMicF=      0.
                    Isotopes and Nuclear Properties:
 (Nuclear quadrupole moments (NQMom) in fm**2, nuclear magnetic moments (NMagM)
  in nuclear magnetons)

  Atom         1           2           3           4
 IAtWgt=          14           1           1           1
 AtmWgt=  14.0030740   1.0078250   1.0078250   1.0078250
 NucSpn=           2           1           1           1
 AtZEff=  -0.0000000  -0.0000000  -0.0000000  -0.0000000
 NQMom=    2.0440000   0.0000000   0.0000000   0.0000000
 NMagM=    0.4037610   2.7928460   2.7928460   2.7928460
 AtZNuc=   7.0000000   1.0000000   1.0000000   1.0000000
 Leave Link  101 at Mon Mar 21 20:10:57 2022, MaxMem=  8589934592 cpu:               0.6 elap:               0.1
 (Enter /home/sabyasachi/g16/l202.exe)
                          Input orientation:                          
 ---------------------------------------------------------------------
 Center     Atomic      Atomic             Coordinates (Angstroms)
 Number     Number       Type             X           Y           Z
 ---------------------------------------------------------------------
      1          7           0        0.000002    0.000000    0.110463
      2          1           0        0.154111    0.929092   -0.257758
      3          1           0        0.727563   -0.598011   -0.257757
      4          1           0       -0.881687   -0.331078   -0.257728
 ---------------------------------------------------------------------
                    Distance matrix (angstroms):
                    1          2          3          4
     1  N    0.000000
     2  H    1.011211   0.000000
     3  H    1.011211   1.631224   0.000000
     4  H    1.011214   1.631228   1.631238   0.000000
 Stoichiometry    H3N
 Framework group  C1[X(H3N)]
 Deg. of freedom     6
 Full point group                 C1      NOp   1
 Largest Abelian subgroup         C1      NOp   1
 Largest concise Abelian subgroup C1      NOp   1
                         Standard orientation:                         
 ---------------------------------------------------------------------
 Center     Atomic      Atomic             Coordinates (Angstroms)
 Number     Number       Type             X           Y           Z
 ---------------------------------------------------------------------
      1          7           0       -0.000002   -0.000000   -0.110463
      2          1           0       -0.147185    0.930214    0.257758
      3          1           0       -0.731998   -0.592574    0.257757
      4          1           0        0.879196   -0.337638    0.257728
 ---------------------------------------------------------------------
 Rotational constants (GHZ):         301.1827395         301.1776119         188.4523565
 Leave Link  202 at Mon Mar 21 20:10:57 2022, MaxMem=  8589934592 cpu:               0.1 elap:               0.0
 (Enter /home/sabyasachi/g16/l301.exe)
 General basis read from cards:  (5D, 7F)
 Centers:       2      3      4
 S 3 1.00
     Exponent=  1.3010701000D+01 Coefficients=  1.9682158000D-02
     Exponent=  1.9622572000D+00 Coefficients=  1.3796524000D-01
     Exponent=  4.4453796000D-01 Coefficients=  4.7831935000D-01
 S 1 1.00
     Exponent=  1.2194962000D-01 Coefficients=  1.0000000000D+00
 P 1 1.00
     Exponent=  8.0000000000D-01 Coefficients=  1.0000000000D+00
 P 1 1.00
     Exponent=  1.1704099050D-01 Coefficients=  1.0000000000D+00
 ****
 Centers:       1
 S 5 1.00
     Exponent=  1.7128415853D+03 Coefficients= -5.3934125305D-03
     Exponent=  2.5764812677D+02 Coefficients= -4.0221581118D-02
     Exponent=  5.8458245853D+01 Coefficients= -1.7931144990D-01
     Exponent=  1.6198367905D+01 Coefficients= -4.6376317823D-01
     Exponent=  5.0052600809D+00 Coefficients= -4.4171422662D-01
 S 1 1.00
     Exponent=  5.8731856571D-01 Coefficients=  1.0000000000D+00
 S 1 1.00
     Exponent=  1.8764592253D-01 Coefficients=  1.0000000000D+00
 S 1 1.00
     Exponent=  9.6171241529D-02 Coefficients=  1.0000000000D+00
 P 3 1.00
     Exponent=  1.3571470233D+01 Coefficients= -4.0072398852D-02
     Exponent=  2.9257372874D+00 Coefficients= -2.1807045028D-01
     Exponent=  7.9927750754D-01 Coefficients= -5.1294466049D-01
 P 1 1.00
     Exponent=  2.1954348034D-01 Coefficients=  1.0000000000D+00
 D 1 1.00
     Exponent=  1.0000000000D+00 Coefficients=  1.0000000000D+00
 D 1 1.00
     Exponent=  1.6697708112D-01 Coefficients=  1.0000000000D+00
 ****
 Ernie: Thresh=  0.10000D-02 Tol=  0.10000D-05 Strict=F.
 There are    46 symmetry adapted cartesian basis functions of A   symmetry.
 There are    44 symmetry adapted basis functions of A   symmetry.
    44 basis functions,    62 primitive gaussians,    46 cartesian basis functions
     5 alpha electrons        5 beta electrons
       nuclear repulsion energy        11.9627184057 Hartrees.
 IExCor=  608 DFT=T Ex=PW91 Corr=PW91 ExCW=0 ScaHFX=  0.000000
 ScaDFX=  1.000000  1.000000  1.000000  1.000000 ScalE2=  1.000000  1.000000
 IRadAn=      5 IRanWt=     -1 IRanGd=            0 ICorTp=0 IEmpDi=  4
 NAtoms=    4 NActive=    4 NUniq=    4 SFac= 1.00D+00 NAtFMM=   60 NAOKFM=F Big=F
 Integral buffers will be    131072 words long.
 Regular integral format.
 Two-electron integral symmetry is turned on.
 Leave Link  301 at Mon Mar 21 20:10:57 2022, MaxMem=  8589934592 cpu:               0.5 elap:               0.1
 (Enter /home/sabyasachi/g16/l302.exe)
 NPDir=0 NMtPBC=     1 NCelOv=     1 NCel=       1 NClECP=     1 NCelD=      1
         NCelK=      1 NCelE2=     1 NClLst=     1 CellRange=     0.0.
 One-electron integrals computed using PRISM.
 One-electron integral symmetry used in STVInt
 NBasis=    44 RedAO= T EigKep=  1.30D-03  NBF=    44
 NBsUse=    44 1.00D-06 EigRej= -1.00D+00 NBFU=    44
 Precomputing XC quadrature grid using
 IXCGrd= 4 IRadAn=           5 IRanWt=          -1 IRanGd=           0 AccXCQ= 0.00D+00.
 Generated NRdTot=       0 NPtTot=           0 NUsed=           0 NTot=          32
 NSgBfM=    46    46    46    46    46 MxSgAt=     4 MxSgA2=     4.
 Leave Link  302 at Mon Mar 21 20:10:57 2022, MaxMem=  8589934592 cpu:               0.9 elap:               0.1
 (Enter /home/sabyasachi/g16/l303.exe)
 DipDrv:  MaxL=1.
 Leave Link  303 at Mon Mar 21 20:10:57 2022, MaxMem=  8589934592 cpu:               0.2 elap:               0.0
 (Enter /home/sabyasachi/g16/l308.exe)
 Leave Link  308 at Mon Mar 21 20:10:57 2022, MaxMem=  8589934592 cpu:               0.2 elap:               0.0
 (Enter /home/sabyasachi/g16/l401.exe)
 ExpMin= 9.62D-02 ExpMax= 1.71D+03 ExpMxC= 2.58D+02 IAcc=3 IRadAn=         5 AccDes= 0.00D+00
 Harris functional with IExCor=  608 and IRadAn=       5 diagonalized for initial guess.
 HarFok:  IExCor=  608 AccDes= 0.00D+00 IRadAn=         5 IDoV= 1 UseB2=F ITyADJ=14
 ICtDFT=  3500011 ScaDFX=  1.000000  1.000000  1.000000  1.000000
 FoFCou: FMM=F IPFlag=           0 FMFlag=      100000 FMFlg1=           0
         NFxFlg=           0 DoJE=T BraDBF=F KetDBF=T FulRan=T
         wScrn=  0.000000 ICntrl=       500 IOpCl=  0 I1Cent=   200000004 NGrid=           0
         NMat0=    1 NMatS0=      1 NMatT0=    0 NMatD0=    1 NMtDS0=    0 NMtDT0=    0
 Petite list used in FoFCou.
 Harris En= -56.5380955429160    
 JPrj=0 DoOrth=F DoCkMO=F.
 Leave Link  401 at Mon Mar 21 20:10:57 2022, MaxMem=  8589934592 cpu:               1.4 elap:               0.2
 (Enter /home/sabyasachi/g16/l502.exe)
 Keep J ints in memory in canonical form, NReq=7439601.
 FoFCou: FMM=F IPFlag=           0 FMFlag=           0 FMFlg1=           0
         NFxFlg=           0 DoJE=F BraDBF=F KetDBF=F FulRan=T
         wScrn=  0.000000 ICntrl=       600 IOpCl=  0 I1Cent=           0 NGrid=           0
         NMat0=    1 NMatS0=    990 NMatT0=    0 NMatD0=    1 NMtDS0=    0 NMtDT0=    0
 Symmetry not used in FoFCou.
 Two-electron integral symmetry not used.
 Closed shell SCF:
 Using DIIS extrapolation, IDIIS=  1040.
 NGot=  8589934592 LenX=  8589438733 LenY=  8589436176
 Requested convergence on RMS density matrix=1.00D-08 within 100 cycles.
 Requested convergence on MAX density matrix=1.00D-06.
 Requested convergence on             energy=1.00D-06.
 No special actions if energy rises.
 Integral accuracy reduced to 1.0D-05 until final iterations.

 Cycle   1  Pass 0  IDiag  1:
 E= -56.4210835569340    
 DIIS: error= 3.76D-02 at cycle   1 NSaved=   1.
 NSaved= 1 IEnMin= 1 EnMin= -56.4210835569340     IErMin= 1 ErrMin= 3.76D-02
 ErrMax= 3.76D-02  0.00D+00 EMaxC= 1.00D-01 BMatC= 8.22D-02 BMatP= 8.22D-02
 IDIUse=3 WtCom= 6.24D-01 WtEn= 3.76D-01
 Coeff-Com:  0.100D+01
 Coeff-En:   0.100D+01
 Coeff:      0.100D+01
 Gap=     0.088 Goal=   None    Shift=    0.000
 GapD=    0.088 DampG=0.500 DampE=0.500 DampFc=0.2500 IDamp=-1.
 Damping current iteration by 2.50D-01
 RMSDP=1.75D-02 MaxDP=2.64D-01              OVMax= 3.15D-01

 Cycle   2  Pass 0  IDiag  1:
 E= -56.4481519857684     Delta-E=       -0.027068428834 Rises=F Damp=T
 DIIS: error= 1.05D-02 at cycle   2 NSaved=   2.
 NSaved= 2 IEnMin= 2 EnMin= -56.4481519857684     IErMin= 2 ErrMin= 1.05D-02
 ErrMax= 1.05D-02  0.00D+00 EMaxC= 1.00D-01 BMatC= 5.94D-03 BMatP= 8.22D-02
 IDIUse=3 WtCom= 8.95D-01 WtEn= 1.05D-01
 Coeff-Com: -0.356D+00 0.136D+01
 Coeff-En:   0.430D-02 0.996D+00
 Coeff:     -0.319D+00 0.132D+01
 Gap=     0.207 Goal=   None    Shift=    0.000
 RMSDP=3.72D-03 MaxDP=5.57D-02 DE=-2.71D-02 OVMax= 2.23D-01

 Cycle   3  Pass 0  IDiag  1:
 E= -56.4961573225497     Delta-E=       -0.048005336781 Rises=F Damp=F
 DIIS: error= 8.74D-04 at cycle   3 NSaved=   3.
 NSaved= 3 IEnMin= 3 EnMin= -56.4961573225497     IErMin= 3 ErrMin= 8.74D-04
 ErrMax= 8.74D-04  0.00D+00 EMaxC= 1.00D-01 BMatC= 3.26D-05 BMatP= 5.94D-03
 IDIUse=3 WtCom= 9.91D-01 WtEn= 8.74D-03
 Coeff-Com:  0.241D-01-0.315D-01 0.101D+01
 Coeff-En:   0.000D+00 0.000D+00 0.100D+01
 Coeff:      0.239D-01-0.313D-01 0.101D+01
 Gap=     0.224 Goal=   None    Shift=    0.000
 RMSDP=3.67D-04 MaxDP=3.39D-03 DE=-4.80D-02 OVMax= 3.20D-03

 Cycle   4  Pass 0  IDiag  1:
 E= -56.4961755063413     Delta-E=       -0.000018183792 Rises=F Damp=F
 DIIS: error= 4.45D-04 at cycle   4 NSaved=   4.
 NSaved= 4 IEnMin= 4 EnMin= -56.4961755063413     IErMin= 4 ErrMin= 4.45D-04
 ErrMax= 4.45D-04  0.00D+00 EMaxC= 1.00D-01 BMatC= 8.38D-06 BMatP= 3.26D-05
 IDIUse=3 WtCom= 9.96D-01 WtEn= 4.45D-03
 Coeff-Com:  0.165D-01-0.214D-01 0.197D+00 0.808D+00
 Coeff-En:   0.000D+00 0.000D+00 0.000D+00 0.100D+01
 Coeff:      0.164D-01-0.213D-01 0.196D+00 0.808D+00
 Gap=     0.225 Goal=   None    Shift=    0.000
 RMSDP=8.45D-05 MaxDP=1.50D-03 DE=-1.82D-05 OVMax= 1.24D-03

 Cycle   5  Pass 0  IDiag  1:
 E= -56.4961840932201     Delta-E=       -0.000008586879 Rises=F Damp=F
 DIIS: error= 7.86D-05 at cycle   5 NSaved=   5.
 NSaved= 5 IEnMin= 5 EnMin= -56.4961840932201     IErMin= 5 ErrMin= 7.86D-05
 ErrMax= 7.86D-05  0.00D+00 EMaxC= 1.00D-01 BMatC= 1.83D-07 BMatP= 8.38D-06
 IDIUse=1 WtCom= 1.00D+00 WtEn= 0.00D+00
 Coeff-Com:  0.651D-02-0.797D-02 0.619D-01 0.267D+00 0.672D+00
 Coeff:      0.651D-02-0.797D-02 0.619D-01 0.267D+00 0.672D+00
 Gap=     0.225 Goal=   None    Shift=    0.000
 RMSDP=1.10D-05 MaxDP=1.30D-04 DE=-8.59D-06 OVMax= 1.51D-04

 Cycle   6  Pass 0  IDiag  1:
 E= -56.4961842695275     Delta-E=       -0.000000176307 Rises=F Damp=F
 DIIS: error= 1.62D-05 at cycle   6 NSaved=   6.
 NSaved= 6 IEnMin= 6 EnMin= -56.4961842695275     IErMin= 6 ErrMin= 1.62D-05
 ErrMax= 1.62D-05  0.00D+00 EMaxC= 1.00D-01 BMatC= 1.10D-08 BMatP= 1.83D-07
 IDIUse=1 WtCom= 1.00D+00 WtEn= 0.00D+00
 Coeff-Com:  0.854D-03-0.106D-02 0.793D-02 0.714D-02 0.319D-01 0.953D+00
 Coeff:      0.854D-03-0.106D-02 0.793D-02 0.714D-02 0.319D-01 0.953D+00
 Gap=     0.226 Goal=   None    Shift=    0.000
 RMSDP=5.67D-06 MaxDP=8.90D-05 DE=-1.76D-07 OVMax= 4.43D-05

 Initial convergence to 1.0D-05 achieved.  Increase integral accuracy.
 Cycle   7  Pass 1  IDiag  1:
 E= -56.4961847589474     Delta-E=       -0.000000489420 Rises=F Damp=F
 DIIS: error= 2.20D-06 at cycle   1 NSaved=   1.
 NSaved= 1 IEnMin= 1 EnMin= -56.4961847589474     IErMin= 1 ErrMin= 2.20D-06
 ErrMax= 2.20D-06  0.00D+00 EMaxC= 1.00D-01 BMatC= 2.25D-10 BMatP= 2.25D-10
 IDIUse=1 WtCom= 1.00D+00 WtEn= 0.00D+00
 Coeff-Com:  0.100D+01
 Coeff:      0.100D+01
 Gap=     0.226 Goal=   None    Shift=    0.000
 RMSDP=5.67D-06 MaxDP=8.90D-05 DE=-4.89D-07 OVMax= 1.50D-05

 Cycle   8  Pass 1  IDiag  1:
 E= -56.4961847584965     Delta-E=        0.000000000451 Rises=F Damp=F
 DIIS: error= 3.85D-06 at cycle   2 NSaved=   2.
 NSaved= 2 IEnMin= 1 EnMin= -56.4961847589474     IErMin= 1 ErrMin= 2.20D-06
 ErrMax= 3.85D-06  0.00D+00 EMaxC= 1.00D-01 BMatC= 7.76D-10 BMatP= 2.25D-10
 IDIUse=1 WtCom= 1.00D+00 WtEn= 0.00D+00
 Coeff-Com:  0.654D+00 0.346D+00
 Coeff:      0.654D+00 0.346D+00
 Gap=     0.226 Goal=   None    Shift=    0.000
 RMSDP=6.33D-07 MaxDP=1.11D-05 DE= 4.51D-10 OVMax= 9.21D-06

 Cycle   9  Pass 1  IDiag  1:
 E= -56.4961847591808     Delta-E=       -0.000000000684 Rises=F Damp=F
 DIIS: error= 6.67D-08 at cycle   3 NSaved=   3.
 NSaved= 3 IEnMin= 3 EnMin= -56.4961847591808     IErMin= 3 ErrMin= 6.67D-08
 ErrMax= 6.67D-08  0.00D+00 EMaxC= 1.00D-01 BMatC= 1.29D-13 BMatP= 2.25D-10
 IDIUse=1 WtCom= 1.00D+00 WtEn= 0.00D+00
 Coeff-Com:  0.284D-01 0.102D-01 0.961D+00
 Coeff:      0.284D-01 0.102D-01 0.961D+00
 Gap=     0.226 Goal=   None    Shift=    0.000
 RMSDP=2.17D-08 MaxDP=3.97D-07 DE=-6.84D-10 OVMax= 2.65D-07

 Cycle  10  Pass 1  IDiag  1:
 E= -56.4961847591810     Delta-E=       -0.000000000000 Rises=F Damp=F
 DIIS: error= 2.91D-08 at cycle   4 NSaved=   4.
 NSaved= 4 IEnMin= 4 EnMin= -56.4961847591810     IErMin= 4 ErrMin= 2.91D-08
 ErrMax= 2.91D-08  0.00D+00 EMaxC= 1.00D-01 BMatC= 2.85D-14 BMatP= 1.29D-13
 IDIUse=1 WtCom= 1.00D+00 WtEn= 0.00D+00
 Coeff-Com:  0.352D-02 0.237D-02 0.299D+00 0.696D+00
 Coeff:      0.352D-02 0.237D-02 0.299D+00 0.696D+00
 Gap=     0.226 Goal=   None    Shift=    0.000
 RMSDP=4.44D-09 MaxDP=5.16D-08 DE=-1.99D-13 OVMax= 7.98D-08

 SCF Done:  E(RPW91-PW91) =  -56.4961847592     A.U. after   10 cycles
            NFock= 10  Conv=0.44D-08     -V/T= 2.0102
 KE= 5.592590594609D+01 PE=-1.554988957237D+02 EE= 3.111408661277D+01
 Leave Link  502 at Mon Mar 21 20:10:58 2022, MaxMem=  8589934592 cpu:               3.8 elap:               0.5
 (Enter /home/sabyasachi/g16/l801.exe)
 DoSCS=F DFT=T ScalE2(SS,OS)=  1.000000  1.000000
 ExpMin= 9.62D-02 ExpMax= 1.71D+03 ExpMxC= 2.58D+02 IAcc=3 IRadAn=         5 AccDes= 0.00D+00
 HarFok:  IExCor=  205 AccDes= 0.00D+00 IRadAn=         5 IDoV=-2 UseB2=F ITyADJ=14
 ICtDFT= 12500011 ScaDFX=  1.000000  1.000000  1.000000  1.000000
 Largest valence mixing into a core orbital is  5.40D-05
 Largest core mixing into a valence orbital is  1.10D-05
 Range of M.O.s used for correlation:     2    44
 NBasis=    44 NAE=     5 NBE=     5 NFC=     1 NFV=     0
 NROrb=     43 NOA=     4 NOB=     4 NVA=    39 NVB=    39

 **** Warning!!: The largest alpha MO coefficient is  0.10988834D+02

 Leave Link  801 at Mon Mar 21 20:10:58 2022, MaxMem=  8589934592 cpu:               0.3 elap:               0.1
 (Enter /home/sabyasachi/g16/l914.exe)
 RHF ground state
 Keep J ints in memory in canonical form, NReq=44823773.
 FoFCou: FMM=F IPFlag=           0 FMFlag=           0 FMFlg1=           0
         NFxFlg=           0 DoJE=F BraDBF=F KetDBF=F FulRan=T
         wScrn=  0.000000 ICntrl=       600 IOpCl=  0 I1Cent=           0 NGrid=           0
         NMat0=    1 NMatS0=    990 NMatT0=    0 NMatD0=    1 NMtDS0=    0 NMtDT0=    0
 Symmetry not used in FoFCou.
 Two-electron integral symmetry not used.
 MDV=  8589934592 DFT=T DoStab=F Mixed=F DoRPA=T DoScal=T NonHer=F
 Making orbital integer symmetry assigments:
 Orbital symmetries:
       Occupied  (A) (A) (A) (A) (A)
       Virtual   (A) (A) (A) (A) (A) (A) (A) (A) (A) (A) (A) (A)
                 (A) (A) (A) (A) (A) (A) (A) (A) (A) (A) (A) (A)
                 (A) (A) (A) (A) (A) (A) (A) (A) (A) (A) (A) (A)
                 (A) (A) (A)
   156 initial guesses have been made.
 Convergence on wavefunction:    0.001000000000000
 Davidson Disk Diagonalization:  ConvIn= 1.00D-03 SkipCon=T Conv= 1.00D-03.
 Max sub-space:   624 roots to seek:   312 dimension of matrix:          312
 *** WARNING: Number of orthogonal guesses is          156
 Iteration     1 Dimension   156 NMult     0 NNew    156
 CISAX will form   156 AO SS matrices at one time.
 NMat=   156 NSing=   156 JSym2X= 0.
 New state     14 was old state     15
 New state     15 was old state     16
 New state     16 was old state     17
 New state     17 was old state     19
 New state     18 was old state     14
 New state     19 was old state     18
 New state     20 was old state     22
 New state     21 was old state     23
 New state     22 was old state     24
 New state     23 was old state     25
 New state     24 was old state     21
 New state     25 was old state     20
 New state     26 was old state     28
 New state     27 was old state     26
 New state     28 was old state     29
 New state     29 was old state     30
 New state     30 was old state     31
 New state     31 was old state     27
 New state     34 was old state     37
 New state     35 was old state     38
 New state     36 was old state     34
 New state     37 was old state     35
 New state     38 was old state     36
 New state     41 was old state     43
 New state     42 was old state     41
 New state     43 was old state     44
 New state     44 was old state     45
 New state     45 was old state     46
 New state     46 was old state     47
 New state     47 was old state     42
 New state     49 was old state     51
 New state     50 was old state     49
 New state     51 was old state     50
 New state     58 was old state     61
 New state     59 was old state     62
 New state     60 was old state     63
 New state     61 was old state     58
 New state     62 was old state     59
 New state     63 was old state     60
 New state     65 was old state     66
 New state     66 was old state     65
 New state     67 was old state     69
 New state     68 was old state     70
 New state     69 was old state     67
 New state     70 was old state     68
 New state     73 was old state     75
 New state     75 was old state     73
 New state     79 was old state     80
 New state     80 was old state     81
 New state     81 was old state     82
 New state     82 was old state     83
 New state     83 was old state     84
 New state     84 was old state     79
 New state     87 was old state     88
 New state     88 was old state     87
 New state     89 was old state     90
 New state     90 was old state     91
 New state     91 was old state     92
 New state     92 was old state     93
 New state     93 was old state     94
 New state     94 was old state     89
 New state    107 was old state    109
 New state    109 was old state    107
 New state    110 was old state    111
 New state    111 was old state    112
 New state    112 was old state    110
 New state    118 was old state    119
 New state    119 was old state    120
 New state    120 was old state    118
 New state    124 was old state    126
 New state    126 was old state    124
 New state    139 was old state    140
 New state    140 was old state    141
 New state    141 was old state    139
 New state    142 was old state    143
 New state    143 was old state    142
 New state    153 was old state    154
 New state    154 was old state    153
 Excitation Energies [eV] at current iteration:
 Root      1 :     6.345950172330271
 Root      2 :     8.460640239723778
 Root      3 :     8.460653216670718
 Root      4 :    10.081937693371250
 Root      5 :    10.081956819945770
 Root      6 :    11.060289706307410
 Root      7 :    11.636233595951530
 Root      8 :    11.636284987443840
 Root      9 :    11.907730186750360
 Root     10 :    11.907740506980730
 Root     11 :    12.088841217452450
 Root     12 :    13.586886751808110
 Root     13 :    13.774773536332070
 Root     14 :    13.774774047512480
 Root     15 :    15.130502434539090
 Root     16 :    15.281317943932670
 Root     17 :    15.329769185635030
 Root     18 :    15.404045194835740
 Root     19 :    15.499867748319070
 Root     20 :    15.659402116368090
 Root     21 :    15.659460309033460
 Root     22 :    15.895843325693400
 Root     23 :    15.895865089766100
 Root     24 :    16.264448944816030
 Root     25 :    16.264472077485450
 Root     26 :    16.996395952190190
 Root     27 :    16.996401875934400
 Root     28 :    16.998444015147960
 Root     29 :    17.242666587404250
 Root     30 :    17.242714664844890
 Root     31 :    17.417093693175840
 Root     32 :    18.629426990289820
 Root     33 :    18.629428529256020
 Root     34 :    20.563574301903710
 Root     35 :    20.563627986362160
 Root     36 :    20.623259429733310
 Root     37 :    20.623316432485000
 Root     38 :    20.848869578101370
 Root     39 :    20.890956803507200
 Root     40 :    20.890969971966280
 Root     41 :    21.237419529181050
 Root     42 :    21.400009859584180
 Root     43 :    21.824031572688320
 Root     44 :    21.824036744163620
 Root     45 :    23.514888309552720
 Root     46 :    23.514898724245660
 Root     47 :    23.564983711813290
 Root     48 :    23.831329768490400
 Root     49 :    24.071489778360360
 Root     50 :    24.071495018791980
 Root     51 :    24.393252300243960
 Root     52 :    25.111537577449240
 Root     53 :    25.111553633486130
 Root     54 :    25.482926369205520
 Root     55 :    25.770878150360330
 Root     56 :    25.770933211884950
 Root     57 :    26.107410323703810
 Root     58 :    26.436517283369890
 Root     59 :    26.653191098159800
 Root     60 :    26.653218036423200
 Root     61 :    26.712510727070440
 Root     62 :    27.181842498733750
 Root     63 :    27.181889003106130
 Root     64 :    27.332855923162650
 Root     65 :    30.161289812892210
 Root     66 :    30.775220792263800
 Root     67 :    30.840953475957520
 Root     68 :    30.840984662380770
 Root     69 :    31.301069237880110
 Root     70 :    31.301088699308000
 Root     71 :    32.708791460632820
 Root     72 :    32.708843111361640
 Root     73 :    33.663486247303370
 Root     74 :    33.663489961652960
 Root     75 :    34.833060171185670
 Root     76 :    35.622770141179020
 Root     77 :    36.056630919781090
 Root     78 :    36.056644835183950
 Root     79 :    36.101304308342630
 Root     80 :    36.756182093486000
 Root     81 :    36.756201674331730
 Root     82 :    38.567796259360540
 Root     83 :    38.567863282264480
 Root     84 :    38.909311485830760
 Root     85 :    38.986283119316950
 Root     86 :    38.986335744884630
 Root     87 :    42.567640691903310
 Root     88 :    42.928724297553340
 Root     89 :    43.999183867264080
 Root     90 :    44.455360122165510
 Root     91 :    44.455365544517850
 Root     92 :    46.244190435171500
 Root     93 :    46.244223567570910
 Root     94 :    47.582259533516620
 Root     95 :    48.105242581171670
 Root     96 :    48.105308908520580
 Root     97 :    48.622211316475070
 Root     98 :    50.936345168908790
 Root     99 :    51.623894051460850
 Root    100 :    51.623966605634080
 Root    101 :    54.064569124317980
 Root    102 :    54.064613657459710
 Root    103 :    56.550394876688320
 Root    104 :    56.638717837710550
 Root    105 :    56.638755230457970
 Root    106 :    56.656479188664010
 Root    107 :    57.061677925730560
 Root    108 :    57.061730407497110
 Root    109 :    57.578224609565780
 Root    110 :    58.889145238073550
 Root    111 :    58.889274046369920
 Root    112 :    59.279274738546240
 Root    113 :    61.592874658652380
 Root    114 :    61.592968672837780
 Root    115 :    62.901996816157850
 Root    116 :    62.902052467620450
 Root    117 :    64.285880194877460
 Root    118 :    64.288556283027650
 Root    119 :    64.288586589681420
 Root    120 :    64.372705771249700
 Root    121 :    65.998530305518230
 Root    122 :    66.785809182058860
 Root    123 :    66.785877245996830
 Root    124 :    67.757278678499890
 Root    125 :    68.490954822664650
 Root    126 :    68.490964731814090
 Root    127 :    69.032003849134440
 Root    128 :    71.290873064588810
 Root    129 :    73.658192918853870
 Root    130 :    73.790205859168780
 Root    131 :    73.790332337926880
 Root    132 :    77.661944324439190
 Root    133 :    77.662003079437680
 Root    134 :    78.379334452653740
 Root    135 :    78.379401454995860
 Root    136 :    82.138305917071240
 Root    137 :    82.138481619429900
 Root    138 :    84.996392076598810
 Root    139 :    86.436186298498010
 Root    140 :    87.534266279693160
 Root    141 :    87.534355027359620
 Root    142 :    88.066936144619330
 Root    143 :    88.167319699245910
 Root    144 :    89.934083436178010
 Root    145 :    89.934223100776690
 Root    146 :    96.796322418260300
 Root    147 :    96.796514798032500
 Root    148 :    98.969641067661850
 Root    149 :    98.969862390548220
 Root    150 :    99.982818995650110
 Root    151 :   103.835675153576600
 Root    152 :   104.460615226903000
 Root    153 :   104.460624173432700
 Root    154 :   104.702870846345200
 Root    155 :   113.755788637561800
 Root    156 :   113.756037226865800
 Convergence achieved for final wavefunctions.
 ***********************************************************************
 Excited states from <AA,BB:AA,BB> singles matrix:
 ***********************************************************************
 
 1PDM for each excited state written to RWF  633
 Ground to excited state transition densities written to RWF  633
 Ground to excited state transition electric dipole moments (Au):
       state          X           Y           Z        Dip. S.      Osc.
         1         0.0000     -0.0000      0.6926      0.4798      0.0746
         2         0.2699     -0.0408     -0.0000      0.0745      0.0154
         3         0.0408      0.2699     -0.0000      0.0745      0.0154
         4        -0.0039      0.0308      0.0000      0.0010      0.0002
         5         0.0308      0.0039     -0.0000      0.0010      0.0002
         6         0.0000     -0.0000      0.4133      0.1708      0.0463
         7        -0.0360      0.3483     -0.0000      0.1226      0.0350
         8         0.3482      0.0360      0.0000      0.1225      0.0349
         9         0.8502     -0.0707     -0.0001      0.7279      0.2124
        10         0.0708      0.8502      0.0001      0.7278      0.2123
        11         0.0000     -0.0001      0.7694      0.5919      0.1753
        12        -0.0001     -0.0000     -0.0001      0.0000      0.0000
        13         0.0400      0.4765      0.0000      0.2287      0.0772
        14        -0.4765      0.0400      0.0000      0.2287      0.0772
        15        -0.0000      0.0000      0.0026      0.0000      0.0000
        16         0.0000      0.0000      0.0001      0.0000      0.0000
        17        -0.0001     -0.0000     -0.0002      0.0000      0.0000
        18         0.0000     -0.0001     -0.4077      0.1662      0.0627
        19        -0.0000      0.0002     -0.1358      0.0184      0.0070
        20        -0.0267      0.3174      0.0000      0.1015      0.0389
        21         0.3175      0.0267     -0.0000      0.1015      0.0389
        22         0.1224     -0.6554     -0.0000      0.4446      0.1731
        23        -0.6554     -0.1224      0.0000      0.4445      0.1731
        24        -0.1152      0.5634      0.0000      0.3307      0.1318
        25        -0.5635     -0.1152      0.0000      0.3307      0.1318
        26        -0.0040      0.0731     -0.0000      0.0054      0.0022
        27         0.0731      0.0039      0.0000      0.0054      0.0022
        28         0.0015      0.0005      0.0000      0.0000      0.0000
        29         0.0535     -0.5036     -0.0000      0.2565      0.1084
        30        -0.5036     -0.0535      0.0000      0.2565      0.1083
        31         0.0000     -0.0000      0.8010      0.6415      0.2737
        32        -0.4420      0.0685      0.0000      0.2000      0.0913
        33        -0.0685     -0.4420     -0.0000      0.2000      0.0913
        34        -0.0032     -0.0003     -0.0000      0.0000      0.0000
        35        -0.0003      0.0034      0.0000      0.0000      0.0000
        36         0.0220     -0.3020     -0.0000      0.0917      0.0463
        37        -0.3020     -0.0220      0.0000      0.0917      0.0463
        38        -0.0000     -0.0001     -0.6055      0.3667      0.1873
        39         0.3026      0.0150     -0.0000      0.0918      0.0470
        40        -0.0150      0.3026     -0.0002      0.0918      0.0470
        41         0.0000      0.0000      0.0002      0.0000      0.0000
        42         0.0000      0.0000      0.4036      0.1629      0.0854
        43        -0.6263      0.1223      0.0000      0.4072      0.2177
        44         0.1223      0.6263      0.0000      0.4072      0.2177
        45        -0.2763      0.0403      0.0000      0.0780      0.0449
        46        -0.0403     -0.2763     -0.0001      0.0780      0.0449
        47        -0.0000      0.0000     -0.4961      0.2462      0.1421
        48         0.0000      0.0000      0.0000      0.0000      0.0000
        49         0.2213     -0.0154     -0.0000      0.0492      0.0290
        50        -0.0154     -0.2213     -0.0000      0.0492      0.0290
        51        -0.0000      0.0000     -0.3350      0.1122      0.0671
        52        -0.0085      0.0675     -0.0000      0.0046      0.0028
        53         0.0675      0.0085      0.0000      0.0046      0.0028
        54        -0.0000     -0.0000     -0.1815      0.0329      0.0206
        55        -0.0015      0.0161     -0.0000      0.0003      0.0002
        56         0.0161      0.0015     -0.0000      0.0003      0.0002
        57         0.0000      0.0000      0.0000      0.0000      0.0000
        58        -0.0000      0.0000      0.0297      0.0009      0.0006
        59         0.1590      0.0008      0.0000      0.0253      0.0165
        60        -0.0008      0.1590     -0.0000      0.0253      0.0165
        61         0.0000     -0.0000      0.6172      0.3809      0.2493
        62         0.0480     -0.7809     -0.0000      0.6122      0.4077
        63         0.7809      0.0480     -0.0000      0.6122      0.4077
        64        -0.0000     -0.0000     -0.4421      0.1954      0.1309
        65         0.0000      0.0000     -0.0001      0.0000      0.0000
        66         0.0000     -0.0000      0.2259      0.0510      0.0385
        67        -0.0226      0.0584      0.0000      0.0039      0.0030
        68        -0.0584     -0.0226      0.0000      0.0039      0.0030
        69         0.0125     -0.0342     -0.0000      0.0013      0.0010
        70         0.0343      0.0125     -0.0000      0.0013      0.0010
        71        -0.0304      0.3967      0.0000      0.1583      0.1268
        72         0.3966      0.0304     -0.0000      0.1583      0.1268
        73        -0.0079      0.0429     -0.0000      0.0019      0.0016
        74         0.0430      0.0079     -0.0000      0.0019      0.0016
        75        -0.0000     -0.0000     -0.1468      0.0215      0.0184
        76         0.0000     -0.0000      0.1682      0.0283      0.0247
        77        -0.1282     -0.0060      0.0000      0.0165      0.0145
        78         0.0060     -0.1282      0.0000      0.0165      0.0145
        79        -0.0000     -0.0000     -0.0000      0.0000      0.0000
        80         0.2085     -0.0383     -0.0000      0.0449      0.0405
        81        -0.0383     -0.2085     -0.0000      0.0449      0.0405
        82         0.0104     -0.1180     -0.0000      0.0140      0.0133
        83        -0.1180     -0.0104      0.0000      0.0140      0.0133
        84         0.0000      0.0000      0.1150      0.0132      0.0126
        85         0.0062      0.2391     -0.0000      0.0572      0.0546
        86         0.2391     -0.0062     -0.0000      0.0572      0.0546
        87        -0.0000     -0.0000     -0.0475      0.0023      0.0024
        88         0.0000      0.0000      0.2932      0.0860      0.0904
        89        -0.0000      0.0000     -0.0000      0.0000      0.0000
        90        -0.1592      0.0186     -0.0000      0.0257      0.0280
        91        -0.0186     -0.1592      0.0000      0.0257      0.0280
        92        -0.0775      0.1879      0.0000      0.0413      0.0468
        93        -0.1879     -0.0775      0.0000      0.0413      0.0468
        94         0.0000     -0.0000      0.1222      0.0149      0.0174
        95         0.0009     -0.0080      0.0000      0.0001      0.0001
        96        -0.0080     -0.0009     -0.0000      0.0001      0.0001
        97        -0.0000      0.0000     -0.3426      0.1174      0.1399
        98         0.0000      0.0000      0.0000      0.0000      0.0000
        99        -0.1940     -0.0022      0.0000      0.0377      0.0476
       100         0.0022     -0.1940     -0.0000      0.0377      0.0476
       101         0.0101      0.1756      0.0000      0.0309      0.0410
       102         0.1756     -0.0101     -0.0000      0.0309      0.0410
       103        -0.0000      0.0000     -0.0983      0.0097      0.0134
       104         0.1225      0.0007     -0.0000      0.0150      0.0208
       105         0.0007     -0.1225     -0.0000      0.0150      0.0208
       106         0.0001      0.0001     -0.0000      0.0000      0.0000
       107        -0.2623     -0.0128      0.0000      0.0690      0.0964
       108        -0.0128      0.2623     -0.0000      0.0690      0.0964
       109        -0.0000      0.0000     -0.4238      0.1796      0.2534
       110         0.1628     -0.0095     -0.0000      0.0266      0.0384
       111         0.0095      0.1628     -0.0000      0.0266      0.0384
       112        -0.0000     -0.0000     -0.2874      0.0826      0.1199
       113        -0.0075      0.1188      0.0000      0.0142      0.0214
       114         0.1188      0.0075     -0.0000      0.0142      0.0214
       115        -0.0286      0.0596     -0.0000      0.0044      0.0067
       116        -0.0596     -0.0286      0.0000      0.0044      0.0067
       117         0.0063      0.0035      0.0000      0.0001      0.0001
       118         0.0455     -0.2103     -0.0000      0.0463      0.0729
       119         0.2102      0.0454     -0.0000      0.0462      0.0728
       120         0.0001     -0.0001      0.0281      0.0008      0.0012
       121        -0.0000     -0.0000     -0.0000      0.0000      0.0000
       122         0.0897     -0.0030     -0.0000      0.0081      0.0132
       123         0.0030      0.0897      0.0000      0.0081      0.0132
       124         0.0000      0.0000     -0.0000      0.0000      0.0000
       125        -0.0776      0.0076     -0.0000      0.0061      0.0102
       126         0.0076      0.0776      0.0000      0.0061      0.0102
       127         0.0000      0.0000     -0.0987      0.0097      0.0165
       128         0.0000     -0.0000      0.1135      0.0129      0.0225
       129         0.0000     -0.0000      0.2324      0.0540      0.0975
       130        -0.0543      0.0033      0.0000      0.0030      0.0054
       131        -0.0033     -0.0543     -0.0000      0.0030      0.0054
       132         0.0137     -0.0392     -0.0000      0.0017      0.0033
       133         0.0392      0.0137     -0.0000      0.0017      0.0033
       134         0.0300     -0.0911      0.0000      0.0092      0.0177
       135         0.0911      0.0300     -0.0000      0.0092      0.0177
       136         0.0013      0.1257      0.0000      0.0158      0.0318
       137         0.1257     -0.0013     -0.0000      0.0158      0.0318
       138        -0.0000      0.0000     -0.1428      0.0204      0.0424
       139         0.0000      0.0000      0.0000      0.0000      0.0000
       140         0.1408      0.0059      0.0000      0.0199      0.0426
       141         0.0059     -0.1408      0.0000      0.0199      0.0426
       142         0.0000     -0.0000     -0.1372      0.0188      0.0406
       143        -0.0000      0.0000      0.2020      0.0408      0.0881
       144        -0.0074      0.0959      0.0000      0.0093      0.0204
       145         0.0959      0.0074     -0.0000      0.0093      0.0204
       146         0.0000     -0.0018     -0.0000      0.0000      0.0000
       147        -0.0018     -0.0000      0.0000      0.0000      0.0000
       148        -0.1550      0.0098      0.0000      0.0241      0.0585
       149        -0.0098     -0.1550      0.0000      0.0241      0.0585
       150         0.0000     -0.0000      0.0967      0.0093      0.0229
       151         0.0000      0.0000     -0.0001      0.0000      0.0000
       152        -0.1469      0.0825     -0.0001      0.0284      0.0727
       153         0.0825      0.1469     -0.0000      0.0284      0.0727
       154         0.0000     -0.0000     -0.1503      0.0226      0.0580
       155        -0.0680      0.0043      0.0000      0.0046      0.0129
       156        -0.0043     -0.0680      0.0000      0.0046      0.0129
 Ground to excited state transition velocity dipole moments (Au):
       state          X           Y           Z        Dip. S.      Osc.
         1        -0.0000      0.0000     -0.1821      0.0332      0.0948
         2        -0.0920      0.0139      0.0000      0.0086      0.0185
         3        -0.0139     -0.0920      0.0000      0.0086      0.0185
         4        -0.0006      0.0044     -0.0000      0.0000      0.0000
         5         0.0044      0.0006      0.0000      0.0000      0.0000
         6        -0.0000      0.0000     -0.1793      0.0321      0.0527
         7         0.0169     -0.1633      0.0000      0.0270      0.0420
         8        -0.1633     -0.0169     -0.0000      0.0269      0.0420
         9        -0.3656      0.0304      0.0000      0.1346      0.2051
        10        -0.0304     -0.3656     -0.0000      0.1346      0.2050
        11        -0.0000      0.0000     -0.3570      0.1274      0.1912
        12         0.0001      0.0000      0.0000      0.0000      0.0000
        13        -0.0204     -0.2424     -0.0000      0.0591      0.0779
        14         0.2424     -0.0204     -0.0000      0.0592      0.0779
        15         0.0000     -0.0000     -0.0167      0.0003      0.0003
        16        -0.0000     -0.0000     -0.0000      0.0000      0.0000
        17         0.0000      0.0000      0.0001      0.0000      0.0000
        18        -0.0000      0.0000      0.2040      0.0416      0.0490
        19         0.0000     -0.0001      0.0890      0.0079      0.0093
        20         0.0154     -0.1839     -0.0000      0.0340      0.0394
        21        -0.1839     -0.0154      0.0000      0.0341      0.0395
        22        -0.0695      0.3723      0.0000      0.1434      0.1637
        23         0.3723      0.0696     -0.0000      0.1434      0.1637
        24         0.0685     -0.3352     -0.0000      0.1171      0.1306
        25         0.3352      0.0685     -0.0000      0.1171      0.1306
        26         0.0036     -0.0658      0.0000      0.0043      0.0046
        27        -0.0658     -0.0036     -0.0000      0.0043      0.0046
        28        -0.0014     -0.0005     -0.0000      0.0000      0.0000
        29        -0.0326      0.3070      0.0000      0.0953      0.1003
        30         0.3070      0.0326     -0.0000      0.0953      0.1003
        31        -0.0000      0.0000     -0.5360      0.2873      0.2992
        32         0.2949     -0.0457     -0.0000      0.0891      0.0867
        33         0.0457      0.2949      0.0000      0.0891      0.0867
        34        -0.0157     -0.0016      0.0000      0.0002      0.0002
        35        -0.0016      0.0155     -0.0000      0.0002      0.0002
        36        -0.0170      0.2336      0.0000      0.0549      0.0483
        37         0.2336      0.0170     -0.0000      0.0549      0.0483
        38         0.0000      0.0001      0.4451      0.1981      0.1724
        39        -0.2289     -0.0114      0.0000      0.0525      0.0456
        40         0.0114     -0.2289      0.0002      0.0525      0.0456
        41        -0.0000     -0.0000     -0.0001      0.0000      0.0000
        42        -0.0000     -0.0000     -0.3044      0.0926      0.0785
        43         0.5007     -0.0977     -0.0000      0.2602      0.2163
        44        -0.0977     -0.5007     -0.0000      0.2602      0.2163
        45         0.2410     -0.0352     -0.0000      0.0593      0.0458
        46         0.0352      0.2410      0.0001      0.0593      0.0458
        47         0.0000     -0.0000      0.4162      0.1732      0.1334
        48        -0.0000     -0.0000     -0.0000      0.0000      0.0000
        49        -0.1628      0.0113      0.0000      0.0266      0.0201
        50         0.0113      0.1628      0.0000      0.0266      0.0201
        51         0.0000     -0.0000      0.2757      0.0760      0.0565
        52         0.0100     -0.0799      0.0000      0.0065      0.0047
        53        -0.0799     -0.0100     -0.0000      0.0065      0.0047
        54         0.0000      0.0000      0.1560      0.0243      0.0173
        55         0.0009     -0.0097      0.0000      0.0001      0.0001
        56        -0.0097     -0.0009      0.0000      0.0001      0.0001
        57        -0.0000     -0.0000     -0.0000      0.0000      0.0000
        58        -0.0000     -0.0000     -0.0835      0.0070      0.0048
        59        -0.1704     -0.0009     -0.0000      0.0290      0.0198
        60         0.0009     -0.1704      0.0000      0.0290      0.0198
        61        -0.0000      0.0000     -0.6167      0.3803      0.2583
        62        -0.0480      0.7808      0.0000      0.6119      0.4084
        63        -0.7808     -0.0480      0.0000      0.6119      0.4084
        64         0.0000      0.0000      0.4652      0.2164      0.1436
        65        -0.0000     -0.0000      0.0001      0.0000      0.0000
        66        -0.0000      0.0000     -0.2438      0.0594      0.0350
        67         0.0244     -0.0630     -0.0000      0.0046      0.0027
        68         0.0630      0.0244     -0.0000      0.0046      0.0027
        69         0.0018     -0.0053      0.0000      0.0000      0.0000
        70         0.0053      0.0018     -0.0000      0.0000      0.0000
        71         0.0342     -0.4466     -0.0000      0.2007      0.1113
        72        -0.4466     -0.0342      0.0000      0.2006      0.1113
        73         0.0117     -0.0636      0.0000      0.0042      0.0023
        74        -0.0636     -0.0117      0.0000      0.0042      0.0023
        75         0.0000      0.0000      0.2073      0.0430      0.0224
        76        -0.0000      0.0000     -0.2439      0.0595      0.0303
        77         0.1814      0.0086     -0.0000      0.0330      0.0166
        78        -0.0086      0.1814     -0.0000      0.0330      0.0166
        79         0.0000      0.0000      0.0000      0.0000      0.0000
        80        -0.2519      0.0462      0.0000      0.0656      0.0324
        81         0.0463      0.2519      0.0000      0.0656      0.0324
        82        -0.0173      0.1952      0.0000      0.0384      0.0181
        83         0.1953      0.0173     -0.0000      0.0384      0.0181
        84         0.0000     -0.0000     -0.1495      0.0224      0.0104
        85        -0.0099     -0.3816      0.0000      0.1457      0.0678
        86        -0.3816      0.0099      0.0000      0.1457      0.0678
        87         0.0000      0.0000      0.0410      0.0017      0.0007
        88        -0.0000     -0.0000     -0.5189      0.2692      0.1138
        89         0.0000     -0.0000      0.0001      0.0000      0.0000
        90         0.2957     -0.0345     -0.0000      0.0887      0.0362
        91         0.0345      0.2957     -0.0000      0.0887      0.0362
        92         0.1475     -0.3577     -0.0000      0.1497      0.0587
        93         0.3577      0.1475     -0.0000      0.1497      0.0587
        94        -0.0000      0.0000     -0.2045      0.0418      0.0160
        95         0.0025     -0.0245     -0.0000      0.0006      0.0002
        96        -0.0245     -0.0025      0.0000      0.0006      0.0002
        97         0.0000     -0.0000      0.6664      0.4441      0.1657
        98        -0.0000     -0.0000     -0.0000      0.0000      0.0000
        99         0.3216      0.0037     -0.0000      0.1034      0.0364
       100        -0.0037      0.3216      0.0000      0.1035      0.0364
       101        -0.0211     -0.3656     -0.0000      0.1341      0.0450
       102        -0.3656      0.0211      0.0000      0.1341      0.0450
       103         0.0000     -0.0000      0.1955      0.0382      0.0123
       104        -0.2396     -0.0014      0.0000      0.0574      0.0184
       105        -0.0014      0.2395      0.0000      0.0574      0.0184
       106        -0.0002     -0.0002     -0.0000      0.0000      0.0000
       107         0.4873      0.0238     -0.0000      0.2381      0.0757
       108         0.0238     -0.4874      0.0000      0.2381      0.0757
       109         0.0000     -0.0000      0.7450      0.5551      0.1749
       110        -0.3369      0.0196      0.0000      0.1139      0.0351
       111        -0.0196     -0.3369      0.0000      0.1139      0.0351
       112         0.0000      0.0000      0.5762      0.3320      0.1016
       113         0.0176     -0.2789     -0.0000      0.0781      0.0230
       114        -0.2789     -0.0176      0.0000      0.0781      0.0230
       115         0.0587     -0.1222      0.0000      0.0184      0.0053
       116         0.1222      0.0587     -0.0000      0.0184      0.0053
       117        -0.0124     -0.0069     -0.0001      0.0002      0.0001
       118        -0.0892      0.4126      0.0000      0.1782      0.0503
       119        -0.4124     -0.0890      0.0000      0.1780      0.0502
       120        -0.0001      0.0001     -0.0652      0.0043      0.0012
       121         0.0000      0.0000      0.0000      0.0000      0.0000
       122        -0.2046      0.0068      0.0000      0.0419      0.0114
       123        -0.0068     -0.2046     -0.0000      0.0419      0.0114
       124        -0.0000     -0.0000      0.0001      0.0000      0.0000
       125         0.2136     -0.0211     -0.0000      0.0461      0.0122
       126        -0.0211     -0.2136     -0.0000      0.0461      0.0122
       127        -0.0000     -0.0000      0.2340      0.0548      0.0144
       128        -0.0000      0.0000     -0.1992      0.0397      0.0101
       129        -0.0000      0.0000     -0.5279      0.2786      0.0686
       130         0.0705     -0.0043     -0.0000      0.0050      0.0012
       131         0.0043      0.0705      0.0000      0.0050      0.0012
       132        -0.0338      0.0970      0.0000      0.0106      0.0025
       133        -0.0970     -0.0338      0.0000      0.0106      0.0025
       134        -0.0985      0.2998      0.0000      0.0996      0.0230
       135        -0.2998     -0.0985      0.0000      0.0996      0.0230
       136        -0.0040     -0.3745     -0.0000      0.1402      0.0310
       137        -0.3745      0.0040      0.0000      0.1402      0.0310
       138         0.0000     -0.0000      0.4109      0.1688      0.0360
       139        -0.0000     -0.0000     -0.0001      0.0000      0.0000
       140        -0.4533     -0.0191     -0.0000      0.2058      0.0427
       141        -0.0191      0.4533     -0.0001      0.2058      0.0427
       142        -0.0000      0.0000      0.4141      0.1714      0.0353
       143         0.0000     -0.0000     -0.6064      0.3677      0.0757
       144         0.0187     -0.2423     -0.0000      0.0591      0.0119
       145        -0.2424     -0.0187      0.0000      0.0591      0.0119
       146        -0.0001      0.0217      0.0000      0.0005      0.0001
       147         0.0216      0.0001     -0.0000      0.0005      0.0001
       148         0.4751     -0.0301     -0.0000      0.2266      0.0415
       149         0.0301      0.4751     -0.0000      0.2266      0.0415
       150        -0.0000      0.0000     -0.3207      0.1029      0.0187
       151        -0.0001     -0.0001      0.0005      0.0000      0.0000
       152         0.4994     -0.2806      0.0002      0.3282      0.0570
       153        -0.2806     -0.4994      0.0001      0.3282      0.0570
       154        -0.0001      0.0002      0.5034      0.2534      0.0439
       155         0.2301     -0.0144     -0.0000      0.0531      0.0085
       156         0.0144      0.2301     -0.0000      0.0531      0.0085
 Ground to excited state transition magnetic dipole moments (Au):
       state          X           Y           Z
         1         0.0000      0.0000     -0.0000
         2         0.0127      0.0841      0.0000
         3        -0.0841      0.0127      0.0000
         4        -0.2361     -0.0296      0.0000
         5        -0.0296      0.2361      0.0000
         6         0.0000      0.0000     -0.0001
         7         0.1443      0.0149     -0.0000
         8         0.0149     -0.1444     -0.0000
         9         0.0181      0.2181     -0.0000
        10        -0.2181      0.0181      0.0000
        11         0.0000      0.0000     -0.0000
        12        -0.0000      0.0000     -0.2839
        13        -0.0837      0.0071     -0.0000
        14        -0.0071     -0.0837      0.0001
        15        -0.0000     -0.0000      0.0000
        16         0.0000     -0.0000      0.3314
        17        -0.0000      0.0000     -0.7312
        18         0.0000     -0.0000     -0.0001
        19        -0.0000     -0.0000     -0.0001
        20        -0.0160     -0.0014     -0.0000
        21        -0.0014      0.0160     -0.0000
        22        -0.2036     -0.0381      0.0000
        23        -0.0381      0.2036      0.0000
        24        -0.1341     -0.0274     -0.0000
        25         0.0274     -0.1341      0.0000
        26         0.3305      0.0179     -0.0004
        27         0.0179     -0.3304     -0.0016
        28         0.0025     -0.0073      0.0683
        29        -0.0986     -0.0105      0.0000
        30        -0.0105      0.0986     -0.0000
        31         0.0000      0.0000     -0.0001
        32        -0.0197     -0.1274      0.0000
        33         0.1274     -0.0197      0.0000
        34         0.0052     -0.0500      0.0000
        35        -0.0500     -0.0052     -0.0000
        36        -0.0369     -0.0027      0.0000
        37        -0.0027      0.0369      0.0000
        38         0.0000     -0.0000     -0.0000
        39        -0.0013      0.0253     -0.0000
        40        -0.0253     -0.0013     -0.0000
        41         0.0000      0.0000      0.3486
        42        -0.0000     -0.0000     -0.0000
        43        -0.0227     -0.1161      0.0000
        44        -0.1161      0.0227     -0.0000
        45        -0.0077     -0.0531     -0.0000
        46         0.0531     -0.0077      0.0000
        47        -0.0000     -0.0000     -0.0000
        48         0.0000      0.0000      0.1644
        49         0.0034      0.0492     -0.0000
        50         0.0492     -0.0034      0.0000
        51        -0.0000     -0.0000     -0.0000
        52         0.0395      0.0050     -0.0000
        53         0.0050     -0.0395     -0.0000
        54        -0.0000     -0.0000     -0.0000
        55         0.1166      0.0110     -0.0000
        56         0.0110     -0.1166     -0.0000
        57         0.0000     -0.0000      0.6007
        58         0.0000      0.0000     -0.0000
        59         0.0009     -0.1959     -0.0000
        60         0.1959      0.0009     -0.0000
        61        -0.0000     -0.0000     -0.0001
        62        -0.2053     -0.0126      0.0000
        63         0.0126     -0.2053     -0.0000
        64        -0.0000     -0.0000      0.0001
        65        -0.0000      0.0000     -0.1653
        66        -0.0000      0.0000      0.0000
        67         0.1526      0.0592     -0.0000
        68        -0.0592      0.1526      0.0000
        69         0.1219      0.0443     -0.0000
        70        -0.0443      0.1219      0.0000
        71         0.0321      0.0025      0.0000
        72         0.0025     -0.0321      0.0000
        73         0.0057      0.0009      0.0000
        74         0.0009     -0.0057      0.0000
        75         0.0000      0.0000      0.0000
        76        -0.0000     -0.0000     -0.0000
        77         0.0049     -0.1063      0.0000
        78         0.1063      0.0049     -0.0000
        79        -0.0000      0.0000     -0.2152
        80        -0.0007     -0.0032     -0.0000
        81        -0.0032      0.0007     -0.0000
        82        -0.0367     -0.0033      0.0000
        83        -0.0033      0.0367      0.0000
        84        -0.0000     -0.0000     -0.0000
        85        -0.2105      0.0054      0.0000
        86         0.0054      0.2105      0.0000
        87         0.0000     -0.0000      0.0000
        88        -0.0000      0.0000     -0.0000
        89        -0.0000      0.0000     -0.4214
        90        -0.0267     -0.2283     -0.0000
        91         0.2283     -0.0267     -0.0000
        92        -0.0947     -0.0391      0.0000
        93         0.0391     -0.0946     -0.0000
        94         0.0000      0.0000      0.0000
        95        -0.1769     -0.0187      0.0000
        96        -0.0187      0.1769     -0.0000
        97        -0.0000     -0.0000     -0.0000
        98        -0.0000      0.0000      0.2095
        99         0.0020     -0.1694      0.0000
       100         0.1694      0.0020      0.0000
       101         0.1332     -0.0078     -0.0000
       102        -0.0078     -0.1332     -0.0000
       103         0.0000      0.0000     -0.0002
       104         0.0006     -0.0868      0.0004
       105        -0.0866     -0.0006     -0.0003
       106         0.0000     -0.0000     -0.3061
       107        -0.0180      0.3668      0.0001
       108         0.3668      0.0180     -0.0000
       109        -0.0000      0.0000      0.0004
       110        -0.0024     -0.0425     -0.0000
       111         0.0425     -0.0024     -0.0000
       112         0.0000      0.0000      0.0002
       113         0.3731      0.0236     -0.0000
       114         0.0236     -0.3731     -0.0000
       115         0.0264      0.0127     -0.0000
       116        -0.0127      0.0264      0.0000
       117        -0.0006      0.0011      0.5750
       118         0.0356      0.0077      0.0056
       119        -0.0077      0.0356     -0.0185
       120         0.0000      0.0000     -0.0000
       121         0.0000     -0.0000     -0.5304
       122         0.0101      0.3053     -0.0001
       123        -0.3053      0.0101     -0.0000
       124         0.0000     -0.0000     -0.0592
       125         0.0064      0.0647     -0.0000
       126         0.0647     -0.0064      0.0000
       127         0.0000     -0.0000      0.0002
       128         0.0000     -0.0000      0.0000
       129        -0.0000      0.0000     -0.0001
       130         0.0104      0.1686     -0.0000
       131        -0.1686      0.0104     -0.0000
       132        -0.0976     -0.0339      0.0000
       133         0.0339     -0.0976     -0.0000
       134         0.1044      0.0343     -0.0000
       135        -0.0343      0.1044      0.0000
       136        -0.0214      0.0003      0.0000
       137         0.0003      0.0214     -0.0000
       138         0.0000      0.0000     -0.0001
       139        -0.0000      0.0000      0.2370
       140        -0.0067      0.1604     -0.0000
       141         0.1604      0.0067      0.0000
       142         0.0000      0.0000      0.0003
       143        -0.0000     -0.0000     -0.0002
       144        -0.0935     -0.0073      0.0000
       145        -0.0074      0.0936      0.0000
       146         0.0097     -0.0000     -0.0000
       147        -0.0000     -0.0097     -0.0000
       148        -0.0031     -0.0517     -0.0000
       149         0.0517     -0.0031     -0.0000
       150         0.0000     -0.0000     -0.0000
       151        -0.0000      0.0000      0.0044
       152        -0.0439     -0.0777      0.0000
       153        -0.0777      0.0439      0.0000
       154         0.0000      0.0000     -0.0005
       155        -0.0021     -0.0310     -0.0000
       156         0.0310     -0.0021     -0.0000
 Ground to excited state transition velocity quadrupole moments (Au):
       state          XX          YY          ZZ          XY          XZ          YZ
         1        -0.0836     -0.0836      0.0002      0.0000      0.0000     -0.0000
         2        -0.0435      0.0435      0.0000      0.0611     -0.1996      0.0301
         3         0.0611     -0.0611     -0.0000      0.0435     -0.0301     -0.1996
         4         0.1017     -0.1017     -0.0000      0.0366     -0.0268      0.2131
         5        -0.0365      0.0366      0.0000      0.1017      0.2131      0.0268
         6        -0.0572     -0.0572     -0.6024     -0.0000     -0.0000     -0.0000
         7         0.1296     -0.1296     -0.0000      0.0499      0.0186     -0.1818
         8        -0.0499      0.0499      0.0000      0.1295     -0.1818     -0.0186
         9        -0.1140      0.1140     -0.0000      0.1844     -0.1083      0.0090
        10         0.1845     -0.1844      0.0001      0.1140     -0.0090     -0.1083
        11        -0.0314     -0.0314      0.8235      0.0000      0.0000     -0.0000
        12         0.0001      0.0001      0.0000     -0.0002      0.0000      0.0000
        13         0.5960     -0.5960     -0.0000      0.3692     -0.0177     -0.2099
        14         0.3692     -0.3692     -0.0000     -0.5960      0.2098     -0.0177
        15        -0.9373     -0.9373     -0.3234     -0.0000      0.0000     -0.0000
        16        -0.0000     -0.0000      0.0000      0.0000     -0.0000     -0.0000
        17        -0.0000     -0.0000      0.0001      0.0000      0.0000      0.0000
        18         0.6157      0.6156      0.4726      0.0000     -0.0000      0.0000
        19         0.4895      0.4896      0.4254     -0.0000      0.0000     -0.0001
        20        -0.2530      0.2530     -0.0000     -0.1033      0.0396     -0.4733
        21         0.1033     -0.1033      0.0000     -0.2530     -0.4733     -0.0396
        22        -0.1639      0.1639      0.0000     -0.0480      0.0452     -0.2414
        23         0.0480     -0.0481      0.0000     -0.1639     -0.2415     -0.0452
        24        -0.2499      0.2498     -0.0000     -0.0689      0.0525     -0.2567
        25        -0.0689      0.0689     -0.0000      0.2498      0.2567      0.0525
        26         0.3795     -0.3795      0.0000      0.1681     -0.0149      0.2740
        27        -0.1681      0.1681     -0.0000      0.3794      0.2740      0.0149
        28        -0.0014      0.0014     -0.0000      0.0095      0.0061      0.0022
        29        -0.2966      0.2966      0.0000     -0.1133     -0.0583      0.5504
        30         0.1133     -0.1133     -0.0000     -0.2967      0.5504      0.0584
        31         0.6423      0.6423     -0.4017      0.0000     -0.0000      0.0000
        32        -0.1910      0.1909      0.0000      0.2649     -0.6249      0.0968
        33         0.2649     -0.2649      0.0000      0.1909     -0.0968     -0.6249
        34         0.2809     -0.2809      0.0000     -0.7280     -0.0844     -0.0084
        35         0.7276     -0.7276     -0.0000      0.2808     -0.0084      0.0844
        36         0.4937     -0.4937     -0.0000      0.2077      0.0017     -0.0226
        37        -0.2075      0.2075      0.0000      0.4932     -0.0227     -0.0018
        38         0.2291      0.2291     -0.2515     -0.0000     -0.0000     -0.0001
        39        -0.0273      0.0274      0.0000      0.0610      0.2353      0.0117
        40         0.0610     -0.0609     -0.0001      0.0274     -0.0117      0.2353
        41        -0.0001     -0.0001     -0.0001      0.0000      0.0000      0.0000
        42         0.5281      0.5281      0.3839      0.0000     -0.0000      0.0000
        43         0.1447     -0.1448      0.0000     -0.1852     -0.2158      0.0422
        44         0.1852     -0.1853     -0.0000      0.1448      0.0422      0.2158
        45         0.1600     -0.1601     -0.0000     -0.2262      0.1928     -0.0281
        46        -0.2261      0.2263      0.0000     -0.1601      0.0281      0.1928
        47         0.8123      0.8122      0.5492      0.0000     -0.0000     -0.0000
        48         0.0000      0.0000     -0.0001     -0.0000      0.0001      0.0000
        49         0.0354     -0.0354     -0.0001     -0.0592      0.5567     -0.0387
        50         0.0592     -0.0593     -0.0001      0.0354     -0.0387     -0.5567
        51        -0.4874     -0.4874     -1.1416      0.0000     -0.0000      0.0000
        52        -0.8249      0.8248      0.0000     -0.2962      0.0054     -0.0419
        53         0.2962     -0.2962     -0.0000     -0.8248     -0.0419     -0.0053
        54        -0.3720     -0.3721      0.5766      0.0000      0.0000     -0.0000
        55        -0.2956      0.2956     -0.0000     -0.1169     -0.0156      0.1638
        56         0.1169     -0.1169     -0.0000     -0.2956      0.1638      0.0156
        57         0.0000      0.0000      0.0001     -0.0000      0.0000      0.0000
        58         0.0532      0.0532      0.3012      0.0000     -0.0000      0.0000
        59         0.0290     -0.0289     -0.0001     -0.0578      0.7963      0.0036
        60        -0.0578      0.0577      0.0000     -0.0289     -0.0036      0.7963
        61        -0.7991     -0.7992      0.7138      0.0000      0.0000     -0.0000
        62         0.4090     -0.4090     -0.0000      0.1774      0.0184     -0.2994
        63         0.1774     -0.1774     -0.0000     -0.4090      0.2994      0.0184
        64        -0.0763     -0.0763      0.2753     -0.0000      0.0000     -0.0001
        65        -0.0000     -0.0000     -0.0000      0.0000     -0.0000      0.0000
        66        -0.7193     -0.7192     -0.3612      0.0000      0.0000     -0.0000
        67        -0.4699      0.4699      0.0000     -0.0475      0.0212     -0.0547
        68        -0.0475      0.0475     -0.0000      0.4699      0.0547      0.0212
        69        -0.1100      0.1100      0.0000     -0.0135     -0.1101      0.3032
        70        -0.0136      0.0136      0.0000      0.1100     -0.3032     -0.1101
        71         0.6343     -0.6343     -0.0000      0.2639      0.0145     -0.1912
        72        -0.2639      0.2639      0.0000      0.6343     -0.1912     -0.0145
        73         0.3719     -0.3719      0.0000      0.1113      0.0641     -0.3531
        74        -0.1113      0.1113      0.0000      0.3719     -0.3531     -0.0641
        75        -0.2486     -0.2486     -0.9695      0.0000     -0.0000      0.0000
        76         0.2979      0.2980     -1.2120     -0.0000     -0.0000      0.0000
        77        -0.3179      0.3179     -0.0000      0.7048      0.4985      0.0234
        78         0.7048     -0.7048     -0.0000      0.3179     -0.0234      0.4985
        79        -0.0002     -0.0002     -0.0000     -0.0000      0.0000      0.0000
        80        -0.1906      0.1905      0.0000      0.2491     -0.7050      0.1293
        81        -0.2491      0.2491      0.0000     -0.1905      0.1293      0.7050
        82        -0.2230      0.2230     -0.0000     -0.0897      0.0203     -0.2266
        83         0.0896     -0.0896      0.0000     -0.2231     -0.2266     -0.0203
        84        -0.4620     -0.4619     -0.4203     -0.0000      0.0000     -0.0000
        85         0.4849     -0.4849     -0.0000      0.2631     -0.0003     -0.0131
        86        -0.2631      0.2631      0.0000      0.4849     -0.0131      0.0003
        87         0.2890      0.2890     -0.0446     -0.0000     -0.0000      0.0000
        88        -0.1410     -0.1410     -0.0595      0.0000      0.0000     -0.0000
        89        -0.0000     -0.0000      0.0001     -0.0000      0.0000     -0.0000
        90        -0.2089      0.2090     -0.0000      0.3143      0.7557     -0.0881
        91         0.3143     -0.3143      0.0000      0.2090      0.0881      0.7557
        92         0.1344     -0.1343      0.0000      0.0108     -0.0201      0.0492
        93         0.0108     -0.0108      0.0000     -0.1344     -0.0492     -0.0201
        94         1.4007      1.4008      0.5158      0.0000     -0.0000      0.0000
        95        -0.6580      0.6580      0.0000     -0.2519     -0.0105      0.1002
        96         0.2519     -0.2519     -0.0000     -0.6580      0.1002      0.0105
        97        -0.7049     -0.7049     -0.4690      0.0000      0.0000     -0.0000
        98        -0.0000     -0.0000      0.0001      0.0000     -0.0001     -0.0000
        99         0.0223     -0.0223     -0.0000     -0.0451      0.6834      0.0080
       100        -0.0451      0.0451     -0.0000     -0.0223     -0.0080      0.6833
       101        -0.1255      0.1254     -0.0000     -0.0731      0.0300      0.5202
       102         0.0731     -0.0731     -0.0000     -0.1255      0.5202     -0.0300
       103         0.5902      0.5903     -0.9578     -0.0000     -0.0000      0.0000
       104         0.5938     -0.5938     -0.0000     -1.1834     -0.0965     -0.0003
       105         1.1835     -1.1834     -0.0000      0.5938     -0.0004      0.0965
       106         0.0000      0.0004     -0.0000     -0.0022     -0.0002     -0.0001
       107         0.0164     -0.0164      0.0000     -0.0366     -0.1356     -0.0066
       108         0.0363     -0.0363      0.0000      0.0163     -0.0066      0.1356
       109        -0.6329     -0.6329      0.4267     -0.0000      0.0000     -0.0000
       110         0.0611     -0.0611     -0.0000     -0.1041      0.3491     -0.0204
       111        -0.1041      0.1041      0.0000     -0.0611      0.0204      0.3491
       112         0.5347      0.5347      1.2730     -0.0000      0.0000      0.0000
       113         0.1335     -0.1335      0.0000      0.0576     -0.0484      0.7690
       114        -0.0576      0.0576     -0.0000      0.1335      0.7690      0.0484
       115        -0.1990      0.1990      0.0000     -0.0047     -0.1339      0.2793
       116        -0.0047      0.0046      0.0000      0.1989     -0.2793     -0.1339
       117        -0.0001      0.0017      0.0002     -0.0268     -0.0049     -0.0027
       118         0.7703     -0.7701     -0.0003      0.2034     -0.0349      0.1615
       119         0.2036     -0.2035     -0.0002     -0.7698     -0.1614     -0.0348
       120        -0.3589     -0.3595      1.1312     -0.0001     -0.0000      0.0000
       121        -0.0001     -0.0001     -0.0000      0.0000      0.0001      0.0000
       122         0.2373     -0.2373      0.0000     -0.4308     -0.5832      0.0195
       123        -0.4308      0.4308      0.0000     -0.2373     -0.0194     -0.5831
       124        -0.0001     -0.0001     -0.0004     -0.0000      0.0000      0.0000
       125        -0.0865      0.0864      0.0000      0.1354     -0.7835      0.0777
       126        -0.1354      0.1354      0.0000     -0.0864      0.0777      0.7835
       127        -0.2600     -0.2600     -0.2658     -0.0000      0.0000      0.0001
       128         0.3027      0.3027     -0.2878     -0.0000     -0.0000      0.0000
       129         0.1766      0.1766      0.0099     -0.0000     -0.0000     -0.0000
       130        -0.1354      0.1354      0.0000      0.2307      0.1251     -0.0074
       131         0.2307     -0.2307     -0.0000      0.1354      0.0074      0.1251
       132        -0.2098      0.2098     -0.0000     -0.0287      0.0579     -0.1666
       133        -0.0287      0.0287     -0.0000      0.2098      0.1666      0.0579
       134         0.4035     -0.4035     -0.0000      0.0622     -0.0657      0.1999
       135         0.0622     -0.0622      0.0000     -0.4035     -0.1999     -0.0657
       136         0.1344     -0.1344      0.0000      0.0703      0.0050      0.4607
       137        -0.0703      0.0703     -0.0000      0.1344      0.4607     -0.0050
       138        -0.0988     -0.0989     -0.1594      0.0000     -0.0000      0.0000
       139         0.0002      0.0002     -0.0002      0.0000      0.0000      0.0000
       140        -0.0900      0.0900      0.0000      0.1971      0.2367      0.0101
       141        -0.1970      0.1970      0.0001     -0.0900      0.0101     -0.2367
       142         0.1688      0.1689     -0.4444     -0.0000      0.0000     -0.0000
       143        -0.1803     -0.1804      0.7880      0.0000      0.0000      0.0000
       144        -0.1733      0.1733      0.0000     -0.0721      0.0062     -0.0756
       145         0.0720     -0.0720     -0.0000     -0.1732     -0.0756     -0.0062
       146        -0.0313      0.0312      0.0000     -0.0167     -0.0001      0.0233
       147         0.0167     -0.0167      0.0000     -0.0312      0.0233      0.0001
       148        -0.1214      0.1214      0.0000      0.2066     -0.0606      0.0038
       149         0.2066     -0.2066      0.0000      0.1214     -0.0038     -0.0606
       150         0.0812      0.0812     -0.1703     -0.0000     -0.0000      0.0000
       151        -0.0002     -0.0002      0.0000     -0.0000      0.0001      0.0001
       152        -0.0286      0.0285     -0.0001      0.0183     -0.3569      0.2007
       153        -0.0183      0.0183     -0.0000     -0.0285      0.2007      0.3569
       154        -0.1332     -0.1332     -0.2730     -0.0000      0.0001     -0.0001
       155        -0.0604      0.0603      0.0000      0.1026     -0.2098      0.0132
       156         0.1026     -0.1025     -0.0000      0.0603     -0.0132     -0.2098
 <0|del|b> * <b|rxdel|0> + <0|del|b> * <b|delr+rdel|0>
 Rotatory Strengths (R) in cgs (10**-40 erg-esu-cm/Gauss)
       state          XX          YY          ZZ    R(velocity)    E-M Angle
         1         0.0012      0.0013     -0.0000      0.0008       90.00
         2         4.4855     -4.4731     -0.0075      0.0016       90.00
         3        -4.4730      4.4854     -0.0069      0.0018       90.00
         4        -0.0122      0.0125     -0.0010     -0.0002       90.00
         5         0.0125     -0.0122     -0.0009     -0.0002       90.00
         6         0.0098      0.0096     -0.0000      0.0065       90.00
         7         0.5029     -0.5227      0.0261      0.0021       90.00
         8        -0.5217      0.5029      0.0270      0.0027       90.00
         9         8.0291     -8.0089     -0.0066      0.0045       90.00
        10        -8.0092      8.0292     -0.0008      0.0064       90.00
        11         0.0062      0.0070      0.0000      0.0044       90.00
        12        -0.0087     -0.0087     -0.0000     -0.0058       90.00
        13        -4.1907      4.1769      0.0077     -0.0020       90.00
        14         4.1779     -4.1891      0.0051     -0.0020       90.00
        15        -0.0000     -0.0000     -0.0000     -0.0000       90.00
        16        -0.0080     -0.0080     -0.0000     -0.0053       90.00
        17        -0.0537     -0.0537     -0.0000     -0.0358       90.00
        18        -0.0061     -0.0072     -0.0000     -0.0044       90.00
        19        -0.0050     -0.0045      0.0000     -0.0032       90.00
        20         4.6289     -4.6397      0.0172      0.0021       90.00
        21        -4.6411      4.6292      0.0185      0.0022       90.00
        22       -18.7536     18.7318      0.0076     -0.0047       90.00
        23        18.7362    -18.7502      0.0032     -0.0036       90.00
        24        15.8493    -15.8417     -0.0031      0.0015       90.00
        25       -15.8419     15.8488     -0.0001      0.0023       90.00
        26        -1.2205      1.2182      0.0028      0.0002       90.00
        27         1.2158     -1.2181      0.0024      0.0000       90.00
        28         0.0030     -0.0042      0.0001     -0.0003       90.00
        29         8.2019     -8.2204      0.0206      0.0007       90.00
        30        -8.2193      8.2026      0.0193      0.0009       90.00
        31         0.0213      0.0235     -0.0000      0.0150       90.00
        32       -11.7385     11.7467     -0.0042      0.0013       90.00
        33        11.7464    -11.7383     -0.0046      0.0012       90.00
        34        -0.0264      0.0237      0.0032      0.0002       90.00
        35         0.0234     -0.0261      0.0033      0.0002       90.00
        36        -0.4842      0.4724      0.0095     -0.0008       90.00
        37         0.4718     -0.4854      0.0116     -0.0007       90.00
        38        -0.0070     -0.0030      0.0000     -0.0033       90.00
        39         1.0987     -1.0998      0.0056      0.0015       90.00
        40        -1.0973      1.0963      0.0055      0.0015       90.00
        41        -0.0179     -0.0179     -0.0000     -0.0119       90.00
        42         0.0008      0.0014      0.0000      0.0007       90.00
        43        -4.2958      4.2981     -0.0139     -0.0039       90.00
        44         4.2992     -4.2970     -0.0133     -0.0037       90.00
        45         3.5390     -3.5324     -0.0066     -0.0000       90.00
        46        -3.5344      3.5403     -0.0060     -0.0001       90.00
        47         0.0010     -0.0010      0.0000     -0.0000       90.00
        48        -0.0021     -0.0021     -0.0000     -0.0014       90.00
        49        -2.2973      2.2982     -0.0014     -0.0002       90.00
        50         2.2985     -2.2973     -0.0016     -0.0002       90.00
        51        -0.0014     -0.0019      0.0000     -0.0011       90.00
        52         0.0114     -0.0081     -0.0026      0.0003       90.00
        53        -0.0089      0.0113     -0.0016      0.0003       90.00
        54         0.0000     -0.0001      0.0000     -0.0000       90.00
        55        -0.0966      0.0962      0.0004     -0.0000       90.00
        56         0.0959     -0.0963      0.0004     -0.0000       90.00
        57        -0.0035     -0.0035     -0.0000     -0.0023       90.00
        58         0.0012      0.0012      0.0000      0.0008       90.00
        59         0.3208     -0.2777     -0.0258      0.0058       90.00
        60        -0.2777      0.3211     -0.0260      0.0058       90.00
[...]
                86            87            88            89            90 
      1  -0.550635D+02 -0.549319D+02 -0.549186D+02 -0.548792D+02 -0.548625D+02
      2  -0.239127D+00  0.249512D-05 -0.658696D-05  0.718493D-05  0.159295D+00
      3  -0.440288D-02 -0.144299D-05  0.430681D-05  0.179417D-05  0.173646D-01
      4   0.725719D-05  0.475012D-01 -0.293189D+00  0.451190D-04  0.000000D+00
      5   0.381679D+00 -0.362458D-05  0.117311D-04 -0.112064D-04 -0.295989D+00
      6   0.702921D-02  0.337412D-05 -0.739499D-05 -0.367493D-05 -0.322727D-01
      7  -0.111661D-04 -0.409889D-01  0.518853D+00 -0.580813D-04  0.000000D+00
      8  -0.386666D-02 -0.520644D-05  0.667740D-05  0.120144D-04  0.249990D-01
      9   0.210501D+00  0.000000D+00  0.000000D+00  0.000000D+00 -0.228489D+00
     10  -0.343123D-05 -0.113034D-04  0.962970D-05  0.421385D+00  0.885983D-05
     11  -0.270300D+00  0.289019D+00 -0.140965D+00 -0.357243D-04 -0.213585D+00
     12   0.270312D+00  0.289011D+00 -0.140983D+00 -0.200719D-04  0.213630D+00
     13   0.408786D-05 -0.445653D-01 -0.595364D-01  0.541422D-04 -0.297668D-04
     14  -0.480931D+00  0.428262D-05 -0.580878D-05  0.492494D-05 -0.311178D+00
     15  -0.131089D-01 -0.119608D-04  0.713957D-05  0.197217D-04  0.756308D+00
     16  -0.209164D-03 -0.111406D-04  0.886875D-05  0.953696D-05  0.824398D-01
                91            92            93            94            95 
      1  -0.548625D+02 -0.547967D+02 -0.547967D+02 -0.547476D+02 -0.547283D+02
      2   0.173644D-01  0.788702D-01  0.187278D+00 -0.577631D-05 -0.969451D-03
      3  -0.159297D+00  0.187277D+00 -0.788697D-01 -0.767815D-05 -0.802243D-02
      4  -0.686592D-05 -0.744619D-05 -0.496799D-05 -0.122154D+00 -0.441216D-05
      5  -0.322726D-01 -0.150180D+00 -0.356600D+00  0.974667D-05 -0.265174D-02
      6   0.295992D+00 -0.356598D+00  0.150179D+00  0.125821D-04 -0.244454D-01
      7   0.113495D-04  0.133574D-04  0.914397D-05  0.204545D+00  0.826438D-05
      8  -0.228484D+00  0.943599D-01 -0.398041D-01 -0.211230D-05  0.176720D+00
      9  -0.249987D-01 -0.398011D-01 -0.943540D-01  0.208589D-05 -0.200275D-01
     10   0.183356D-04 -0.187187D-05  0.000000D+00 -0.288973D-04  0.000000D+00
     11   0.311160D+00  0.134205D+00  0.128023D-01  0.140075D+01 -0.654130D+00
     12  -0.311184D+00 -0.134169D+00 -0.127876D-01  0.140075D+01  0.654154D+00
     13   0.117364D-04  0.140353D-04  0.712224D-05  0.515820D+00  0.884559D-05
     14  -0.213628D+00 -0.127929D-01  0.134192D+00  0.000000D+00  0.261704D+00
     15   0.824308D-01 -0.204735D-01 -0.490552D-01 -0.203595D-04 -0.112324D-01
     16  -0.756291D+00 -0.490347D-01  0.204609D-01 -0.702255D-05 -0.100167D+00
                96            97            98            99           100 
      1  -0.547283D+02 -0.547094D+02 -0.546243D+02 -0.545990D+02 -0.545990D+02
      2   0.801838D-02  0.744432D-05 -0.180967D-04  0.194013D+00 -0.369155D-02
      3  -0.969338D-03  0.464788D-05  0.812744D-05 -0.369196D-02 -0.194015D+00
      4   0.112706D-05  0.342643D+00 -0.850786D-05 -0.452108D-05  0.156811D-05
      5   0.244515D-01 -0.147644D-04  0.267963D-04 -0.321576D+00  0.609938D-02
      6  -0.265187D-02 -0.916035D-05 -0.120486D-04  0.610017D-02  0.321582D+00
      7  -0.294429D-05 -0.666400D+00  0.189599D-04  0.759391D-05 -0.241686D-05
      8   0.200271D-01  0.365953D-05  0.769369D-05 -0.327975D-02 -0.169407D+00
      9   0.176717D+00 -0.205436D-05  0.242031D-04 -0.169410D+00  0.327994D-02
     10   0.643315D-05  0.475200D-05 -0.209502D+00 -0.254971D-04 -0.787017D-05
     11   0.261702D+00 -0.704881D+00 -0.477051D-04  0.229697D-01 -0.447673D-01
     12  -0.261708D+00 -0.704876D+00 -0.466399D-04 -0.229491D-01  0.447690D-01
     13  -0.763946D-05 -0.469026D+00  0.900414D-04 -0.192886D-04 -0.571140D-05
     14   0.654137D+00  0.000000D+00 -0.726077D-05  0.447706D-01  0.229373D-01
     15   0.100151D+00  0.502051D-05 -0.974511D-04  0.683273D+00 -0.130578D-01
     16  -0.112534D-01  0.132856D-05  0.443844D-04 -0.130591D-01 -0.683265D+00
               101           102           103           104           105 
      1  -0.545093D+02 -0.545093D+02 -0.544180D+02 -0.544148D+02 -0.544147D+02
      2  -0.883908D-02 -0.175627D+00  0.848748D-05 -0.122512D+00 -0.161721D-02
      3   0.175631D+00 -0.883966D-02  0.114093D-04  0.162231D-02 -0.122447D+00
      4  -0.146239D-05  0.325377D-05  0.982997D-01  0.473946D-05  0.102101D-04
      5   0.184055D-01  0.365724D+00 -0.161713D-04  0.239593D+00  0.316748D-02
      6  -0.365731D+00  0.184071D-01 -0.207827D-04 -0.317668D-02  0.239473D+00
      7   0.258958D-05 -0.641526D-05 -0.195544D+00 -0.982000D-05 -0.207108D-04
      8  -0.133261D+00  0.676826D-02 -0.104451D-04 -0.124108D-02  0.866403D-01
      9  -0.676865D-02 -0.133261D+00  0.610487D-05 -0.867449D-01 -0.123128D-02
     10   0.317831D-05  0.389218D-05  0.154048D-03 -0.422026D-03  0.263236D-03
     11  -0.124348D+00  0.749929D-01  0.590213D+00  0.611366D+00  0.117451D+01
     12   0.124344D+00 -0.749707D-01  0.590284D+00 -0.611347D+00 -0.117446D+01
     13  -0.215740D-05 -0.159669D-04 -0.957834D+00 -0.149362D-04 -0.425076D-04
     14   0.749647D-01  0.124349D+00  0.472115D-05  0.117447D+01 -0.611365D+00
     15   0.261633D-01  0.520385D+00 -0.284114D-04 -0.964575D-01 -0.108301D-02
     16  -0.520397D+00  0.261587D-01 -0.132139D-05  0.104125D-02 -0.964822D-01
               106           107           108           109           110 
      1  -0.544141D+02 -0.543992D+02 -0.543992D+02 -0.543802D+02 -0.543320D+02
      2  -0.121262D-03  0.262195D+00  0.147538D-01  0.850324D-05 -0.162866D+00
      3   0.868231D-04 -0.147527D-01  0.262231D+00  0.000000D+00 -0.824744D-02
      4   0.295286D-05 -0.707409D-05  0.233386D-05  0.423808D+00  0.254991D-05
      5   0.239891D-03 -0.487148D+00 -0.273996D-01 -0.153499D-04  0.337057D+00
      6  -0.170981D-03  0.273974D-01 -0.487219D+00  0.000000D+00  0.170626D-01
      7   0.000000D+00  0.135567D-04 -0.249450D-05 -0.745031D+00 -0.551265D-05
      8  -0.282314D-04  0.207311D-01 -0.366692D+00  0.323029D-05  0.207639D-02
      9  -0.360174D-04  0.366666D+00  0.207333D-01  0.000000D+00 -0.425227D-01
     10   0.306122D+00 -0.643877D-04  0.324153D-04 -0.354967D-03  0.556774D-05
     11   0.343191D-04  0.169663D-01  0.360373D-01 -0.632926D+00  0.626358D-01
     12   0.379950D-03 -0.169877D-01 -0.360893D-01 -0.632917D+00 -0.626155D-01
     13  -0.332296D-04  0.179726D-04  0.436018D-04  0.426717D+00 -0.230797D-04
     14   0.219462D-02  0.363631D-01 -0.168407D-01  0.290952D-05  0.103189D+00
     15  -0.184641D-03 -0.135524D+00 -0.761992D-02  0.157815D-04  0.349222D+00
     16   0.111747D-03  0.761853D-02 -0.135506D+00  0.192568D-05  0.178179D-01
               111           112           113           114           115 
      1  -0.543320D+02 -0.543177D+02 -0.542327D+02 -0.542327D+02 -0.541846D+02
      2  -0.824799D-02  0.556603D-05  0.839600D-02 -0.118707D+00  0.290281D-01
      3   0.162866D+00  0.000000D+00  0.118705D+00  0.839638D-02  0.593530D-01
      4   0.171850D-05  0.287357D+00 -0.131217D-05  0.272669D-05  0.620900D-05
      5   0.170636D-01 -0.112469D-04 -0.197023D-01  0.278756D+00 -0.595651D-01
      6  -0.337057D+00  0.117693D-05 -0.278749D+00 -0.197030D-01 -0.121806D+00
      7  -0.275388D-05 -0.576175D+00  0.246280D-05 -0.597517D-05 -0.126457D-04
      8  -0.425233D-01 -0.299215D-05 -0.372941D+00 -0.263658D-01 -0.262814D-01
      9  -0.207574D-02  0.184956D-05  0.263666D-01 -0.372951D+00  0.128806D-01
     10   0.367720D-05 -0.169721D-03  0.129307D-04  0.202236D-04  0.000000D+00
     11  -0.103200D+00  0.534740D+00  0.132609D+00 -0.595336D-01 -0.198877D+00
     12   0.103180D+00  0.534729D+00 -0.132631D+00  0.595685D-01  0.198867D+00
     13   0.177258D-04  0.127302D+01  0.991484D-05 -0.286091D-04  0.225765D-05
     14   0.626196D-01  0.265806D-05 -0.595752D-01 -0.132620D+00  0.761890D-02
     15   0.178221D-01  0.104529D-04 -0.540903D-01  0.768597D+00 -0.136008D+00
     16  -0.349223D+00  0.000000D+00 -0.768575D+00 -0.540856D-01 -0.278289D+00
               116           117           118           119           120 
      1  -0.541846D+02 -0.541337D+02 -0.541336D+02 -0.541336D+02 -0.541305D+02
      2   0.593472D-01 -0.631303D-02 -0.470193D-01 -0.209840D+00 -0.520859D-04
      3  -0.290260D-01  0.354021D-02 -0.209920D+00  0.469307D-01 -0.505770D-04
      4  -0.147229D-05 -0.403282D-04  0.103075D-04  0.109156D-04 -0.280850D-01
      5  -0.121796D+00  0.123865D-01  0.922709D-01  0.411724D+00  0.102382D-03
      6   0.595600D-01 -0.694601D-02  0.411881D+00 -0.920966D-01  0.994654D-04
      7   0.303363D-05  0.118781D-03 -0.224170D-04 -0.244595D-04  0.651982D-01
      8   0.128762D-01  0.585378D-03 -0.355329D-01  0.796563D-02 -0.112068D-04
      9   0.262870D-01  0.105824D-02  0.798028D-02  0.355114D-01  0.132719D-04
     10  -0.102602D-04 -0.575026D+00 -0.555566D-02  0.185335D-01  0.162815D-04
     11  -0.761561D-02  0.294682D-03  0.767177D+00  0.215012D+00 -0.358944D+00
     12   0.761199D-02  0.125948D-02 -0.766973D+00 -0.214941D+00 -0.359491D+00
     13   0.317147D-05  0.238967D-03 -0.302825D-03 -0.203588D-03  0.113120D+01
     14  -0.198845D+00  0.267947D-01 -0.214827D+00  0.766671D+00  0.777561D-04
     15  -0.278315D+00 -0.484082D-02 -0.361228D-01 -0.161167D+00 -0.257495D-04
     16   0.135998D+00  0.271987D-02 -0.161226D+00  0.360284D-01 -0.382958D-04
               121           122           123           124           125 
      1  -0.540708D+02 -0.540419D+02 -0.540418D+02 -0.540062D+02 -0.539792D+02
      2   0.112688D-04 -0.897516D-01 -0.232194D-02 -0.239952D-05  0.776429D-01
      3  -0.423442D-05 -0.232128D-02  0.897484D-01  0.349817D-05  0.706620D-02
      4   0.545157D-05  0.281522D-05 -0.148718D-05  0.322919D-04  0.000000D+00
      5  -0.265744D-04  0.204691D+00  0.528216D-02  0.565755D-05 -0.213787D+00
      6   0.102540D-04  0.528073D-02 -0.204683D+00 -0.945178D-05 -0.194642D-01
      7  -0.154718D-04 -0.633708D-05  0.289429D-05 -0.820281D-04  0.000000D+00
      8  -0.955577D-05 -0.784643D-02  0.305328D+00 -0.415725D-05 -0.589890D-02
      9  -0.395884D-04  0.305332D+00  0.784702D-02 -0.475711D-05  0.647132D-01
     10   0.530359D+00  0.545774D-04  0.175402D-04  0.592257D-01  0.702911D-05
     11  -0.747371D-04  0.243653D+00 -0.427225D+00 -0.112808D-03 -0.884685D-01
     12  -0.617089D-04 -0.243668D+00  0.427230D+00 -0.110764D-03  0.884488D-01
     13  -0.437464D-04  0.451710D-05  0.116199D-04 -0.416128D-03  0.932997D-05
     14  -0.309637D-04  0.427225D+00  0.243683D+00  0.468962D-05 -0.134119D+00
     15   0.714572D-04 -0.583290D+00 -0.150955D-01  0.100415D-04 -0.784089D+00
     16  -0.321523D-04 -0.151078D-01  0.583269D+00 -0.344533D-04 -0.718387D-01
               126           127           128           129           130 
      1  -0.539792D+02 -0.539593D+02 -0.538763D+02 -0.537893D+02 -0.537844D+02
      2  -0.706646D-02 -0.132324D-05 -0.298146D-05 -0.486474D-05  0.543434D-01
      3   0.776437D-01  0.880075D-05 -0.189471D-05 -0.187101D-05  0.293107D-02
      4  -0.174280D-04  0.986916D-01 -0.113510D+00 -0.232402D+00 -0.140023D-05
      5   0.194648D-01  0.387340D-05  0.530702D-05  0.107080D-04 -0.705652D-01
      6  -0.213788D+00 -0.237711D-04  0.331531D-05  0.480877D-05 -0.381489D-02
      7   0.402045D-04 -0.234050D+00  0.199193D+00  0.527868D+00  0.188839D-05
      8  -0.647163D-01 -0.688768D-05 -0.166927D-05  0.000000D+00 -0.911570D-02
      9  -0.590062D-02 -0.129877D-05  0.000000D+00  0.000000D+00  0.168706D+00
     10  -0.790306D-05 -0.226980D-03 -0.313388D-05  0.521392D-04  0.908716D-05
     11  -0.134071D+00 -0.259998D+00  0.302669D+00  0.176634D+00 -0.138813D+00
     12   0.134135D+00 -0.259957D+00  0.302656D+00  0.176624D+00  0.138817D+00
     13   0.229266D-04 -0.265766D+00 -0.287830D+00  0.990681D-02  0.276480D-05
     14   0.884291D-01  0.143683D-04  0.121231D-05  0.000000D+00 -0.228659D+00
     15   0.718456D-01  0.196162D-04 -0.108019D-04 -0.918788D-05  0.125169D+00
     16  -0.784104D+00 -0.735266D-04 -0.913147D-05  0.717334D-05  0.648800D-02
               131           132           133           134           135 
      1  -0.537844D+02 -0.536422D+02 -0.536422D+02 -0.536158D+02 -0.536158D+02
      2   0.293145D-02 -0.139559D-01 -0.390825D-01 -0.306343D-01 -0.908955D-01
      3  -0.543435D-01 -0.390799D-01  0.139514D-01 -0.908966D-01  0.306358D-01
      4   0.000000D+00  0.000000D+00  0.000000D+00  0.000000D+00  0.143025D-05
      5  -0.381594D-02  0.345601D-01  0.967770D-01  0.100776D+00  0.299020D+00
      6   0.705658D-01  0.967700D-01 -0.345467D-01  0.299021D+00 -0.100780D+00
      7  -0.147194D-05 -0.262441D-05  0.000000D+00  0.000000D+00 -0.509405D-05
      8   0.168708D+00  0.973767D-01 -0.346588D-01 -0.104149D+00  0.350602D-01
      9   0.911565D-02 -0.346569D-01 -0.973803D-01  0.350643D-01  0.104152D+00
     10   0.300575D-05 -0.512727D-05  0.957335D-05  0.175665D-05 -0.126836D-05
     11   0.228651D+00 -0.209372D+00 -0.317778D-01  0.402533D+00  0.682298D-01
     12  -0.228650D+00  0.209377D+00  0.317852D-01 -0.402532D+00 -0.682336D-01
     13  -0.103464D-04 -0.889983D-05 -0.626857D-05 -0.401504D-05  0.509044D-05
     14  -0.138816D+00  0.318126D-01 -0.209371D+00 -0.682421D-01  0.402523D+00
     15   0.648167D-02  0.590958D-01  0.166157D+00 -0.671638D-01 -0.199366D+00
     16  -0.125156D+00  0.166152D+00 -0.590959D-01 -0.199360D+00  0.671428D-01
               136           137           138           139           140 
      1  -0.534777D+02 -0.534777D+02 -0.533726D+02 -0.533197D+02 -0.532794D+02
      2  -0.391095D-03 -0.125670D+00  0.275110D-05 -0.420986D-05 -0.140756D+00
      3   0.125675D+00 -0.391210D-03  0.220681D-05  0.413463D-05  0.699408D-02
      4  -0.143148D-04  0.737477D-05  0.142757D+00 -0.103790D-04 -0.113335D-04
      5   0.116887D-02  0.374478D+00 -0.822280D-05  0.169361D-04  0.453098D+00
      6  -0.374490D+00  0.116905D-02 -0.752311D-05 -0.141076D-04 -0.225124D-01
      7   0.393979D-04 -0.207205D-04 -0.410852D+00  0.584798D-04  0.329049D-04
      8   0.213682D-01 -0.120625D-03 -0.396150D-05  0.000000D+00  0.787675D-02
      9   0.120749D-03  0.213674D-01  0.154884D-05  0.508916D-05  0.160370D+00
     10  -0.161729D-05  0.194030D-05  0.825342D-04 -0.236952D+00  0.155811D-04
     11   0.133312D+00 -0.722714D-01 -0.988335D-01  0.156304D-03 -0.929027D-01
     12  -0.133306D+00  0.722877D-01 -0.988655D-01  0.163196D-03  0.928871D-01
     13   0.324753D-04 -0.285700D-04 -0.159398D+00 -0.225729D-03  0.359056D-04
     14  -0.722913D-01 -0.133314D+00 -0.233186D-05 -0.332724D-04 -0.195688D+00
     15   0.151794D-02  0.460717D+00 -0.748116D-05  0.143431D-04  0.236603D+00
     16  -0.460717D+00  0.152113D-02 -0.286739D-04 -0.829769D-05 -0.118531D-01
               141           142           143           144           145 
      1  -0.532794D+02 -0.532598D+02 -0.532561D+02 -0.531912D+02 -0.531912D+02
      2  -0.699474D-02 -0.273570D-05  0.000000D+00  0.812489D-02 -0.958583D-01
      3  -0.140771D+00 -0.722628D-05  0.485309D-05  0.958448D-01  0.812458D-02
      4  -0.294988D-04  0.137223D+00 -0.201964D+00 -0.317246D-05  0.131559D-05
      5   0.225138D-01  0.909761D-05 -0.430125D-05 -0.205361D-01  0.242242D+00
      6   0.453136D+00  0.243873D-04 -0.186186D-04 -0.242196D+00 -0.205353D-01
      7   0.871435D-04 -0.414058D+00  0.606368D+00  0.989562D-05 -0.323518D-05
      8  -0.160383D+00 -0.757442D-05  0.863349D-05  0.934918D-01  0.804711D-02
      9   0.787777D-02  0.484055D-05 -0.558608D-05 -0.804656D-02  0.935081D-01
     10  -0.213007D-05 -0.257367D-03  0.243881D-03 -0.642860D-05 -0.117646D-04
     11  -0.195680D+00  0.168833D+00 -0.180307D+00 -0.172180D+00  0.746148D-01
     12   0.195631D+00  0.168876D+00 -0.180374D+00  0.172158D+00 -0.746131D-01
     13   0.100038D-03 -0.444395D+00  0.787962D+00  0.207319D-04  0.000000D+00
     14   0.928865D-01  0.168473D-05 -0.288918D-05  0.746296D-01  0.172142D+00
     15   0.118583D-01  0.261161D-05  0.480557D-05  0.672532D-02 -0.755403D-01
     16   0.236582D+00  0.223897D-04 -0.156378D-04  0.755617D-01  0.672091D-02
               146           147           148           149           150 
      1  -0.529390D+02 -0.529390D+02 -0.528591D+02 -0.528591D+02 -0.528219D+02
      2  -0.576193D-04  0.179572D-02  0.155103D+00  0.865215D-02 -0.142370D-05
      3  -0.179881D-02 -0.581053D-04  0.865185D-02 -0.155098D+00  0.000000D+00
      4   0.499304D-05 -0.155764D-05 -0.210209D-05  0.000000D+00 -0.966865D-01
      5   0.213605D-03 -0.216461D-01 -0.475321D+00 -0.265125D-01  0.473741D-05
      6   0.216552D-01  0.215059D-03 -0.265113D-01  0.475308D+00  0.157718D-05
      7  -0.165063D-04  0.553214D-05  0.621508D-05  0.000000D+00  0.320709D+00
      8  -0.973916D-02 -0.666550D-04  0.273944D-02 -0.517649D-01  0.000000D+00
      9   0.667636D-04 -0.973849D-02 -0.517663D-01 -0.273938D-02  0.000000D+00
     10   0.468194D-05  0.699368D-05  0.183008D-05  0.419355D-05  0.148268D-04
     11  -0.309998D-01  0.171839D-01 -0.124441D+00  0.204802D+00  0.811883D-01
     12   0.309823D-01 -0.171798D-01  0.124440D+00 -0.204808D+00  0.812015D-01
     13   0.515209D-05  0.000000D+00  0.232987D-05  0.000000D+00 -0.170290D+00
     14   0.171770D-01  0.309964D-01 -0.204801D+00 -0.124440D+00  0.000000D+00
     15  -0.277500D-03  0.233214D-01 -0.606352D-01 -0.336662D-02 -0.583841D-05
     16  -0.233289D-01 -0.277448D-03 -0.335849D-02  0.606328D-01 -0.171369D-05
               151           152           153           154           155 
      1  -0.526803D+02 -0.526573D+02 -0.526573D+02 -0.526484D+02 -0.523157D+02
      2  -0.378522D-04  0.147503D+00 -0.814528D-01 -0.396076D-04  0.679950D-01
      3   0.224434D-04  0.814529D-01  0.147503D+00 -0.462882D-04  0.375921D-02
      4   0.125712D-03  0.515434D-04  0.201735D-04  0.150322D+00  0.000000D+00
      5   0.127815D-03 -0.501504D+00  0.276912D+00  0.134826D-03 -0.230176D+00
      6  -0.757030D-04 -0.276913D+00 -0.501505D+00  0.157486D-03 -0.127221D-01
      7  -0.483181D-03 -0.172286D-03 -0.676626D-04 -0.503401D+00  0.325850D-05
      8   0.116716D-04  0.432952D-01  0.779891D-01 -0.247280D-04  0.182602D-02
      9   0.197680D-04 -0.779888D-01  0.432950D-01  0.220934D-04 -0.310124D-01
     10  -0.438834D-02 -0.166928D-05 -0.448024D-05  0.485731D-03  0.180037D-04
     11  -0.239204D-03 -0.288551D-01 -0.179077D-01 -0.133185D+00 -0.618793D-01
     12  -0.238870D-03  0.287496D-01  0.178798D-01 -0.133211D+00  0.618693D-01
     13   0.372826D-04 -0.861117D-04 -0.419314D-04 -0.272968D+00  0.729500D-05
     14   0.768068D-05 -0.179025D-01  0.287927D-01  0.445941D-05 -0.101644D+00
     15   0.934060D-04 -0.358398D+00  0.198002D+00  0.102396D-03 -0.209881D+00
     16  -0.548747D-04 -0.198005D+00 -0.358405D+00  0.115588D-03 -0.116368D-01
               156 
      1  -0.523157D+02
      2   0.375955D-02
      3  -0.679944D-01
      4   0.000000D+00
      5  -0.127235D-01
      6   0.230174D+00
      7   0.163183D-05
      8  -0.310129D-01
      9  -0.182620D-02
     10   0.124017D-04
     11   0.101643D+00
     12  -0.101638D+00
     13  -0.216698D-05
     14  -0.618663D-01
     15  -0.116389D-01
     16   0.209882D+00
 Unable to Open any file for archive entry.
 1\1\GINC-HEL12\SP\RPW91PW91 TD-FC\Gen\H3N1\SABYASACHI\21-Mar-2022\0\\#
 P TD(Nstates=10000) pw91pw91/Gen SCF(maxcycles=100) Int(Grid=ultrafine
 )\\xGDB7_00001_tier4.com\\0,1\N,0,0.000002,0.,0.110463\H,0,0.154111,0.
 929092,-0.257758\H,0,0.727563,-0.598011,-0.257757\H,0,-0.881687,-0.331
 078,-0.257728\\Version=EM64L-G16RevC.01\State=1-A\HF=-56.4961848\RMSD=
 4.443e-09\PG=C01 [X(H3N1)]\\@
 The archive entry for this job was punched.


 SOME PEOPLE TRY TO PULL THE WOOL OVER YOUR EYES
 USING THE WRONG YARN.
 Job cpu time:       0 days  0 hours  0 minutes 30.7 seconds.
 Elapsed time:       0 days  0 hours  0 minutes  4.1 seconds.
 File lengths (MBytes):  RWF=     15 Int=      0 D2E=      0 Chk=      9 Scr=      1
 Normal termination of Gaussian 16 at Mon Mar 21 20:11:01 2022.
