 Entering Gaussian System, Link 0=g16
 Input=000021.com
 Output=000021.log
 Initial command:
 /home/sabyasachi/g16/l1.exe "/scratch/sabyasachi/PBS_7976518.helios/Gau-160294.inp" -scrdir="/scratch/sabyasachi/PBS_7976518.helios/"
 Entering Link 1 = /home/sabyasachi/g16/l1.exe PID=    160295.
  
 Copyright (c) 1988-2019, Gaussian, Inc.  All Rights Reserved.
  
 This is part of the Gaussian(R) 16 program.  It is based on
 the Gaussian(R) 09 system (copyright 2009, Gaussian, Inc.),
 the Gaussian(R) 03 system (copyright 2003, Gaussian, Inc.),
 the Gaussian(R) 98 system (copyright 1998, Gaussian, Inc.),
 the Gaussian(R) 94 system (copyright 1995, Gaussian, Inc.),
 the Gaussian 92(TM) system (copyright 1992, Gaussian, Inc.),
 the Gaussian 90(TM) system (copyright 1990, Gaussian, Inc.),
 the Gaussian 88(TM) system (copyright 1988, Gaussian, Inc.),
 the Gaussian 86(TM) system (copyright 1986, Carnegie Mellon
 University), and the Gaussian 82(TM) system (copyright 1983,
 Carnegie Mellon University). Gaussian is a federally registered
 trademark of Gaussian, Inc.
  
 This software contains proprietary and confidential information,
 including trade secrets, belonging to Gaussian, Inc.
  
 This software is provided under written license and may be
 used, copied, transmitted, or stored only in accord with that
 written license.
  
 The following legend is applicable only to US Government
 contracts under FAR:
  
                    RESTRICTED RIGHTS LEGEND
  
 Use, reproduction and disclosure by the US Government is
 subject to restrictions as set forth in subparagraphs (a)
 and (c) of the Commercial Computer Software - Restricted
 Rights clause in FAR 52.227-19.
  
 Gaussian, Inc.
 340 Quinnipiac St., Bldg. 40, Wallingford CT 06492
  
  
 ---------------------------------------------------------------
 Warning -- This program may not be used in any manner that
 competes with the business of Gaussian, Inc. or will provide
 assistance to any competitor of Gaussian, Inc.  The licensee
 of this program is prohibited from giving any competitor of
 Gaussian, Inc. access to this program.  By using this program,
 the user acknowledges that Gaussian, Inc. is engaged in the
 business of creating and licensing software in the field of
 computational chemistry and represents and warrants to the
 licensee that it is not a competitor of Gaussian, Inc. and that
 it will not use this program in any manner prohibited above.
 ---------------------------------------------------------------
  

 Cite this work as:
 Gaussian 16, Revision C.01,
 M. J. Frisch, G. W. Trucks, H. B. Schlegel, G. E. Scuseria, 
 M. A. Robb, J. R. Cheeseman, G. Scalmani, V. Barone, 
 G. A. Petersson, H. Nakatsuji, X. Li, M. Caricato, A. V. Marenich, 
 J. Bloino, B. G. Janesko, R. Gomperts, B. Mennucci, H. P. Hratchian, 
 J. V. Ortiz, A. F. Izmaylov, J. L. Sonnenberg, D. Williams-Young, 
 F. Ding, F. Lipparini, F. Egidi, J. Goings, B. Peng, A. Petrone, 
 T. Henderson, D. Ranasinghe, V. G. Zakrzewski, J. Gao, N. Rega, 
 G. Zheng, W. Liang, M. Hada, M. Ehara, K. Toyota, R. Fukuda, 
 J. Hasegawa, M. Ishida, T. Nakajima, Y. Honda, O. Kitao, H. Nakai, 
 T. Vreven, K. Throssell, J. A. Montgomery, Jr., J. E. Peralta, 
 F. Ogliaro, M. J. Bearpark, J. J. Heyd, E. N. Brothers, K. N. Kudin, 
 V. N. Staroverov, T. A. Keith, R. Kobayashi, J. Normand, 
 K. Raghavachari, A. P. Rendell, J. C. Burant, S. S. Iyengar, 
 J. Tomasi, M. Cossi, J. M. Millam, M. Klene, C. Adamo, R. Cammi, 
 J. W. Ochterski, R. L. Martin, K. Morokuma, O. Farkas, 
 J. B. Foresman, and D. J. Fox, Gaussian, Inc., Wallingford CT, 2019.
 
 ******************************************
 Gaussian 16:  EM64L-G16RevC.01  3-Jul-2019
                21-Mar-2022 
 ******************************************
 %mem=64gb
 %nproc=8
 Will use up to    8 processors via shared memory.
 ----------------------------------------------------------------------
 #P TD(Nstates=10000) pw91pw91/Gen SCF(maxcycles=100) Int(Grid=ultrafin
 e)
 ----------------------------------------------------------------------
 1/38=1,172=1/1;
 2/12=2,17=6,18=5,40=1/2;
 3/5=7,11=9,25=1,30=1,74=608,75=-5/1,2,3,8;
 4//1;
 5/5=2,7=100,38=5/2;
 8/6=1,10=1,108=10000/1;
 9/41=10000,42=1,70=2/14;
 6/7=2,8=2,9=2,10=2/1;
 99/5=1,9=1/99;
 Leave Link    1 at Mon Mar 21 20:22:21 2022, MaxMem=  8589934592 cpu:               0.4 elap:               0.1
 (Enter /home/sabyasachi/g16/l101.exe)
 ---------------------
 xGDB7_00001_tier4.com
 ---------------------
 Symbolic Z-matrix:
 Charge =  0 Multiplicity = 1
 6                    -1.13157  -0.50439   0. 
 6                     0.        0.47222   0. 
 6                     1.28414   0.15079   0. 
 1                    -1.76745  -0.36278   0.8777 
 1                    -0.77012  -1.53346   0. 
 1                    -1.76745  -0.36278  -0.8777 
 1                    -0.27655   1.52347   0. 
 1                     1.60844  -0.88456   0. 
 1                     2.05775   0.90833   0. 
 
 ITRead=  0  0  0  0  0  0  0  0  0
 MicOpt= -1 -1 -1 -1 -1 -1 -1 -1 -1
 NAtoms=      9 NQM=        9 NQMF=       0 NMMI=      0 NMMIF=      0
                NMic=       0 NMicF=      0.
                    Isotopes and Nuclear Properties:
 (Nuclear quadrupole moments (NQMom) in fm**2, nuclear magnetic moments (NMagM)
  in nuclear magnetons)

  Atom         1           2           3           4           5           6           7           8           9
 IAtWgt=          12          12          12           1           1           1           1           1           1
 AtmWgt=  12.0000000  12.0000000  12.0000000   1.0078250   1.0078250   1.0078250   1.0078250   1.0078250   1.0078250
 NucSpn=           0           0           0           1           1           1           1           1           1
 AtZEff=  -0.0000000  -0.0000000  -0.0000000  -0.0000000  -0.0000000  -0.0000000  -0.0000000  -0.0000000  -0.0000000
 NQMom=    0.0000000   0.0000000   0.0000000   0.0000000   0.0000000   0.0000000   0.0000000   0.0000000   0.0000000
 NMagM=    0.0000000   0.0000000   0.0000000   2.7928460   2.7928460   2.7928460   2.7928460   2.7928460   2.7928460
 AtZNuc=   6.0000000   6.0000000   6.0000000   1.0000000   1.0000000   1.0000000   1.0000000   1.0000000   1.0000000
 Leave Link  101 at Mon Mar 21 20:22:21 2022, MaxMem=  8589934592 cpu:               0.6 elap:               0.1
 (Enter /home/sabyasachi/g16/l202.exe)
                          Input orientation:                          
 ---------------------------------------------------------------------
 Center     Atomic      Atomic             Coordinates (Angstroms)
 Number     Number       Type             X           Y           Z
 ---------------------------------------------------------------------
      1          6           0       -1.131573   -0.504386    0.000000
      2          6           0        0.000000    0.472223    0.000000
      3          6           0        1.284136    0.150792    0.000000
      4          1           0       -1.767446   -0.362775    0.877699
      5          1           0       -0.770123   -1.533458    0.000000
      6          1           0       -1.767446   -0.362775   -0.877699
      7          1           0       -0.276551    1.523465    0.000000
      8          1           0        1.608435   -0.884556    0.000000
      9          1           0        2.057749    0.908326    0.000000
 ---------------------------------------------------------------------
                    Distance matrix (angstroms):
                    1          2          3          4          5
     1  C    0.000000
     2  C    1.494732   0.000000
     3  C    2.502980   1.323753   0.000000
     4  H    1.093043   2.142765   3.216560   0.000000
     5  H    1.090704   2.148452   2.656441   1.770736   0.000000
     6  H    1.093043   2.142765   3.216560   1.755398   1.770736
     7  H    2.200737   1.087010   2.078455   2.559497   3.096513
     8  H    2.766256   2.104261   1.084949   3.526923   2.465484
     9  H    3.488199   2.103454   1.082744   4.125308   3.736197
                    6          7          8          9
     6  H    0.000000
     7  H    2.559497   0.000000
     8  H    3.526923   3.058061   0.000000
     9  H    4.125308   2.413991   1.848326   0.000000
 Stoichiometry    C3H6
 Framework group  CS[SG(C3H4),X(H2)]
 Deg. of freedom    14
 Full point group                 CS      NOp   2
 Largest Abelian subgroup         CS      NOp   2
 Largest concise Abelian subgroup CS      NOp   2
                         Standard orientation:                         
 ---------------------------------------------------------------------
 Center     Atomic      Atomic             Coordinates (Angstroms)
 Number     Number       Type             X           Y           Z
 ---------------------------------------------------------------------
      1          6           0       -1.131573   -0.504386    0.000000
      2          6           0        0.000000    0.472223    0.000000
      3          6           0        1.284136    0.150792    0.000000
      4          1           0       -1.767446   -0.362776    0.877699
      5          1           0       -0.770122   -1.533458    0.000000
      6          1           0       -1.767446   -0.362776   -0.877699
      7          1           0       -0.276551    1.523465    0.000000
      8          1           0        1.608435   -0.884555    0.000000
      9          1           0        2.057749    0.908327    0.000000
 ---------------------------------------------------------------------
 Rotational constants (GHZ):          47.1476739           9.3674147           8.2089652
 Leave Link  202 at Mon Mar 21 20:22:21 2022, MaxMem=  8589934592 cpu:               0.1 elap:               0.0
 (Enter /home/sabyasachi/g16/l301.exe)
 General basis read from cards:  (5D, 7F)
 Centers:       4      5      6      7      8      9
 S 3 1.00
     Exponent=  1.3010701000D+01 Coefficients=  1.9682158000D-02
     Exponent=  1.9622572000D+00 Coefficients=  1.3796524000D-01
     Exponent=  4.4453796000D-01 Coefficients=  4.7831935000D-01
 S 1 1.00
     Exponent=  1.2194962000D-01 Coefficients=  1.0000000000D+00
 P 1 1.00
     Exponent=  8.0000000000D-01 Coefficients=  1.0000000000D+00
 P 1 1.00
     Exponent=  1.1704099050D-01 Coefficients=  1.0000000000D+00
 ****
 Centers:       1      2      3
 S 5 1.00
     Exponent=  1.2384016938D+03 Coefficients=  5.4568832082D-03
     Exponent=  1.8629004992D+02 Coefficients=  4.0638409211D-02
     Exponent=  4.2251176346D+01 Coefficients=  1.8025593888D-01
     Exponent=  1.1676557932D+01 Coefficients=  4.6315121755D-01
     Exponent=  3.5930506482D+00 Coefficients=  4.4087173314D-01
 S 1 1.00
     Exponent=  4.0245147363D-01 Coefficients=  1.0000000000D+00
 S 1 1.00
     Exponent=  1.3090182668D-01 Coefficients=  1.0000000000D+00
 S 1 1.00
     Exponent=  6.7053540256D-02 Coefficients=  1.0000000000D+00
 P 3 1.00
     Exponent=  9.4680970621D+00 Coefficients=  3.8387871728D-02
     Exponent=  2.0103545142D+00 Coefficients=  2.1117025112D-01
     Exponent=  5.4771004707D-01 Coefficients=  5.1328172114D-01
 P 1 1.00
     Exponent=  1.5268613795D-01 Coefficients=  1.0000000000D+00
 D 1 1.00
     Exponent=  8.0000000000D-01 Coefficients=  1.0000000000D+00
 D 1 1.00
     Exponent=  1.1713185140D-01 Coefficients=  1.0000000000D+00
 ****
 Ernie: Thresh=  0.10000D-02 Tol=  0.10000D-05 Strict=F.
 There are    80 symmetry adapted cartesian basis functions of A'  symmetry.
 There are    34 symmetry adapted cartesian basis functions of A"  symmetry.
 There are    74 symmetry adapted basis functions of A'  symmetry.
 There are    34 symmetry adapted basis functions of A"  symmetry.
   108 basis functions,   156 primitive gaussians,   114 cartesian basis functions
    12 alpha electrons       12 beta electrons
       nuclear repulsion energy        70.9801488057 Hartrees.
 IExCor=  608 DFT=T Ex=PW91 Corr=PW91 ExCW=0 ScaHFX=  0.000000
 ScaDFX=  1.000000  1.000000  1.000000  1.000000 ScalE2=  1.000000  1.000000
 IRadAn=      5 IRanWt=     -1 IRanGd=            0 ICorTp=0 IEmpDi=  4
 NAtoms=    9 NActive=    9 NUniq=    8 SFac= 1.27D+00 NAtFMM=   60 NAOKFM=F Big=F
 Integral buffers will be    131072 words long.
 Regular integral format.
 Two-electron integral symmetry is turned on.
 Leave Link  301 at Mon Mar 21 20:22:21 2022, MaxMem=  8589934592 cpu:               0.5 elap:               0.1
 (Enter /home/sabyasachi/g16/l302.exe)
 NPDir=0 NMtPBC=     1 NCelOv=     1 NCel=       1 NClECP=     1 NCelD=      1
         NCelK=      1 NCelE2=     1 NClLst=     1 CellRange=     0.0.
 One-electron integrals computed using PRISM.
 One-electron integral symmetry used in STVInt
 NBasis=   108 RedAO= T EigKep=  8.08D-05  NBF=    74    34
 NBsUse=   108 1.00D-06 EigRej= -1.00D+00 NBFU=    74    34
 Precomputing XC quadrature grid using
 IXCGrd= 4 IRadAn=           5 IRanWt=          -1 IRanGd=           0 AccXCQ= 0.00D+00.
 Generated NRdTot=       0 NPtTot=           0 NUsed=           0 NTot=          32
 NSgBfM=   114   114   114   114   114 MxSgAt=     9 MxSgA2=     9.
 Leave Link  302 at Mon Mar 21 20:22:21 2022, MaxMem=  8589934592 cpu:               1.1 elap:               0.2
 (Enter /home/sabyasachi/g16/l303.exe)
 DipDrv:  MaxL=1.
 Leave Link  303 at Mon Mar 21 20:22:21 2022, MaxMem=  8589934592 cpu:               0.2 elap:               0.0
 (Enter /home/sabyasachi/g16/l308.exe)
 Leave Link  308 at Mon Mar 21 20:22:21 2022, MaxMem=  8589934592 cpu:               0.2 elap:               0.1
 (Enter /home/sabyasachi/g16/l401.exe)
 ExpMin= 6.71D-02 ExpMax= 1.24D+03 ExpMxC= 1.86D+02 IAcc=3 IRadAn=         5 AccDes= 0.00D+00
 Harris functional with IExCor=  608 and IRadAn=       5 diagonalized for initial guess.
 HarFok:  IExCor=  608 AccDes= 0.00D+00 IRadAn=         5 IDoV= 1 UseB2=F ITyADJ=14
 ICtDFT=  3500011 ScaDFX=  1.000000  1.000000  1.000000  1.000000
 FoFCou: FMM=F IPFlag=           0 FMFlag=      100000 FMFlg1=           0
         NFxFlg=           0 DoJE=T BraDBF=F KetDBF=T FulRan=T
         wScrn=  0.000000 ICntrl=       500 IOpCl=  0 I1Cent=   200000004 NGrid=           0
         NMat0=    1 NMatS0=      1 NMatT0=    0 NMatD0=    1 NMtDS0=    0 NMtDT0=    0
 Petite list used in FoFCou.
 Harris En= -117.874628463113    
 JPrj=0 DoOrth=F DoCkMO=F.
 Initial guess orbital symmetries:
       Occupied  (A') (A') (A') (A') (A') (A') (A') (A') (A") (A')
                 (A') (A")
       Virtual   (A") (A') (A') (A') (A') (A") (A') (A') (A') (A")
                 (A') (A") (A') (A') (A') (A") (A") (A') (A') (A")
                 (A') (A') (A') (A") (A') (A') (A") (A") (A') (A')
                 (A') (A') (A") (A') (A') (A') (A') (A") (A') (A")
                 (A") (A') (A') (A") (A') (A") (A') (A') (A") (A')
                 (A') (A') (A") (A') (A') (A") (A') (A') (A') (A')
                 (A') (A') (A') (A") (A") (A") (A") (A") (A') (A')
                 (A') (A") (A') (A') (A") (A') (A') (A") (A') (A")
                 (A') (A') (A') (A") (A") (A') (A') (A') (A") (A')
                 (A') (A') (A") (A') (A') (A')
 The electronic state of the initial guess is 1-A'.
 Leave Link  401 at Mon Mar 21 20:22:22 2022, MaxMem=  8589934592 cpu:               2.4 elap:               0.3
 (Enter /home/sabyasachi/g16/l502.exe)
 Keep J ints in memory in symmetry-blocked form, NReq=26186371.
 FoFCou: FMM=F IPFlag=           0 FMFlag=           0 FMFlg1=           0
         NFxFlg=           0 DoJE=F BraDBF=F KetDBF=F FulRan=T
         wScrn=  0.000000 ICntrl=       600 IOpCl=  0 I1Cent=           0 NGrid=           0
         NMat0=    1 NMatS0=   5886 NMatT0=    0 NMatD0=    1 NMtDS0=    0 NMtDT0=    0
 Petite list used in FoFCou.
 Closed shell SCF:
 Using DIIS extrapolation, IDIIS=  1040.
 NGot=  8589934592 LenX=  8581046321 LenY=  8581032884
 Requested convergence on RMS density matrix=1.00D-08 within 100 cycles.
 Requested convergence on MAX density matrix=1.00D-06.
 Requested convergence on             energy=1.00D-06.
 No special actions if energy rises.
 Integral accuracy reduced to 1.0D-05 until final iterations.

 Cycle   1  Pass 0  IDiag  1:
 E= -117.643361095471    
 DIIS: error= 3.23D-02 at cycle   1 NSaved=   1.
 NSaved= 1 IEnMin= 1 EnMin= -117.643361095471     IErMin= 1 ErrMin= 3.23D-02
 ErrMax= 3.23D-02  0.00D+00 EMaxC= 1.00D-01 BMatC= 1.01D-01 BMatP= 1.01D-01
 IDIUse=3 WtCom= 6.77D-01 WtEn= 3.23D-01
 Coeff-Com:  0.100D+01
 Coeff-En:   0.100D+01
 Coeff:      0.100D+01
 Gap=     0.143 Goal=   None    Shift=    0.000
 GapD=    0.143 DampG=1.000 DampE=0.500 DampFc=0.5000 IDamp=-1.
 Damping current iteration by 5.00D-01
 RMSDP=9.65D-03 MaxDP=1.62D-01              OVMax= 2.14D-01

 Cycle   2  Pass 0  IDiag  1:
 E= -117.680420567384     Delta-E=       -0.037059471912 Rises=F Damp=T
 DIIS: error= 8.83D-03 at cycle   2 NSaved=   2.
 NSaved= 2 IEnMin= 2 EnMin= -117.680420567384     IErMin= 2 ErrMin= 8.83D-03
 ErrMax= 8.83D-03  0.00D+00 EMaxC= 1.00D-01 BMatC= 7.15D-03 BMatP= 1.01D-01
 IDIUse=3 WtCom= 9.12D-01 WtEn= 8.83D-02
 Coeff-Com:  0.189D+00 0.811D+00
 Coeff-En:   0.325D+00 0.675D+00
 Coeff:      0.201D+00 0.799D+00
 Gap=     0.217 Goal=   None    Shift=    0.000
 RMSDP=2.16D-03 MaxDP=3.75D-02 DE=-3.71D-02 OVMax= 1.33D-01

 Cycle   3  Pass 0  IDiag  1:
 E= -117.762971663323     Delta-E=       -0.082551095939 Rises=F Damp=F
 DIIS: error= 2.77D-03 at cycle   3 NSaved=   3.
 NSaved= 3 IEnMin= 3 EnMin= -117.762971663323     IErMin= 3 ErrMin= 2.77D-03
 ErrMax= 2.77D-03  0.00D+00 EMaxC= 1.00D-01 BMatC= 5.52D-04 BMatP= 7.15D-03
 IDIUse=3 WtCom= 9.72D-01 WtEn= 2.77D-02
 Coeff-Com:  0.517D-01 0.265D+00 0.683D+00
 Coeff-En:   0.000D+00 0.000D+00 0.100D+01
 Coeff:      0.503D-01 0.258D+00 0.692D+00
 Gap=     0.209 Goal=   None    Shift=    0.000
 RMSDP=6.92D-04 MaxDP=9.49D-03 DE=-8.26D-02 OVMax= 1.80D-02

 Cycle   4  Pass 0  IDiag  1:
 E= -117.763139270094     Delta-E=       -0.000167606771 Rises=F Damp=F
 DIIS: error= 2.29D-03 at cycle   4 NSaved=   4.
 NSaved= 4 IEnMin= 4 EnMin= -117.763139270094     IErMin= 4 ErrMin= 2.29D-03
 ErrMax= 2.29D-03  0.00D+00 EMaxC= 1.00D-01 BMatC= 4.01D-04 BMatP= 5.52D-04
 IDIUse=3 WtCom= 9.77D-01 WtEn= 2.29D-02
 Coeff-Com:  0.165D-01 0.109D+00 0.456D+00 0.419D+00
 Coeff-En:   0.000D+00 0.000D+00 0.422D+00 0.578D+00
 Coeff:      0.161D-01 0.106D+00 0.455D+00 0.422D+00
 Gap=     0.208 Goal=   None    Shift=    0.000
 RMSDP=2.54D-04 MaxDP=8.41D-03 DE=-1.68D-04 OVMax= 1.71D-02

 Cycle   5  Pass 0  IDiag  1:
 E= -117.763496575261     Delta-E=       -0.000357305167 Rises=F Damp=F
 DIIS: error= 8.46D-04 at cycle   5 NSaved=   5.
 NSaved= 5 IEnMin= 5 EnMin= -117.763496575261     IErMin= 5 ErrMin= 8.46D-04
 ErrMax= 8.46D-04  0.00D+00 EMaxC= 1.00D-01 BMatC= 6.20D-05 BMatP= 4.01D-04
 IDIUse=3 WtCom= 9.92D-01 WtEn= 8.46D-03
 Coeff-Com:  0.889D-03 0.218D-01 0.170D+00 0.302D+00 0.505D+00
 Coeff-En:   0.000D+00 0.000D+00 0.000D+00 0.187D+00 0.813D+00
 Coeff:      0.882D-03 0.216D-01 0.168D+00 0.301D+00 0.508D+00
 Gap=     0.208 Goal=   None    Shift=    0.000
 RMSDP=1.23D-04 MaxDP=2.62D-03 DE=-3.57D-04 OVMax= 5.68D-03

 Cycle   6  Pass 0  IDiag  1:
 E= -117.763567623159     Delta-E=       -0.000071047898 Rises=F Damp=F
 DIIS: error= 1.35D-04 at cycle   6 NSaved=   6.
 NSaved= 6 IEnMin= 6 EnMin= -117.763567623159     IErMin= 6 ErrMin= 1.35D-04
 ErrMax= 1.35D-04  0.00D+00 EMaxC= 1.00D-01 BMatC= 1.79D-06 BMatP= 6.20D-05
 IDIUse=3 WtCom= 9.99D-01 WtEn= 1.35D-03
 Coeff-Com: -0.413D-03 0.517D-02 0.653D-01 0.137D+00 0.272D+00 0.520D+00
 Coeff-En:   0.000D+00 0.000D+00 0.000D+00 0.000D+00 0.000D+00 0.100D+01
 Coeff:     -0.413D-03 0.516D-02 0.652D-01 0.137D+00 0.272D+00 0.521D+00
 Gap=     0.208 Goal=   None    Shift=    0.000
 RMSDP=2.46D-05 MaxDP=4.20D-04 DE=-7.10D-05 OVMax= 4.76D-04

 Cycle   7  Pass 0  IDiag  1:
 E= -117.763569468482     Delta-E=       -0.000001845323 Rises=F Damp=F
 DIIS: error= 2.23D-05 at cycle   7 NSaved=   7.
 NSaved= 7 IEnMin= 7 EnMin= -117.763569468482     IErMin= 7 ErrMin= 2.23D-05
 ErrMax= 2.23D-05  0.00D+00 EMaxC= 1.00D-01 BMatC= 9.30D-08 BMatP= 1.79D-06
 IDIUse=1 WtCom= 1.00D+00 WtEn= 0.00D+00
 Coeff-Com: -0.146D-03 0.490D-03 0.147D-01 0.358D-01 0.804D-01 0.241D+00
 Coeff-Com:  0.627D+00
 Coeff:     -0.146D-03 0.490D-03 0.147D-01 0.358D-01 0.804D-01 0.241D+00
 Coeff:      0.627D+00
 Gap=     0.208 Goal=   None    Shift=    0.000
 RMSDP=6.94D-06 MaxDP=1.02D-04 DE=-1.85D-06 OVMax= 1.01D-04

 Initial convergence to 1.0D-05 achieved.  Increase integral accuracy.
 Cycle   8  Pass 1  IDiag  1:
 E= -117.763569783057     Delta-E=       -0.000000314575 Rises=F Damp=F
 DIIS: error= 6.94D-06 at cycle   1 NSaved=   1.
 NSaved= 1 IEnMin= 1 EnMin= -117.763569783057     IErMin= 1 ErrMin= 6.94D-06
 ErrMax= 6.94D-06  0.00D+00 EMaxC= 1.00D-01 BMatC= 4.85D-09 BMatP= 4.85D-09
 IDIUse=1 WtCom= 1.00D+00 WtEn= 0.00D+00
 Coeff-Com:  0.100D+01
 Coeff:      0.100D+01
 Gap=     0.208 Goal=   None    Shift=    0.000
 RMSDP=6.94D-06 MaxDP=1.02D-04 DE=-3.15D-07 OVMax= 5.91D-05

 Cycle   9  Pass 1  IDiag  1:
 E= -117.763569784225     Delta-E=       -0.000000001168 Rises=F Damp=F
 DIIS: error= 6.86D-06 at cycle   2 NSaved=   2.
 NSaved= 2 IEnMin= 2 EnMin= -117.763569784225     IErMin= 2 ErrMin= 6.86D-06
 ErrMax= 6.86D-06  0.00D+00 EMaxC= 1.00D-01 BMatC= 5.38D-09 BMatP= 4.85D-09
 IDIUse=1 WtCom= 1.00D+00 WtEn= 0.00D+00
 Coeff-Com:  0.515D+00 0.485D+00
 Coeff:      0.515D+00 0.485D+00
 Gap=     0.208 Goal=   None    Shift=    0.000
 RMSDP=1.47D-06 MaxDP=2.46D-05 DE=-1.17D-09 OVMax= 5.21D-05

 Cycle  10  Pass 1  IDiag  1:
 E= -117.763569789198     Delta-E=       -0.000000004974 Rises=F Damp=F
 DIIS: error= 3.69D-06 at cycle   3 NSaved=   3.
 NSaved= 3 IEnMin= 3 EnMin= -117.763569789198     IErMin= 3 ErrMin= 3.69D-06
 ErrMax= 3.69D-06  0.00D+00 EMaxC= 1.00D-01 BMatC= 1.19D-09 BMatP= 4.85D-09
 IDIUse=1 WtCom= 1.00D+00 WtEn= 0.00D+00
 Coeff-Com:  0.209D+00 0.321D+00 0.470D+00
 Coeff:      0.209D+00 0.321D+00 0.470D+00
 Gap=     0.208 Goal=   None    Shift=    0.000
 RMSDP=4.13D-07 MaxDP=1.44D-05 DE=-4.97D-09 OVMax= 2.97D-05

 Cycle  11  Pass 1  IDiag  1:
 E= -117.763569790230     Delta-E=       -0.000000001032 Rises=F Damp=F
 DIIS: error= 1.78D-06 at cycle   4 NSaved=   4.
 NSaved= 4 IEnMin= 4 EnMin= -117.763569790230     IErMin= 4 ErrMin= 1.78D-06
 ErrMax= 1.78D-06  0.00D+00 EMaxC= 1.00D-01 BMatC= 2.31D-10 BMatP= 1.19D-09
 IDIUse=1 WtCom= 1.00D+00 WtEn= 0.00D+00
 Coeff-Com:  0.419D-01 0.130D+00 0.331D+00 0.498D+00
 Coeff:      0.419D-01 0.130D+00 0.331D+00 0.498D+00
 Gap=     0.208 Goal=   None    Shift=    0.000
 RMSDP=2.06D-07 MaxDP=4.40D-06 DE=-1.03D-09 OVMax= 9.46D-06

 Cycle  12  Pass 1  IDiag  1:
 E= -117.763569790471     Delta-E=       -0.000000000240 Rises=F Damp=F
 DIIS: error= 3.74D-07 at cycle   5 NSaved=   5.
 NSaved= 5 IEnMin= 5 EnMin= -117.763569790471     IErMin= 5 ErrMin= 3.74D-07
 ErrMax= 3.74D-07  0.00D+00 EMaxC= 1.00D-01 BMatC= 1.31D-11 BMatP= 2.31D-10
 IDIUse=1 WtCom= 1.00D+00 WtEn= 0.00D+00
 Coeff-Com: -0.115D-03 0.373D-01 0.127D+00 0.272D+00 0.563D+00
 Coeff:     -0.115D-03 0.373D-01 0.127D+00 0.272D+00 0.563D+00
 Gap=     0.208 Goal=   None    Shift=    0.000
 RMSDP=7.09D-08 MaxDP=1.37D-06 DE=-2.40D-10 OVMax= 1.37D-06

 Cycle  13  Pass 1  IDiag  1:
 E= -117.763569790485     Delta-E=       -0.000000000014 Rises=F Damp=F
 DIIS: error= 3.74D-08 at cycle   6 NSaved=   6.
 NSaved= 6 IEnMin= 6 EnMin= -117.763569790485     IErMin= 6 ErrMin= 3.74D-08
 ErrMax= 3.74D-08  0.00D+00 EMaxC= 1.00D-01 BMatC= 1.64D-13 BMatP= 1.31D-11
 IDIUse=1 WtCom= 1.00D+00 WtEn= 0.00D+00
 Coeff-Com: -0.107D-02 0.110D-01 0.402D-01 0.880D-01 0.220D+00 0.642D+00
 Coeff:     -0.107D-02 0.110D-01 0.402D-01 0.880D-01 0.220D+00 0.642D+00
 Gap=     0.208 Goal=   None    Shift=    0.000
 RMSDP=1.10D-08 MaxDP=1.45D-07 DE=-1.38D-11 OVMax= 1.27D-07

 Cycle  14  Pass 1  IDiag  1:
 E= -117.763569790485     Delta-E=       -0.000000000000 Rises=F Damp=F
 DIIS: error= 7.23D-09 at cycle   7 NSaved=   7.
 NSaved= 7 IEnMin= 7 EnMin= -117.763569790485     IErMin= 7 ErrMin= 7.23D-09
 ErrMax= 7.23D-09  0.00D+00 EMaxC= 1.00D-01 BMatC= 3.92D-15 BMatP= 1.64D-13
 IDIUse=1 WtCom= 1.00D+00 WtEn= 0.00D+00
 Coeff-Com: -0.261D-03 0.240D-02 0.886D-02 0.189D-01 0.533D-01 0.206D+00
 Coeff-Com:  0.711D+00
 Coeff:     -0.261D-03 0.240D-02 0.886D-02 0.189D-01 0.533D-01 0.206D+00
 Coeff:      0.711D+00
 Gap=     0.208 Goal=   None    Shift=    0.000
 RMSDP=1.64D-09 MaxDP=2.22D-08 DE=-4.55D-13 OVMax= 2.99D-08

 SCF Done:  E(RPW91-PW91) =  -117.763569790     A.U. after   14 cycles
            NFock= 14  Conv=0.16D-08     -V/T= 2.0123
 KE= 1.163325215253D+02 PE=-4.135110063991D+02 EE= 1.084347662776D+02
 Leave Link  502 at Mon Mar 21 20:22:24 2022, MaxMem=  8589934592 cpu:              17.1 elap:               2.2
 (Enter /home/sabyasachi/g16/l801.exe)
 DoSCS=F DFT=T ScalE2(SS,OS)=  1.000000  1.000000
 ExpMin= 6.71D-02 ExpMax= 1.24D+03 ExpMxC= 1.86D+02 IAcc=3 IRadAn=         5 AccDes= 0.00D+00
 HarFok:  IExCor=  205 AccDes= 0.00D+00 IRadAn=         5 IDoV=-2 UseB2=F ITyADJ=14
 ICtDFT= 12500011 ScaDFX=  1.000000  1.000000  1.000000  1.000000
 Largest valence mixing into a core orbital is  6.59D-05
 Largest core mixing into a valence orbital is  1.50D-05
 Range of M.O.s used for correlation:     4   108
 NBasis=   108 NAE=    12 NBE=    12 NFC=     3 NFV=     0
 NROrb=    105 NOA=     9 NOB=     9 NVA=    96 NVB=    96

 **** Warning!!: The largest alpha MO coefficient is  0.43984934D+02

 Leave Link  801 at Mon Mar 21 20:22:24 2022, MaxMem=  8589934592 cpu:               0.5 elap:               0.1
 (Enter /home/sabyasachi/g16/l914.exe)
 RHF ground state
 Keep J ints in memory in symmetry-blocked form, NReq=917743223.
 FoFCou: FMM=F IPFlag=           0 FMFlag=           0 FMFlg1=           0
         NFxFlg=           0 DoJE=F BraDBF=F KetDBF=F FulRan=T
         wScrn=  0.000000 ICntrl=       600 IOpCl=  0 I1Cent=           0 NGrid=           0
         NMat0=    1 NMatS0=   5886 NMatT0=    0 NMatD0=    1 NMtDS0=    0 NMtDT0=    0
 Petite list used in FoFCou.
 MDV=  8589934592 DFT=T DoStab=F Mixed=F DoRPA=T DoScal=T NonHer=F
 Making orbital integer symmetry assigments:
 Orbital symmetries:
       Occupied  (A') (A') (A') (A') (A') (A') (A') (A') (A") (A')
                 (A') (A")
       Virtual   (A") (A') (A') (A') (A') (A") (A') (A') (A") (A')
                 (A') (A") (A') (A") (A') (A') (A") (A') (A") (A')
                 (A') (A') (A") (A') (A') (A") (A') (A") (A') (A')
                 (A') (A") (A') (A') (A') (A') (A") (A') (A") (A')
                 (A") (A') (A') (A") (A') (A") (A') (A') (A") (A')
                 (A') (A') (A") (A') (A') (A") (A') (A') (A') (A')
                 (A') (A') (A') (A") (A") (A") (A") (A") (A') (A')
                 (A') (A") (A') (A') (A") (A') (A') (A") (A') (A")
                 (A') (A') (A') (A") (A") (A') (A') (A') (A") (A')
                 (A') (A') (A") (A') (A') (A')
   864 initial guesses have been made.
 Convergence on wavefunction:    0.001000000000000
 Davidson Disk Diagonalization:  ConvIn= 1.00D-03 SkipCon=T Conv= 1.00D-03.
 Max sub-space:  3456 roots to seek:  1728 dimension of matrix:         1728
 *** WARNING: Number of orthogonal guesses is          864
 Iteration     1 Dimension   864 NMult     0 NNew    864
 CISAX will form   864 AO SS matrices at one time.
 NMat=   864 NSing=   864 JSym2X=-1.
 New state      1 was old state      2
 New state      2 was old state      3
 New state      3 was old state      4
 New state      4 was old state      1
 New state     13 was old state     14
 New state     14 was old state     13
 New state     15 was old state     16
 New state     16 was old state     17
 New state     17 was old state     15
 New state     18 was old state     19
 New state     19 was old state     20
 New state     20 was old state     18
 New state     23 was old state     24
 New state     24 was old state     25
 New state     25 was old state     23
 New state     29 was old state     30
 New state     30 was old state     29
 New state     31 was old state     32
 New state     32 was old state     31
 New state     33 was old state     35
 New state     35 was old state     33
 New state     37 was old state     38
 New state     38 was old state     39
 New state     39 was old state     37
 New state     41 was old state     42
 New state     42 was old state     41
 New state     44 was old state     45
 New state     45 was old state     44
 New state     46 was old state     48
 New state     47 was old state     50
 New state     48 was old state     49
 New state     49 was old state     51
 New state     50 was old state     52
 New state     51 was old state     53
 New state     52 was old state     47
 New state     53 was old state     54
 New state     54 was old state     59
 New state     56 was old state     58
 New state     58 was old state     61
 New state     59 was old state     60
 New state     60 was old state     62
 New state     61 was old state     46
 New state     62 was old state     64
 New state     64 was old state     56
 New state     65 was old state     68
 New state     66 was old state     69
 New state     68 was old state     65
 New state     69 was old state     71
 New state     71 was old state     72
 New state     72 was old state     73
 New state     73 was old state     74
 New state     74 was old state     75
 New state     75 was old state     76
 New state     76 was old state     78
 New state     77 was old state     79
 New state     78 was old state     77
 New state     79 was old state     82
 New state     80 was old state     81
 New state     81 was old state     80
 New state     82 was old state     84
 New state     83 was old state     86
 New state     84 was old state     87
 New state     86 was old state     89
 New state     87 was old state     88
 New state     88 was old state     90
 New state     89 was old state     83
 New state     90 was old state     91
 New state     91 was old state     97
 New state     92 was old state     93
 New state     93 was old state     96
 New state     94 was old state     95
 New state     95 was old state     92
 New state     96 was old state     98
 New state     97 was old state     94
 New state     98 was old state     99
 New state     99 was old state    100
 New state    100 was old state    103
 New state    101 was old state    102
 New state    102 was old state    101
 New state    103 was old state    105
 New state    105 was old state    111
 New state    107 was old state    108
 New state    108 was old state    107
 New state    109 was old state    110
 New state    110 was old state    109
 New state    111 was old state    114
 New state    112 was old state    115
 New state    113 was old state    112
 New state    114 was old state    117
 New state    115 was old state    118
 New state    117 was old state    119
 New state    118 was old state    121
 New state    119 was old state    113
 New state    120 was old state    122
 New state    121 was old state    120
 New state    122 was old state    123
 New state    123 was old state    130
 New state    124 was old state    125
 New state    125 was old state    128
 New state    126 was old state    124
 New state    128 was old state    126
 New state    130 was old state    131
 New state    131 was old state    132
 New state    132 was old state    133
 New state    133 was old state    135
 New state    134 was old state    137
 New state    135 was old state    136
 New state    136 was old state    134
 New state    137 was old state    139
 New state    139 was old state    140
 New state    140 was old state    152
 New state    142 was old state    145
 New state    143 was old state    146
 New state    145 was old state    147
 New state    146 was old state    149
 New state    147 was old state    142
 New state    148 was old state    151
 New state    149 was old state    143
 New state    150 was old state    153
 New state    151 was old state    150
 New state    152 was old state    155
 New state    153 was old state    148
 New state    154 was old state    156
 New state    155 was old state    154
 New state    156 was old state    162
 New state    157 was old state    158
 New state    158 was old state    157
 New state    159 was old state    160
 New state    160 was old state    159
 New state    162 was old state    166
 New state    163 was old state    164
 New state    164 was old state    163
 New state    165 was old state    168
 New state    166 was old state    167
 New state    167 was old state    165
 New state    168 was old state    176
 New state    169 was old state    172
 New state    170 was old state    173
 New state    172 was old state    178
 New state    173 was old state    177
 New state    174 was old state    175
 New state    175 was old state    180
 New state    176 was old state    181
 New state    177 was old state    170
 New state    178 was old state    169
 New state    180 was old state    183
 New state    181 was old state    185
 New state    183 was old state    184
 New state    184 was old state    186
 New state    185 was old state    174
 New state    186 was old state    190
 New state    189 was old state    196
 New state    190 was old state    192
 New state    192 was old state    189
 New state    193 was old state    195
 New state    194 was old state    204
 New state    195 was old state    194
 New state    196 was old state    199
 New state    197 was old state    203
 New state    198 was old state    201
 New state    199 was old state    197
 New state    200 was old state    198
 New state    201 was old state    200
 New state    203 was old state    193
 New state    204 was old state    207
 New state    206 was old state    209
 New state    207 was old state    206
 New state    208 was old state    212
 New state    209 was old state    208
 New state    210 was old state    213
 New state    211 was old state    214
 New state    212 was old state    218
 New state    213 was old state    216
 New state    214 was old state    219
 New state    216 was old state    217
 New state    217 was old state    210
 New state    218 was old state    220
 New state    219 was old state    222
 New state    220 was old state    227
 New state    222 was old state    225
 New state    225 was old state    228
 New state    226 was old state    229
 New state    227 was old state    226
 New state    228 was old state    232
 New state    229 was old state    230
 New state    230 was old state    231
 New state    231 was old state    233
 New state    232 was old state    235
 New state    233 was old state    234
 New state    234 was old state    236
 New state    235 was old state    237
 New state    236 was old state    240
 New state    237 was old state    238
 New state    238 was old state    239
 New state    239 was old state    246
 New state    240 was old state    245
 New state    241 was old state    242
 New state    242 was old state    241
 New state    243 was old state    248
 New state    244 was old state    247
 New state    245 was old state    243
 New state    246 was old state    252
 New state    247 was old state    249
 New state    248 was old state    250
 New state    249 was old state    244
 New state    250 was old state    251
 New state    251 was old state    254
 New state    252 was old state    255
 New state    253 was old state    258
 New state    254 was old state    256
 New state    255 was old state    253
 New state    256 was old state    269
 New state    257 was old state    261
 New state    258 was old state    257
 New state    261 was old state    266
 New state    262 was old state    265
 New state    263 was old state    264
 New state    264 was old state    267
 New state    265 was old state    268
 New state    266 was old state    263
 New state    267 was old state    270
 New state    268 was old state    271
 New state    269 was old state    273
 New state    270 was old state    262
 New state    271 was old state    277
 New state    273 was old state    274
 New state    274 was old state    280
 New state    275 was old state    289
 New state    276 was old state    281
 New state    277 was old state    279
 New state    278 was old state    282
 New state    279 was old state    278
 New state    280 was old state    284
 New state    281 was old state    275
 New state    282 was old state    286
 New state    284 was old state    288
 New state    285 was old state    287
 New state    286 was old state    292
 New state    287 was old state    290
 New state    288 was old state    291
 New state    289 was old state    293
 New state    290 was old state    295
 New state    291 was old state    294
 New state    292 was old state    298
 New state    293 was old state    285
 New state    294 was old state    297
 New state    295 was old state    296
 New state    296 was old state    307
 New state    297 was old state    308
 New state    298 was old state    301
 New state    299 was old state    300
 New state    300 was old state    302
 New state    301 was old state    299
 New state    302 was old state    303
 New state    303 was old state    305
 New state    305 was old state    314
 New state    306 was old state    310
 New state    307 was old state    311
 New state    308 was old state    309
 New state    309 was old state    313
 New state    310 was old state    312
 New state    311 was old state    323
 New state    312 was old state    306
 New state    313 was old state    316
 New state    314 was old state    315
 New state    315 was old state    318
 New state    316 was old state    320
 New state    317 was old state    319
 New state    318 was old state    321
 New state    319 was old state    317
 New state    320 was old state    322
 New state    321 was old state    330
 New state    322 was old state    324
 New state    323 was old state    328
 New state    324 was old state    327
 New state    326 was old state    331
 New state    327 was old state    326
 New state    328 was old state    334
 New state    329 was old state    332
 New state    330 was old state    342
 New state    331 was old state    333
 New state    332 was old state    337
 New state    333 was old state    329
 New state    334 was old state    339
 New state    335 was old state    336
 New state    336 was old state    335
 New state    337 was old state    338
 New state    338 was old state    346
 New state    339 was old state    340
 New state    340 was old state    341
 New state    341 was old state    345
 New state    342 was old state    343
 New state    343 was old state    344
 New state    344 was old state    350
 New state    345 was old state    348
 New state    346 was old state    347
 New state    347 was old state    353
 New state    348 was old state    349
 New state    349 was old state    351
 New state    350 was old state    365
 New state    351 was old state    355
 New state    352 was old state    356
 New state    353 was old state    358
 New state    355 was old state    360
 New state    356 was old state    357
 New state    357 was old state    361
 New state    358 was old state    352
 New state    360 was old state    363
 New state    361 was old state    362
 New state    362 was old state    376
 New state    363 was old state    364
 New state    364 was old state    367
 New state    365 was old state    366
 New state    366 was old state    368
 New state    367 was old state    370
 New state    368 was old state    380
 New state    370 was old state    371
 New state    371 was old state    372
 New state    372 was old state    373
 New state    373 was old state    375
 New state    375 was old state    377
 New state    376 was old state    386
 New state    377 was old state    378
 New state    378 was old state    379
 New state    379 was old state    385
 New state    380 was old state    383
 New state    381 was old state    382
 New state    382 was old state    381
 New state    383 was old state    390
 New state    385 was old state    387
 New state    386 was old state    388
 New state    387 was old state    389
 New state    388 was old state    393
 New state    389 was old state    396
 New state    390 was old state    392
 No map to state    392
 New state    393 was old state    395
 New state    394 was old state    397
 New state    395 was old state    394
 New state    396 was old state    398
 New state    397 was old state    404
 New state    398 was old state    399
 New state    399 was old state    411
 New state    401 was old state    402
 New state    402 was old state    403
 New state    403 was old state    401
 New state    404 was old state    405
 New state    405 was old state    406
 New state    406 was old state    409
 New state    407 was old state    415
 New state    409 was old state    410
 New state    410 was old state    413
 New state    411 was old state    407
 New state    413 was old state    414
 New state    414 was old state    417
 New state    415 was old state    419
 New state    416 was old state    418
 New state    417 was old state    416
 New state    418 was old state    420
 New state    419 was old state    421
 New state    420 was old state    423
 New state    421 was old state    424
 New state    422 was old state    426
 New state    423 was old state    422
 New state    424 was old state    425
 New state    425 was old state    428
 New state    426 was old state    429
 New state    428 was old state    448
 New state    429 was old state    432
 New state    430 was old state    434
 New state    432 was old state    433
 New state    433 was old state    430
 New state    434 was old state    437
 New state    435 was old state    436
 New state    436 was old state    438
 New state    437 was old state    435
 New state    438 was old state    440
 New state    439 was old state    441
 New state    440 was old state    443
 New state    441 was old state    442
 New state    442 was old state    439
 New state    443 was old state    444
 New state    444 was old state    445
 New state    445 was old state    447
 New state    446 was old state    450
 New state    447 was old state    446
 New state    448 was old state    449
 New state    449 was old state    451
 New state    450 was old state    452
 New state    451 was old state    459
 New state    452 was old state    455
 New state    453 was old state    456
 New state    455 was old state    453
 New state    456 was old state    457
 New state    457 was old state    460
 New state    459 was old state    461
 New state    460 was old state    463
 New state    461 was old state    462
 New state    462 was old state    465
 New state    463 was old state    464
 New state    464 was old state    466
 New state    465 was old state    467
 New state    466 was old state    469
 New state    467 was old state    472
 New state    468 was old state    470
 New state    469 was old state    471
 New state    470 was old state    468
 New state    471 was old state    474
 New state    472 was old state    473
 New state    473 was old state    477
 New state    474 was old state    476
 New state    476 was old state    479
 New state    477 was old state    489
 New state    479 was old state    480
 New state    480 was old state    490
 New state    481 was old state    482
 New state    482 was old state    483
 New state    483 was old state    485
 New state    485 was old state    488
 New state    486 was old state    481
 New state    488 was old state    486
 New state    489 was old state    492
 New state    490 was old state    491
 New state    491 was old state    494
 New state    492 was old state    493
 New state    493 was old state    497
 New state    494 was old state    495
 New state    495 was old state    498
 New state    497 was old state    499
 New state    498 was old state    500
 New state    499 was old state    501
 New state    500 was old state    506
 New state    501 was old state    502
 New state    502 was old state    512
 New state    504 was old state    505
 New state    505 was old state    504
 New state    506 was old state    507
 New state    507 was old state    508
 New state    508 was old state    509
 New state    509 was old state    510
 New state    510 was old state    511
 New state    511 was old state    513
 New state    512 was old state    514
 New state    513 was old state    517
 New state    514 was old state    515
 New state    515 was old state    518
 New state    517 was old state    519
 New state    518 was old state    520
 New state    519 was old state    523
 New state    520 was old state    521
 New state    521 was old state    522
 New state    522 was old state    524
 New state    523 was old state    534
 New state    524 was old state    525
 New state    525 was old state    526
 New state    526 was old state    528
 New state    527 was old state    529
 New state    528 was old state    527
 New state    529 was old state    530
 New state    530 was old state    531
 New state    531 was old state    533
 New state    533 was old state    541
 New state    534 was old state    535
 New state    535 was old state    536
 New state    536 was old state    537
 New state    537 was old state    538
 New state    538 was old state    539
 New state    539 was old state    540
 No map to state    540
 New state    541 was old state    543
 New state    543 was old state    544
 New state    544 was old state    545
 New state    545 was old state    546
 New state    546 was old state    549
 New state    547 was old state    550
 New state    548 was old state    547
 New state    549 was old state    551
 New state    550 was old state    552
 New state    551 was old state    548
 New state    552 was old state    553
 New state    553 was old state    554
 New state    554 was old state    556
 New state    556 was old state    557
 New state    557 was old state    560
 New state    558 was old state    559
 New state    559 was old state    558
 New state    560 was old state    561
 New state    561 was old state    562
 New state    562 was old state    565
 New state    565 was old state    570
 New state    570 was old state    572
 New state    571 was old state    573
 New state    572 was old state    571
 New state    573 was old state    575
 New state    574 was old state    577
 New state    575 was old state    574
 New state    577 was old state    578
 No map to state    578
 New state    580 was old state    581
 New state    581 was old state    582
 New state    582 was old state    585
 New state    583 was old state    584
 New state    584 was old state    583
 New state    585 was old state    586
 New state    586 was old state    587
 New state    587 was old state    580
 New state    590 was old state    591
 New state    591 was old state    592
 New state    592 was old state    590
 New state    594 was old state    595
 New state    595 was old state    594
 New state    598 was old state    599
 New state    599 was old state    598
 New state    601 was old state    602
 New state    602 was old state    601
 New state    607 was old state    609
 New state    609 was old state    607
 New state    612 was old state    613
 New state    613 was old state    612
 New state    615 was old state    618
 New state    618 was old state    615
 New state    628 was old state    629
 New state    629 was old state    628
 New state    630 was old state    631
 New state    631 was old state    630
 New state    633 was old state    634
 New state    634 was old state    635
 New state    635 was old state    633
 New state    637 was old state    638
 New state    638 was old state    639
 New state    639 was old state    637
 New state    642 was old state    644
 New state    644 was old state    645
 New state    645 was old state    642
 New state    646 was old state    647
 New state    647 was old state    646
 New state    648 was old state    649
 New state    649 was old state    650
 New state    650 was old state    651
 New state    651 was old state    652
 New state    652 was old state    648
 New state    653 was old state    654
 New state    654 was old state    653
 New state    659 was old state    660
 New state    660 was old state    664
 New state    662 was old state    665
 New state    664 was old state    667
 New state    665 was old state    659
 New state    666 was old state    662
 New state    667 was old state    666
 New state    671 was old state    673
 New state    673 was old state    674
 New state    674 was old state    671
 New state    682 was old state    683
 New state    683 was old state    682
 New state    686 was old state    687
 New state    687 was old state    688
 New state    688 was old state    689
 New state    689 was old state    690
 New state    690 was old state    691
 New state    691 was old state    686
 New state    694 was old state    695
 New state    695 was old state    694
 New state    696 was old state    697
 New state    697 was old state    696
 New state    699 was old state    701
 New state    700 was old state    699
 New state    701 was old state    700
 New state    704 was old state    705
 New state    705 was old state    704
 New state    706 was old state    707
 New state    707 was old state    706
 New state    716 was old state    717
 New state    717 was old state    716
 New state    721 was old state    722
 New state    722 was old state    721
 New state    726 was old state    727
 New state    727 was old state    726
 New state    729 was old state    730
 New state    730 was old state    731
 New state    731 was old state    732
 New state    732 was old state    729
 New state    735 was old state    737
 New state    736 was old state    735
 New state    737 was old state    736
 New state    747 was old state    748
 New state    748 was old state    747
 New state    750 was old state    751
 New state    751 was old state    750
 New state    753 was old state    754
 New state    754 was old state    755
 New state    755 was old state    753
 New state    761 was old state    763
 New state    763 was old state    761
 New state    787 was old state    788
 New state    788 was old state    787
 New state    798 was old state    799
 New state    799 was old state    798
 New state    800 was old state    801
 New state    801 was old state    800
 New state    806 was old state    807
 New state    807 was old state    808
 New state    808 was old state    809
 New state    809 was old state    806
 New state    818 was old state    819
 New state    819 was old state    818
 New state    829 was old state    830
 New state    830 was old state    829
 New state    838 was old state    839
 New state    839 was old state    838
 New state    841 was old state    842
 New state    842 was old state    841
 New state    846 was old state    847
 New state    847 was old state    846
 Excitation Energies [eV] at current iteration:
 Root      1 :     6.554769434074851
 Root      2 :     7.314272224166686
 Root      3 :     7.339087874232099
 Root      4 :     7.432663367627465
 Root      5 :     7.830027539580275
 Root      6 :     8.437298132855860
 Root      7 :     8.521742897224586
 Root      8 :     8.606611230945164
 Root      9 :     8.687625568331043
 Root     10 :     9.039956206439818
 Root     11 :     9.293881461431306
 Root     12 :     9.334517265681326
 Root     13 :     9.461467600201297
 Root     14 :     9.464027255601250
 Root     15 :     9.794054520678989
 Root     16 :     9.899918024002821
 Root     17 :     9.941248844715890
 Root     18 :    10.031326209246470
 Root     19 :    10.040650139837270
 Root     20 :    10.054444258411980
 Root     21 :    10.248255961817220
 Root     22 :    10.452684536927020
 Root     23 :    10.604504847359860
 Root     24 :    10.634327011010510
 Root     25 :    10.660964985304950
 Root     26 :    10.926050853156720
 Root     27 :    10.964772788868420
 Root     28 :    11.079357688060330
 Root     29 :    11.113546668018620
 Root     30 :    11.137460478981960
 Root     31 :    11.236386619125210
 Root     32 :    11.252017831891630
 Root     33 :    11.381945301460060
 Root     34 :    11.392375033329180
 Root     35 :    11.396550224414740
 Root     36 :    11.511108487144660
 Root     37 :    11.727087125050410
 Root     38 :    11.789392579777020
 Root     39 :    11.839115045778370
 Root     40 :    12.003298051439900
 Root     41 :    12.135007903329670
 Root     42 :    12.173005564519970
 Root     43 :    12.190970263575660
 Root     44 :    12.330250457671280
 Root     45 :    12.354990240547560
 Root     46 :    12.478616877208440
 Root     47 :    12.491672828012240
 Root     48 :    12.522965537905470
 Root     49 :    12.578750826483900
 Root     50 :    12.613205598115540
 Root     51 :    12.635733911777740
 Root     52 :    12.713537061033780
 Root     53 :    12.729234835047060
 Root     54 :    12.942862007287270
 Root     55 :    12.961673479550720
 Root     56 :    13.034950179853000
 Root     57 :    13.109648442096890
 Root     58 :    13.234361084635780
 Root     59 :    13.244519182442480
 Root     60 :    13.307602133415990
 Root     61 :    13.342142541071580
 Root     62 :    13.464202185214330
 Root     63 :    13.548154742556220
 Root     64 :    13.579421805171360
 Root     65 :    13.708894770060120
 Root     66 :    13.746852103796640
 Root     67 :    13.769740045577080
 Root     68 :    13.783089632304550
 Root     69 :    13.805776954121200
 Root     70 :    13.889783024025570
 Root     71 :    13.921180772437840
 Root     72 :    13.972502113758370
 Root     73 :    14.051259540780650
 Root     74 :    14.123285467670240
 Root     75 :    14.135397745065250
 Root     76 :    14.254782069209000
 Root     77 :    14.309933580676930
 Root     78 :    14.347070277686290
 Root     79 :    14.479853569088640
 Root     80 :    14.547859914609330
 Root     81 :    14.559075669011980
 Root     82 :    14.562882845234660
 Root     83 :    14.592470627653620
 Root     84 :    14.633652228864080
 Root     85 :    14.648968060772840
 Root     86 :    14.791486768338800
 Root     87 :    14.838862629280270
 Root     88 :    14.875362526260560
 Root     89 :    14.916582304361000
 Root     90 :    14.939391093299140
 Root     91 :    14.986128626796710
 Root     92 :    15.028615833607140
 Root     93 :    15.088613188611170
 Root     94 :    15.191881061506520
 Root     95 :    15.220645402373290
 Root     96 :    15.262710357024720
 Root     97 :    15.473149041654870
 Root     98 :    15.508867324056710
 Root     99 :    15.570982123570820
 Root    100 :    15.666326661923780
 Root    101 :    15.733623593455450
 Root    102 :    15.767841530173270
 Root    103 :    15.792143217415720
 Root    104 :    15.830578740786880
 Root    105 :    15.836173784318550
 Root    106 :    15.855492010439030
 Root    107 :    15.893144631342670
 Root    108 :    15.925681865712780
 Root    109 :    15.962782019209280
 Root    110 :    16.056013272797780
 Root    111 :    16.074440081701590
 Root    112 :    16.173431624924830
 Root    113 :    16.245743830624410
 Root    114 :    16.303212768338980
 Root    115 :    16.305398078091520
 Root    116 :    16.396141998894340
 Root    117 :    16.412440524908110
 Root    118 :    16.424961820280020
 Root    119 :    16.481427111199730
 Root    120 :    16.639424235455650
 Root    121 :    16.696142004024510
 Root    122 :    16.765586390603890
 Root    123 :    16.788488206425240
 Root    124 :    16.867968722883670
 Root    125 :    16.915793984833880
 Root    126 :    16.923582456050640
 Root    127 :    16.945506707705420
 Root    128 :    16.963121253249590
 Root    129 :    16.983307107648000
 Root    130 :    17.063579665533230
 Root    131 :    17.139128449928350
 Root    132 :    17.225069987895250
 Root    133 :    17.256204207150870
 Root    134 :    17.297589455124850
 Root    135 :    17.315144836339310
 Root    136 :    17.344994684931400
 Root    137 :    17.379821504555340
 Root    138 :    17.480526261262730
 Root    139 :    17.527307776077980
 Root    140 :    17.595388279943820
 Root    141 :    17.658802057072100
 Root    142 :    17.685342769439640
 Root    143 :    17.756613170952540
 Root    144 :    17.759138716993870
 Root    145 :    17.798929655560860
 Root    146 :    17.816856439864750
 Root    147 :    17.868156005037780
 Root    148 :    17.873522285450630
 Root    149 :    17.912948025004070
 Root    150 :    17.930054875026260
 Root    151 :    18.005074211581970
 Root    152 :    18.023509770870790
 Root    153 :    18.055800012053680
 Root    154 :    18.079502835229360
 Root    155 :    18.111435643443740
 Root    156 :    18.199513516651610
 Root    157 :    18.244470316248860
 Root    158 :    18.323947453622040
 Root    159 :    18.352117296514040
 Root    160 :    18.396657141705070
 Root    161 :    18.429395006445350
 Root    162 :    18.517651878235030
 Root    163 :    18.574782138342390
 Root    164 :    18.610518836606920
 Root    165 :    18.619653428199890
 Root    166 :    18.630055146860850
 Root    167 :    18.691136963099670
 Root    168 :    18.773662785792600
 Root    169 :    18.779056306934490
 Root    170 :    18.856152127987430
 Root    171 :    18.898076635082260
 Root    172 :    18.932629568428240
 Root    173 :    18.958922859352520
 Root    174 :    18.991596901006920
 Root    175 :    19.069209677064050
 Root    176 :    19.120135330180680
 Root    177 :    19.149829332299580
 Root    178 :    19.199149899463360
 Root    179 :    19.222666354405000
 Root    180 :    19.246164700947770
 Root    181 :    19.266612965683290
 Root    182 :    19.294601646593350
 Root    183 :    19.342139168556070
 Root    184 :    19.454940659229700
 Root    185 :    19.505894719682670
 Root    186 :    19.539404764890720
 Root    187 :    19.547669453624180
 Root    188 :    19.598775065337840
 Root    189 :    19.643328388400110
 Root    190 :    19.705141340057820
 Root    191 :    19.736686061746690
 Root    192 :    19.737534120391330
 Root    193 :    19.761806771134420
 Root    194 :    19.773691507145020
 Root    195 :    19.802293585069980
 Root    196 :    19.846052775071800
 Root    197 :    19.854950554743880
 Root    198 :    19.876665750693990
 Root    199 :    19.925681302274090
 Root    200 :    19.944485267193440
 Root    201 :    19.978700833650050
 Root    202 :    20.001237527600030
 Root    203 :    20.045290478109150
 Root    204 :    20.069654679186990
 Root    205 :    20.145834271500140
 Root    206 :    20.188036984781270
 Root    207 :    20.239416698935970
 Root    208 :    20.318968791150900
 Root    209 :    20.319968144392760
 Root    210 :    20.411857179604670
 Root    211 :    20.439477199999460
 Root    212 :    20.507886193185540
 Root    213 :    20.520459453069880
 Root    214 :    20.533415075201860
 Root    215 :    20.534198312769590
 Root    216 :    20.567321923080180
 Root    217 :    20.615169311700980
 Root    218 :    20.672527332018480
 Root    219 :    20.736888183205310
 Root    220 :    20.828096573995780
 Root    221 :    20.873734349423990
 Root    222 :    20.905381098683830
 Root    223 :    20.916727595276740
 Root    224 :    20.955025580133930
 Root    225 :    21.003608269444860
 Root    226 :    21.044566379329470
 Root    227 :    21.056952025917410
 Root    228 :    21.072023499018770
 Root    229 :    21.120616676626310
 Root    230 :    21.161898208219330
 Root    231 :    21.170429576096880
 Root    232 :    21.229160147289140
 Root    233 :    21.233483658469950
 Root    234 :    21.257233688765100
 Root    235 :    21.276496947415160
 Root    236 :    21.403845633323010
 Root    237 :    21.458867025609120
 Root    238 :    21.511298016671630
 Root    239 :    21.621474749666310
 Root    240 :    21.629029970503830
 Root    241 :    21.643499531213840
 Root    242 :    21.684783311442430
 Root    243 :    21.708592022265430
 Root    244 :    21.771412912868560
 Root    245 :    21.786617757822480
 Root    246 :    21.796157367803580
 Root    247 :    21.877779396843180
 Root    248 :    21.902267759126290
 Root    249 :    21.935152680580240
 Root    250 :    21.945163417912730
 Root    251 :    22.093311035039190
 Root    252 :    22.108787306202640
 Root    253 :    22.127092606110150
 Root    254 :    22.163548651520820
 Root    255 :    22.164211977291280
 Root    256 :    22.242293923666530
 Root    257 :    22.254148724444260
 Root    258 :    22.268405220640000
 Root    259 :    22.326735556995820
 Root    260 :    22.340971133399450
 Root    261 :    22.360858322856900
 Root    262 :    22.396960380338600
 Root    263 :    22.434891592950020
 Root    264 :    22.437795623274620
 Root    265 :    22.494331235603910
 Root    266 :    22.521877945498370
 Root    267 :    22.531007416723600
 Root    268 :    22.599026781889010
 Root    269 :    22.630076174212710
 Root    270 :    22.743216970650020
 Root    271 :    22.786921009965850
 Root    272 :    22.835333997139860
 Root    273 :    22.856645168777930
 Root    274 :    22.929928929773990
 Root    275 :    23.011627121822510
 Root    276 :    23.018375572864730
 Root    277 :    23.035243570541580
 Root    278 :    23.038325320824690
 Root    279 :    23.107112070251510
 Root    280 :    23.163302797873130
 Root    281 :    23.181519104581890
 Root    282 :    23.187930866144430
 Root    283 :    23.236775232655490
 Root    284 :    23.312146824827360
 Root    285 :    23.344508321750960
 Root    286 :    23.417707111614760
 Root    287 :    23.431767320155550
 Root    288 :    23.458191642487180
 Root    289 :    23.539060252709240
 Root    290 :    23.599083930619140
 Root    291 :    23.616697588391800
 Root    292 :    23.643700864553600
 Root    293 :    23.735274149018070
 Root    294 :    23.743203229946840
 Root    295 :    23.828785176770460
 Root    296 :    23.868912565119060
 Root    297 :    23.949092966202450
 Root    298 :    23.976659210764810
 Root    299 :    24.084774218357490
 Root    300 :    24.128390527767750
 Root    301 :    24.134208158922870
 Root    302 :    24.195657032562560
 Root    303 :    24.241473933560760
 Root    304 :    24.250329401756430
 Root    305 :    24.303994189752430
 Root    306 :    24.333726912191890
 Root    307 :    24.430525800648950
 Root    308 :    24.491584228980410
 Root    309 :    24.501285764496990
 Root    310 :    24.592628664757260
 Root    311 :    24.612140578201480
 Root    312 :    24.656120695017790
 Root    313 :    24.827827694544420
 Root    314 :    24.832555028296800
 Root    315 :    24.921779249359800
 Root    316 :    24.966278537861870
 Root    317 :    24.983258700982450
 Root    318 :    25.044355239295270
 Root    319 :    25.058012431886330
 Root    320 :    25.156274182780000
 Root    321 :    25.258518298852990
 Root    322 :    25.343551793920970
 Root    323 :    25.411736561843970
 Root    324 :    25.435209004317990
 Root    325 :    25.579418033463440
 Root    326 :    25.586554810366580
 Root    327 :    25.615716618787980
 Root    328 :    25.667287099259500
 Root    329 :    25.720964632230580
 Root    330 :    25.740733771065530
 Root    331 :    25.827347609060040
 Root    332 :    25.828185300760960
 Root    333 :    25.929075254140870
 Root    334 :    25.990730605720790
 Root    335 :    26.036967204711120
 Root    336 :    26.073656219984150
 Root    337 :    26.161532361308150
 Root    338 :    26.201796472182910
 Root    339 :    26.256001123029120
 Root    340 :    26.317201374863230
 Root    341 :    26.409363008320780
 Root    342 :    26.414256133272310
 Root    343 :    26.480588972350550
 Root    344 :    26.545478349711320
 Root    345 :    26.574284434125430
 Root    346 :    26.643702021476500
 Root    347 :    26.765621119974280
 Root    348 :    26.774301357050360
 Root    349 :    26.854243492568450
 Root    350 :    26.870132253890480
 Root    351 :    27.049066356207040
 Root    352 :    27.341602365256950
 Root    353 :    27.364653034131220
 Root    354 :    27.389276691168260
 Root    355 :    27.417319619553530
 Root    356 :    27.447618452753950
 Root    357 :    27.464502706198420
 Root    358 :    27.565695150483810
 Root    359 :    27.645960536431190
 Root    360 :    27.724507954898000
 Root    361 :    27.729523301529230
 Root    362 :    27.830942552590370
 Root    363 :    27.856954336446080
 Root    364 :    27.996153211301000
 Root    365 :    28.130330934505260
 Root    366 :    28.173441069455600
 Root    367 :    28.334930436796260
 Root    368 :    28.345270237560410
 Root    369 :    28.380726316417610
 Root    370 :    28.752805319829670
 Root    371 :    28.861170045925270
 Root    372 :    28.934781451850180
 Root    373 :    28.956836269372780
 Root    374 :    28.980374278093290
 Root    375 :    29.032775704715210
 Root    376 :    29.049815830769430
 Root    377 :    29.146033274147750
 Root    378 :    29.152647809092700
 Root    379 :    29.243285184015210
 Root    380 :    29.482593871132420
 Root    381 :    29.494466901728250
 Root    382 :    29.525695821894290
 Root    383 :    29.805222334676450
 Root    384 :    29.815678278117720
 Root    385 :    29.874948799382990
 Root    386 :    29.964156891082680
 Root    387 :    29.986546815362280
 Root    388 :    30.067229361438110
 Root    389 :    30.162146466410040
 Root    390 :    30.162336383962690
 Root    391 :    30.170035978196040
 Root    392 :    30.364941484135870
 Root    393 :    30.574750275739810
 Root    394 :    30.722768212714420
 Root    395 :    30.806682189010570
 Root    396 :    30.844741916857930
 Root    397 :    30.904932212011680
 Root    398 :    30.945718512163060
 Root    399 :    30.998619707150170
 Root    400 :    31.073512217068110
 Root    401 :    31.121040909239190
 Root    402 :    31.143955245250720
 Root    403 :    31.186832825499870
 Root    404 :    31.469995333467200
 Root    405 :    31.542490256553560
 Root    406 :    31.637592315422060
 Root    407 :    31.640944539846540
 Root    408 :    31.671702809684170
 Root    409 :    31.848674739452140
 Root    410 :    31.982130927252360
 Root    411 :    32.031587057892330
 Root    412 :    32.062732390849720
 Root    413 :    32.133127666022790
 Root    414 :    32.203574384720440
 Root    415 :    32.272795420699010
 Root    416 :    32.311333161483130
 Root    417 :    32.380801723025090
 Root    418 :    32.473753618108750
 Root    419 :    32.596403294748970
 Root    420 :    32.708971725348390
 Root    421 :    32.739784150711610
 Root    422 :    32.801877754163390
 Root    423 :    32.811751751419040
 Root    424 :    32.855671064719060
 Root    425 :    32.960154191936790
 Root    426 :    33.022904621845140
 Root    427 :    33.178950903834360
 Root    428 :    33.282884987007120
 Root    429 :    33.588507634738030
 Root    430 :    33.648264404613980
 Root    431 :    33.652597422897750
 Root    432 :    33.753079371708000
 Root    433 :    33.829946857811070
 Root    434 :    33.970291236903120
 Root    435 :    34.035975402821950
 Root    436 :    34.044106323124350
 Root    437 :    34.057717319756390
 Root    438 :    34.152430322072800
 Root    439 :    34.304934732344940
 Root    440 :    34.340697286915820
 Root    441 :    34.343700070988120
 Root    442 :    34.456143489626380
 Root    443 :    34.458618236818570
 Root    444 :    34.569922793532280
 Root    445 :    34.732667605235140
 Root    446 :    34.740076337330580
 Root    447 :    34.776101573151220
 Root    448 :    35.010147464661790
 Root    449 :    35.087420616815930
 Root    450 :    35.168725190808270
 Root    451 :    35.184977942518780
 Root    452 :    35.223321168416310
 Root    453 :    35.283591729669300
 Root    454 :    35.306541063433690
 Root    455 :    35.375072618944750
 Root    456 :    35.458704065892920
 Root    457 :    35.585292620075090
 Root    458 :    35.720907274963570
 Root    459 :    35.729322860637720
 Root    460 :    35.937633307017310
 Root    461 :    35.970302090563460
 Root    462 :    36.000253122584920
 Root    463 :    36.041772091938210
 Root    464 :    36.211639711019860
 Root    465 :    36.215270462551720
 Root    466 :    36.433034518099160
 Root    467 :    36.649105558518030
 Root    468 :    36.697276739171980
 Root    469 :    36.785205983930370
 Root    470 :    36.835229411007810
 Root    471 :    36.894179984830660
 Root    472 :    36.924120510135130
 Root    473 :    37.130891139697300
 Root    474 :    37.155039992085140
 Root    475 :    37.206890129493770
 Root    476 :    37.390092474567280
 Root    477 :    37.560408997373040
 Root    478 :    37.708115078384980
 Root    479 :    37.730003433837640
 Root    480 :    37.781440860317240
 Root    481 :    37.919976741375020
 Root    482 :    37.951032288876130
 Root    483 :    38.060088811119040
 Root    484 :    38.144739847840200
 Root    485 :    38.182925461422130
 Root    486 :    38.270845263432140
 Root    487 :    38.325567182872210
 Root    488 :    38.348774904413890
 Root    489 :    38.686514715716380
 Root    490 :    38.688558970079180
 Root    491 :    38.784873707340690
 Root    492 :    38.973858028370780
 Root    493 :    38.995127035560780
 Root    494 :    39.097323938865190
 Root    495 :    39.290423508151480
 Root    496 :    39.440706171909720
 Root    497 :    39.444134626385730
 Root    498 :    39.682536417582970
 Root    499 :    39.839875144544200
 Root    500 :    39.940081005818610
 Root    501 :    40.050530142087230
 Root    502 :    40.055629138768960
 Root    503 :    40.118354897090560
 Root    504 :    40.246941584727170
 Root    505 :    40.501172601624360
 Root    506 :    40.531286192275360
 Root    507 :    40.615685436948710
 Root    508 :    40.648170165764550
 Root    509 :    40.746155183290060
 Root    510 :    40.913928514869250
 Root    511 :    40.972918528147970
 Root    512 :    41.181240218185760
 Root    513 :    41.204200099491030
 Root    514 :    41.269635672028460
 Root    515 :    41.377315350576400
 Root    516 :    41.528960041739770
 Root    517 :    41.549600191813930
 Root    518 :    41.809204558945580
 Root    519 :    42.150506233166930
 Root    520 :    42.201616526545460
 Root    521 :    42.309074727900440
 Root    522 :    42.309965826015630
 Root    523 :    42.499131148324800
 Root    524 :    42.534761844808180
 Root    525 :    42.646655144021170
 Root    526 :    42.703626271933760
 Root    527 :    42.908317213056630
 Root    528 :    43.034291493782300
 Root    529 :    43.128330504998350
 Root    530 :    43.131483947638150
 Root    531 :    43.441916491112050
 Root    532 :    43.575185218195610
 Root    533 :    43.712843103509670
 Root    534 :    43.879467666717820
 Root    535 :    43.987098444021920
 Root    536 :    44.047324968663230
 Root    537 :    44.152192125535360
 Root    538 :    44.447722445386180
 Root    539 :    44.597997611518890
 Root    540 :    44.601522993240690
 Root    541 :    44.897633824104930
 Root    542 :    44.920613854515860
 Root    543 :    45.087488579750720
 Root    544 :    45.300051391027090
 Root    545 :    45.447777143483420
 Root    546 :    45.520307533032000
 Root    547 :    45.885178842034610
 Root    548 :    45.945560662894710
 Root    549 :    46.074309519552860
 Root    550 :    46.084905761564260
 Root    551 :    46.155614472700530
 Root    552 :    46.434587753535400
 Root    553 :    46.663704292157160
 Root    554 :    47.029798460436560
 Root    555 :    47.031686399480280
 Root    556 :    47.382150353236550
 Root    557 :    47.552979969923690
 Root    558 :    47.699090659088280
 Root    559 :    47.701422169895910
 Root    560 :    47.808860238430130
 Root    561 :    47.922379561578510
 Root    562 :    47.999887087967980
 Root    563 :    48.230142149192740
 Root    564 :    48.453729415185830
 Root    565 :    48.833389611212600
 Root    566 :    49.041007817583730
 Root    567 :    49.311234129014150
 Root    568 :    49.338673934859540
 Root    569 :    49.373983530995430
 Root    570 :    49.487543105777550
 Root    571 :    49.628963626366800
 Root    572 :    49.717123687213320
 Root    573 :    49.976728294111340
 Root    574 :    50.029698342893500
 Root    575 :    50.250243798549970
 Root    576 :    50.254711914705920
 Root    577 :    50.516961341461580
 Root    578 :    50.665219244417370
 Root    579 :    50.696155991150920
 Root    580 :    50.746893364253520
 Root    581 :    50.960162021260230
 Root    582 :    51.289271889905340
 Root    583 :    51.518371947002340
 Root    584 :    51.723957754516120
 Root    585 :    51.887360814736700
 Root    586 :    51.937945379581950
 Root    587 :    52.244887108207540
 Root    588 :    52.493501890451650
 Root    589 :    52.694483514127310
 Root    590 :    52.751345940760770
 Root    591 :    52.830534649982580
 Root    592 :    52.894509543711140
 Root    593 :    52.972600698186160
 Root    594 :    53.093632637973510
 Root    595 :    53.153749607408850
 Root    596 :    53.263191019973290
 Root    597 :    53.379062049841000
 Root    598 :    53.795708813157280
 Root    599 :    54.034242778311240
 Root    600 :    54.155675959456680
 Root    601 :    54.284212494439830
 Root    602 :    54.358682144273980
 Root    603 :    54.396953453761310
 Root    604 :    54.740642402163400
 Root    605 :    54.950198482025480
 Root    606 :    55.117917619326190
 Root    607 :    55.329058746151140
 Root    608 :    55.398459448126840
 Root    609 :    55.452436226067850
 Root    610 :    55.718819044871330
 Root    611 :    55.992622695771950
 Root    612 :    56.021947038277610
 Root    613 :    56.068055025365790
 Root    614 :    56.216337120711470
 Root    615 :    56.337485066853070
 Root    616 :    56.341003233209230
 Root    617 :    56.434339799360100
 Root    618 :    56.563160003200800
 Root    619 :    56.686710506710170
 Root    620 :    56.917110558232980
 Root    621 :    57.079124001625120
 Root    622 :    57.321583679839680
 Root    623 :    57.395118374849320
 Root    624 :    57.462197899008010
 Root    625 :    57.549818597594450
 Root    626 :    57.601656101290370
 Root    627 :    57.709404968610920
 Root    628 :    57.984206482853040
 Root    629 :    58.033212827211700
 Root    630 :    58.102669710536950
 Root    631 :    58.189447249152060
 Root    632 :    58.267455569344970
 Root    633 :    58.424010742782610
 Root    634 :    58.469573508127810
 Root    635 :    58.657228027083810
 Root    636 :    58.721525817566870
 Root    637 :    58.959914687691020
 Root    638 :    59.090606204046150
 Root    639 :    59.156253474794580
 Root    640 :    59.227255193063840
 Root    641 :    59.301081655390520
 Root    642 :    59.333806335419450
 Root    643 :    59.464074797655110
 Root    644 :    59.511519842110960
 Root    645 :    59.636512791036320
 Root    646 :    59.684340827288980
 Root    647 :    59.982760931295130
 Root    648 :    60.124806669887970
 Root    649 :    60.160019523452280
 Root    650 :    60.294626803419850
 Root    651 :    60.401293638674540
 Root    652 :    60.412385839432460
 Root    653 :    60.524785033368590
 Root    654 :    60.592644387721900
 Root    655 :    60.699403415372320
 Root    656 :    60.737786306031890
 Root    657 :    60.918017570376260
 Root    658 :    61.133936365253970
 Root    659 :    61.298918543382180
 Root    660 :    61.432525934120950
 Root    661 :    61.445473336559270
 Root    662 :    61.555588220470850
 Root    663 :    61.557996933123080
 Root    664 :    61.579623189662090
 Root    665 :    61.635663780994310
 Root    666 :    61.702339949218330
 Root    667 :    61.850782171552490
 Root    668 :    61.988817845973510
 Root    669 :    62.206996128389680
 Root    670 :    62.383321182973100
 Root    671 :    62.595897504344890
 Root    672 :    62.725255453362950
 Root    673 :    62.803803276159900
 Root    674 :    62.861898491940880
 Root    675 :    62.929455319265770
 Root    676 :    62.945158450706410
 Root    677 :    63.266619226261190
 Root    678 :    63.321811134478650
 Root    679 :    63.546979057902600
 Root    680 :    63.642296642271060
 Root    681 :    63.769283478596830
 Root    682 :    63.998731616845620
 Root    683 :    64.005807468721660
 Root    684 :    64.106238205226030
 Root    685 :    64.325405223814290
 Root    686 :    64.411001173557240
 Root    687 :    64.597242091896720
 Root    688 :    64.661558314251830
 Root    689 :    64.820439833399080
 Root    690 :    64.822438964378970
 Root    691 :    65.007705639029870
 Root    692 :    65.097317412518750
 Root    693 :    65.349605163511170
 Root    694 :    65.943462878255800
 Root    695 :    66.058101404553060
 Root    696 :    66.143222137335020
 Root    697 :    66.385657070168350
 Root    698 :    66.592534279186270
 Root    699 :    66.888857549389700
 Root    700 :    66.932339789313960
 Root    701 :    67.015632355683710
 Root    702 :    67.096828587190130
 Root    703 :    67.123393876787220
 Root    704 :    67.403314609600860
 Root    705 :    67.407930949065450
 Root    706 :    67.685428195189430
 Root    707 :    67.715088962753480
 Root    708 :    68.020381902025870
 Root    709 :    68.056329779770810
 Root    710 :    68.108316636753490
 Root    711 :    68.213226388632070
 Root    712 :    68.644436281332080
 Root    713 :    68.778306152540720
 Root    714 :    69.022047727742690
 Root    715 :    69.236901159506050
 Root    716 :    69.333467544145440
 Root    717 :    69.381162411786060
 Root    718 :    69.452270222870910
 Root    719 :    69.538292715184100
 Root    720 :    69.714346858489140
 Root    721 :    69.987823720125750
 Root    722 :    70.030983429507070
 Root    723 :    70.179900856284250
 Root    724 :    70.386526896166530
 Root    725 :    70.597085444185950
 Root    726 :    70.680662579503280
 Root    727 :    70.712957956704440
 Root    728 :    70.868973560234210
 Root    729 :    71.033806919810020
 Root    730 :    71.090290173402200
 Root    731 :    71.225760098461360
 Root    732 :    71.278260127531940
 Root    733 :    71.311562169697240
 Root    734 :    71.542287751844040
 Root    735 :    71.799951122951710
 Root    736 :    71.856189159453490
 Root    737 :    71.945135682241740
 Root    738 :    72.241910309659460
 Root    739 :    72.508572243827710
 Root    740 :    72.593406572675330
 Root    741 :    72.822569762625080
 Root    742 :    73.066440041064330
 Root    743 :    73.091243068912950
 Root    744 :    73.106489159974230
 Root    745 :    73.179316393274920
 Root    746 :    73.246579210875750
 Root    747 :    73.677034645055560
 Root    748 :    73.840045505588720
 Root    749 :    73.911124834258530
 Root    750 :    74.238444825843560
 Root    751 :    74.409315734498310
 Root    752 :    74.724217475709340
 Root    753 :    74.874809063491470
 Root    754 :    74.904017821675340
 Root    755 :    74.940180577206010
 Root    756 :    75.019614898536450
 Root    757 :    75.283298066935670
 Root    758 :    75.479669345544580
 Root    759 :    75.755960847643540
 Root    760 :    75.857093336172230
 Root    761 :    76.241624548913190
 Root    762 :    76.269372287557670
 Root    763 :    76.392139232815840
 Root    764 :    76.583005641792170
 Root    765 :    77.239842071397320
 Root    766 :    77.332865903003780
 Root    767 :    77.440063404789680
 Root    768 :    77.621060290568560
 Root    769 :    77.715956684305620
 Root    770 :    77.998543770812830
 Root    771 :    78.094725905236220
 Root    772 :    78.211742051290160
 Root    773 :    78.219567107652200
 Root    774 :    78.280175899872280
 Root    775 :    78.647628892310460
 Root    776 :    78.984288758219350
[...]
     12   0.000000D+00  0.000000D+00  0.000000D+00 -0.412622D-01 -0.138291D+00
     13   0.000000D+00  0.000000D+00  0.000000D+00 -0.546348D-01 -0.376428D-01
     14   0.000000D+00  0.000000D+00  0.000000D+00  0.135473D-01  0.441906D+00
     15   0.920740D-01  0.233070D+00 -0.112043D+00  0.000000D+00  0.000000D+00
     16  -0.834832D-01 -0.847458D-01 -0.128644D+00  0.000000D+00  0.000000D+00
               796           797           798           799           800 
      1  -0.114677D+03 -0.114673D+03 -0.114670D+03 -0.114667D+03 -0.114665D+03
      2   0.219848D-01  0.000000D+00  0.133977D-01  0.265773D-01  0.000000D+00
      3  -0.124074D-01  0.000000D+00 -0.211893D-01 -0.240818D-01  0.000000D+00
      4   0.000000D+00 -0.800586D-02  0.000000D+00  0.000000D+00  0.596521D-01
      5  -0.319958D-01  0.000000D+00 -0.401483D-01 -0.706484D-01  0.000000D+00
      6   0.243253D-01  0.000000D+00  0.480895D-01  0.565938D-01  0.000000D+00
      7   0.000000D+00  0.229679D-01  0.000000D+00  0.000000D+00 -0.158723D+00
      8   0.000000D+00 -0.216201D-01  0.000000D+00  0.000000D+00  0.560749D-01
      9   0.000000D+00 -0.343194D-01  0.000000D+00  0.000000D+00  0.619049D+00
     10  -0.388169D+00  0.000000D+00 -0.155125D+00  0.132416D+00  0.000000D+00
     11  -0.103741D+00  0.000000D+00 -0.319454D+00 -0.550819D+00  0.000000D+00
     12  -0.224592D+00  0.000000D+00 -0.779148D-01  0.260685D+00  0.000000D+00
     13  -0.137997D+00  0.000000D+00  0.747150D-01 -0.153626D+00  0.000000D+00
     14  -0.394648D+00  0.000000D+00 -0.107752D+00  0.196327D+00  0.000000D+00
     15   0.000000D+00  0.101318D+00  0.000000D+00  0.000000D+00 -0.728646D+00
     16   0.000000D+00 -0.538281D-01  0.000000D+00  0.000000D+00  0.136049D+00
               801           802           803           804           805 
      1  -0.114663D+03 -0.114646D+03 -0.114638D+03 -0.114625D+03 -0.114621D+03
      2   0.000000D+00 -0.970255D-01  0.000000D+00  0.706321D-01  0.223377D-01
      3   0.000000D+00  0.553143D-02  0.000000D+00 -0.103817D-01  0.872033D-01
      4   0.278260D-01  0.000000D+00 -0.523380D-02  0.000000D+00  0.000000D+00
      5   0.000000D+00  0.273102D+00  0.000000D+00 -0.188371D+00 -0.684081D-01
      6   0.000000D+00  0.841739D-02  0.000000D+00  0.164321D-01 -0.234017D+00
      7  -0.683002D-01  0.000000D+00  0.191715D-01  0.000000D+00  0.000000D+00
      8  -0.795375D-01  0.000000D+00  0.146584D+00  0.000000D+00  0.000000D+00
      9   0.438026D+00  0.000000D+00 -0.140066D+00  0.000000D+00  0.000000D+00
     10   0.000000D+00 -0.258227D+00  0.000000D+00 -0.110503D+00 -0.232038D-01
     11   0.000000D+00  0.639127D-01  0.000000D+00  0.611239D-01 -0.513079D+00
     12   0.000000D+00 -0.161959D+00  0.000000D+00 -0.850480D-01  0.203943D-01
     13   0.000000D+00  0.504379D-02  0.000000D+00  0.123644D-01 -0.156245D-01
     14   0.000000D+00 -0.171928D+00  0.000000D+00 -0.107896D-01 -0.380002D-01
     15  -0.464337D+00  0.000000D+00  0.290874D+00  0.000000D+00  0.000000D+00
     16   0.562584D-01  0.000000D+00  0.188794D+00  0.000000D+00  0.000000D+00
               806           807           808           809           810 
      1  -0.114590D+03 -0.114587D+03 -0.114584D+03 -0.114584D+03 -0.114573D+03
      2   0.331911D-01 -0.984550D-02  0.000000D+00  0.646951D-02 -0.149505D-01
      3  -0.334019D-01  0.294406D-01  0.000000D+00  0.670900D-01  0.389564D-01
      4   0.000000D+00  0.000000D+00 -0.647753D-01  0.000000D+00  0.000000D+00
      5  -0.873040D-01  0.338941D-01  0.000000D+00 -0.340287D-01  0.341969D-01
      6   0.101040D+00 -0.635027D-01  0.000000D+00 -0.173358D+00 -0.106826D+00
      7   0.000000D+00  0.000000D+00  0.155827D+00  0.000000D+00  0.000000D+00
      8   0.000000D+00  0.000000D+00 -0.101725D+00  0.000000D+00  0.000000D+00
      9   0.000000D+00  0.000000D+00  0.334498D+00  0.000000D+00  0.000000D+00
     10  -0.811934D-02  0.803690D-01  0.000000D+00 -0.112204D+00  0.991830D-02
     11   0.197996D-01 -0.342926D-01  0.000000D+00 -0.345429D+00 -0.272591D+00
     12   0.903517D-01  0.241573D+00  0.000000D+00 -0.177997D+00  0.108181D+00
     13  -0.380388D-02 -0.393778D-01  0.000000D+00 -0.980701D-01 -0.653983D-01
     14  -0.937943D-01  0.181587D-01  0.000000D+00 -0.178385D+00  0.210752D+00
     15   0.000000D+00  0.000000D+00 -0.402411D+00  0.000000D+00  0.000000D+00
     16   0.000000D+00  0.000000D+00 -0.307657D+00  0.000000D+00  0.000000D+00
               811           812           813           814           815 
      1  -0.114568D+03 -0.114561D+03 -0.114558D+03 -0.114543D+03 -0.114530D+03
      2  -0.437158D-01 -0.783511D-02  0.472418D-01  0.000000D+00  0.356434D-02
      3  -0.154189D+00 -0.463359D-01 -0.417289D-01  0.000000D+00  0.172012D-01
      4   0.000000D+00  0.000000D+00  0.000000D+00  0.345401D-01  0.000000D+00
      5   0.134723D+00  0.100308D-01 -0.132251D+00  0.000000D+00  0.554057D-02
      6   0.412061D+00  0.119516D+00  0.114402D+00  0.000000D+00 -0.437368D-01
      7   0.000000D+00  0.000000D+00  0.000000D+00 -0.823057D-01  0.000000D+00
      8   0.000000D+00  0.000000D+00  0.000000D+00 -0.901176D-01  0.000000D+00
      9   0.000000D+00  0.000000D+00  0.000000D+00  0.700985D-01  0.000000D+00
     10   0.204164D+00 -0.247378D+00  0.132009D+00  0.000000D+00 -0.237008D+00
     11  -0.851800D+00  0.535352D+00 -0.224139D+00  0.000000D+00 -0.323247D+00
     12   0.676041D-01 -0.140606D+00  0.278197D+00  0.000000D+00 -0.291567D+00
     13  -0.169053D-01  0.131081D+00 -0.425474D-02  0.000000D+00 -0.194551D+00
     14   0.417101D-02  0.204439D-02  0.122330D+00  0.000000D+00 -0.431294D+00
     15   0.000000D+00  0.000000D+00  0.000000D+00 -0.806135D-01  0.000000D+00
     16   0.000000D+00  0.000000D+00  0.000000D+00 -0.291180D+00  0.000000D+00
               816           817           818           819           820 
      1  -0.114523D+03 -0.114521D+03 -0.114512D+03 -0.114507D+03 -0.114491D+03
      2   0.000000D+00  0.000000D+00 -0.438342D-01  0.771522D-01  0.220759D-01
      3   0.000000D+00  0.000000D+00  0.111320D-01 -0.385279D-01 -0.295203D-01
      4  -0.215258D-01 -0.302728D-01  0.000000D+00  0.000000D+00  0.000000D+00
      5   0.000000D+00  0.000000D+00  0.123310D+00 -0.206960D+00 -0.685781D-01
      6   0.000000D+00  0.000000D+00 -0.775000D-02  0.955555D-01  0.679043D-01
      7   0.694798D-01  0.899574D-01  0.000000D+00  0.000000D+00  0.000000D+00
      8   0.242393D-01  0.457289D-01  0.000000D+00  0.000000D+00  0.000000D+00
      9   0.144597D+00  0.433926D+00  0.000000D+00  0.000000D+00  0.000000D+00
     10   0.000000D+00  0.000000D+00 -0.386176D-01  0.136237D+00  0.188797D+00
     11   0.000000D+00  0.000000D+00 -0.698201D+00 -0.590269D+00  0.411165D+00
     12   0.000000D+00  0.000000D+00 -0.188419D+00  0.224914D-01  0.159145D+00
     13   0.000000D+00  0.000000D+00  0.629776D-01  0.572573D-01 -0.115641D+00
     14   0.000000D+00  0.000000D+00 -0.122023D+00 -0.201084D+00  0.138487D+00
     15  -0.259718D+00 -0.445573D+00  0.000000D+00  0.000000D+00  0.000000D+00
     16   0.975375D-01  0.769403D-01  0.000000D+00  0.000000D+00  0.000000D+00
               821           822           823           824           825 
      1  -0.114489D+03 -0.114473D+03 -0.114465D+03 -0.114457D+03 -0.114449D+03
      2   0.000000D+00 -0.506447D-01  0.000000D+00  0.312948D-01  0.000000D+00
      3   0.000000D+00 -0.147747D-01  0.000000D+00  0.136050D-01  0.000000D+00
      4   0.231039D-01  0.000000D+00 -0.103092D+00  0.000000D+00 -0.227779D-01
      5   0.000000D+00  0.134163D+00  0.000000D+00 -0.952588D-01  0.000000D+00
      6   0.000000D+00  0.309198D-01  0.000000D+00 -0.462756D-01  0.000000D+00
      7  -0.608933D-01  0.000000D+00  0.293252D+00  0.000000D+00  0.607463D-01
      8   0.866719D-01  0.000000D+00 -0.253436D+00  0.000000D+00 -0.277167D-01
      9  -0.210882D+00  0.000000D+00  0.610637D+00  0.000000D+00  0.140585D+00
     10   0.000000D+00  0.140495D+00  0.000000D+00 -0.258713D-01  0.000000D+00
     11   0.000000D+00  0.623324D+00  0.000000D+00  0.215509D-01  0.000000D+00
     12   0.000000D+00  0.358295D+00  0.000000D+00  0.629806D-01  0.000000D+00
     13   0.000000D+00 -0.255912D-01  0.000000D+00 -0.591582D-01  0.000000D+00
     14   0.000000D+00  0.245950D+00  0.000000D+00  0.378462D+00  0.000000D+00
     15   0.252071D+00  0.000000D+00 -0.617238D+00  0.000000D+00 -0.144571D+00
     16   0.239608D+00  0.000000D+00 -0.236375D+00  0.000000D+00 -0.777290D-01
               826           827           828           829           830 
      1  -0.114447D+03 -0.114435D+03 -0.114423D+03 -0.114417D+03 -0.114416D+03
      2  -0.333666D-01  0.000000D+00 -0.471427D-01  0.000000D+00 -0.107892D+00
      3   0.102931D+00  0.000000D+00  0.674010D-01  0.000000D+00 -0.200321D-01
      4   0.000000D+00 -0.219595D-01  0.000000D+00 -0.414261D-02  0.000000D+00
      5   0.926078D-01  0.000000D+00  0.123330D+00  0.000000D+00  0.307622D+00
      6  -0.290883D+00  0.000000D+00 -0.192501D+00  0.000000D+00  0.547483D-01
      7   0.000000D+00  0.656884D-01  0.000000D+00  0.523087D-02  0.000000D+00
      8   0.000000D+00 -0.370134D-01  0.000000D+00 -0.110950D-01  0.000000D+00
      9   0.000000D+00 -0.175901D+00  0.000000D+00  0.138139D-01  0.000000D+00
     10   0.221856D+00  0.000000D+00  0.389731D+00  0.000000D+00  0.250359D+00
     11  -0.233410D+00  0.000000D+00 -0.525683D+00  0.000000D+00 -0.116481D+01
     12   0.159194D+00  0.000000D+00  0.129140D+00  0.000000D+00 -0.590250D-01
     13   0.628273D-01  0.000000D+00 -0.710089D-01  0.000000D+00 -0.490837D-01
     14   0.130731D+00  0.000000D+00  0.903075D-01  0.000000D+00 -0.337448D+00
     15   0.000000D+00  0.184447D+00  0.000000D+00  0.463420D-01  0.000000D+00
     16   0.000000D+00  0.119114D+00  0.000000D+00  0.152233D+00  0.000000D+00
               831           832           833           834           835 
      1  -0.114398D+03 -0.114388D+03 -0.114383D+03 -0.114374D+03 -0.114372D+03
      2  -0.232609D-01  0.335245D-01  0.000000D+00  0.320378D-05  0.000000D+00
      3  -0.137215D-01  0.377082D-01  0.000000D+00  0.292721D-01  0.000000D+00
      4   0.000000D+00  0.000000D+00  0.595480D-01  0.000000D+00  0.607221D-01
      5   0.719443D-01 -0.925201D-01  0.000000D+00  0.600826D-03  0.000000D+00
      6   0.372752D-01 -0.102182D+00  0.000000D+00 -0.850658D-01  0.000000D+00
      7   0.000000D+00  0.000000D+00 -0.167147D+00  0.000000D+00 -0.180338D+00
      8   0.000000D+00  0.000000D+00  0.223760D+00  0.000000D+00  0.209801D+00
      9   0.000000D+00  0.000000D+00 -0.393129D+00  0.000000D+00 -0.378257D+00
     10  -0.566335D-01  0.198625D+00  0.000000D+00  0.612274D+00  0.000000D+00
     11  -0.586877D+00 -0.340693D+00  0.000000D+00 -0.720324D-01  0.000000D+00
     12  -0.634483D-01  0.178692D+00  0.000000D+00  0.433129D+00  0.000000D+00
     13   0.232044D+00 -0.634576D-01  0.000000D+00  0.130944D-01  0.000000D+00
     14   0.711544D-01  0.254995D+00  0.000000D+00  0.605905D+00  0.000000D+00
     15   0.000000D+00  0.000000D+00  0.362141D+00  0.000000D+00  0.407834D+00
     16   0.000000D+00  0.000000D+00  0.162146D+00  0.000000D+00  0.206309D+00
               836           837           838           839           840 
      1  -0.114359D+03 -0.114335D+03 -0.114331D+03 -0.114331D+03 -0.114299D+03
      2  -0.275764D-01 -0.283776D-02  0.366451D-02 -0.148006D-01  0.000000D+00
      3  -0.618667D-01  0.288307D-01 -0.779897D-02  0.692043D-01  0.000000D+00
      4   0.000000D+00  0.000000D+00  0.000000D+00  0.000000D+00  0.150436D-01
      5   0.918195D-01 -0.787938D-02 -0.180874D-01  0.489755D-01  0.000000D+00
      6   0.191604D+00 -0.823783D-01  0.152905D-01 -0.217415D+00  0.000000D+00
      7   0.000000D+00  0.000000D+00  0.000000D+00  0.000000D+00 -0.389877D-01
      8   0.000000D+00  0.000000D+00  0.000000D+00  0.000000D+00  0.580448D-01
      9   0.000000D+00  0.000000D+00  0.000000D+00  0.000000D+00 -0.118987D+00
     10   0.555984D+00 -0.294066D+00 -0.368811D-01  0.240146D-01  0.000000D+00
     11  -0.412736D+00 -0.965345D+00 -0.708704D-01  0.253601D+00  0.000000D+00
     12   0.409473D+00 -0.506871D+00 -0.120080D+00  0.690488D-01  0.000000D+00
     13   0.589354D-01  0.130749D+00 -0.215708D-01  0.859406D-01  0.000000D+00
     14   0.387765D+00 -0.646500D+00  0.804833D-01  0.635899D-01  0.000000D+00
     15   0.000000D+00  0.000000D+00  0.000000D+00  0.000000D+00  0.883918D-01
     16   0.000000D+00  0.000000D+00  0.000000D+00  0.000000D+00  0.804836D-02
               841           842           843           844           845 
      1  -0.114294D+03 -0.114293D+03 -0.114284D+03 -0.114272D+03 -0.114258D+03
      2   0.000000D+00 -0.192215D-01  0.205222D-01 -0.234423D-01 -0.127923D-01
      3   0.000000D+00 -0.276470D-01  0.549691D-01  0.283322D-02 -0.226545D-01
      4   0.215358D-01  0.000000D+00  0.000000D+00  0.000000D+00  0.000000D+00
      5   0.000000D+00  0.638398D-01 -0.654104D-01  0.766413D-01  0.342592D-01
      6   0.000000D+00  0.893889D-01 -0.157862D+00 -0.379668D-03  0.674804D-01
      7  -0.627578D-01  0.000000D+00  0.000000D+00  0.000000D+00  0.000000D+00
      8   0.420409D-01  0.000000D+00  0.000000D+00  0.000000D+00  0.000000D+00
      9  -0.203521D+00  0.000000D+00  0.000000D+00  0.000000D+00  0.000000D+00
     10   0.000000D+00  0.113385D+00  0.250306D+00  0.263701D+00 -0.702836D-02
     11   0.000000D+00  0.249859D+00 -0.667327D+00  0.141175D-01 -0.117334D+00
     12   0.000000D+00  0.180674D-01  0.265711D+00 -0.775621D-01 -0.178130D+00
     13   0.000000D+00  0.132419D+00  0.147800D+00  0.118006D+00  0.123248D+00
     14   0.000000D+00  0.278740D+00 -0.959170D-01  0.498345D+00 -0.634345D-01
     15   0.794401D-01  0.000000D+00  0.000000D+00  0.000000D+00  0.000000D+00
     16  -0.350816D-01  0.000000D+00  0.000000D+00  0.000000D+00  0.000000D+00
               846           847           848           849           850 
      1  -0.114243D+03 -0.114239D+03 -0.114235D+03 -0.114179D+03 -0.114179D+03
      2  -0.663677D-01 -0.483399D-01  0.000000D+00 -0.317719D-01  0.000000D+00
      3  -0.491771D-01 -0.827583D-01  0.000000D+00  0.612649D-01  0.000000D+00
      4   0.000000D+00  0.000000D+00  0.188852D-02  0.000000D+00 -0.757820D-01
      5   0.204281D+00  0.118967D+00  0.000000D+00  0.884968D-01  0.000000D+00
      6   0.136800D+00  0.228635D+00  0.000000D+00 -0.174567D+00  0.000000D+00
      7   0.000000D+00  0.000000D+00 -0.776455D-02  0.000000D+00  0.218697D+00
      8   0.000000D+00  0.000000D+00 -0.221755D-01  0.000000D+00 -0.192639D+00
      9   0.000000D+00  0.000000D+00 -0.374479D-01  0.000000D+00  0.436452D+00
     10  -0.177128D+00  0.346947D+00  0.000000D+00 -0.751623D-01  0.000000D+00
     11   0.250781D-01 -0.782796D-02  0.000000D+00  0.795688D-02  0.000000D+00
     12   0.170085D+00  0.226117D+00  0.000000D+00 -0.292748D-02  0.000000D+00
     13   0.703106D-01  0.653583D-01  0.000000D+00 -0.535286D-01  0.000000D+00
     14  -0.303680D+00  0.401333D+00  0.000000D+00  0.294404D-01  0.000000D+00
     15   0.000000D+00  0.000000D+00  0.251938D-01  0.000000D+00 -0.286552D+00
     16   0.000000D+00  0.000000D+00 -0.864422D-01  0.000000D+00 -0.239529D+00
               851           852           853           854           855 
      1  -0.114169D+03 -0.114152D+03 -0.114137D+03 -0.114128D+03 -0.114090D+03
      2   0.972683D-02  0.124658D-01  0.357022D-01  0.386547D-01  0.000000D+00
      3   0.733862D-02 -0.160011D-01 -0.188960D-01 -0.875188D-02  0.000000D+00
      4   0.000000D+00  0.000000D+00  0.000000D+00  0.000000D+00  0.780017D-02
      5  -0.263723D-01 -0.391504D-01 -0.924809D-01 -0.137124D+00  0.000000D+00
      6  -0.196107D-01  0.431166D-01  0.547167D-01  0.295821D-01  0.000000D+00
      7   0.000000D+00  0.000000D+00  0.000000D+00  0.000000D+00 -0.191178D-01
      8   0.000000D+00  0.000000D+00  0.000000D+00  0.000000D+00 -0.872832D-02
      9   0.000000D+00  0.000000D+00  0.000000D+00  0.000000D+00 -0.401978D-01
     10  -0.760150D-01 -0.689805D-01 -0.421978D+00 -0.617761D+00  0.000000D+00
     11  -0.316852D+00  0.728417D+00  0.562286D+00 -0.184476D+00  0.000000D+00
     12  -0.224791D-01  0.242342D+00 -0.159099D+00 -0.832938D-01  0.000000D+00
     13   0.295846D-01  0.873236D-01 -0.407400D-01 -0.486883D-01  0.000000D+00
     14   0.296139D-01 -0.812499D-01 -0.159855D+00 -0.570177D+00  0.000000D+00
     15   0.000000D+00  0.000000D+00  0.000000D+00  0.000000D+00 -0.211837D-01
     16   0.000000D+00  0.000000D+00  0.000000D+00  0.000000D+00  0.603193D-01
               856           857           858           859           860 
      1  -0.114083D+03 -0.114081D+03 -0.114049D+03 -0.114041D+03 -0.114039D+03
      2   0.000000D+00  0.662950D-01  0.567588D-01  0.406399D-01  0.446867D-01
      3   0.000000D+00 -0.117034D-01 -0.687783D-01 -0.527499D-01  0.196864D-01
      4  -0.636193D-01  0.000000D+00  0.000000D+00  0.000000D+00  0.000000D+00
      5   0.000000D+00 -0.228727D+00 -0.174149D+00 -0.117145D+00 -0.151290D+00
      6   0.000000D+00  0.332788D-01  0.200453D+00  0.163905D+00 -0.569742D-01
      7   0.185941D+00  0.000000D+00  0.000000D+00  0.000000D+00  0.000000D+00
      8  -0.191904D+00  0.000000D+00  0.000000D+00  0.000000D+00  0.000000D+00
      9   0.412436D+00  0.000000D+00  0.000000D+00  0.000000D+00  0.000000D+00
     10   0.000000D+00  0.570443D+00 -0.447435D-01 -0.165451D+00  0.749784D-01
     11   0.000000D+00  0.325509D-01 -0.448164D+00  0.494342D+00 -0.781800D+00
     12   0.000000D+00 -0.141065D+00 -0.247957D-01  0.120427D+00  0.334814D+00
     13   0.000000D+00 -0.776187D-01 -0.107741D+00 -0.458544D-01  0.403310D-02
     14   0.000000D+00  0.497398D+00 -0.834890D-01 -0.521302D-01 -0.228969D+00
     15  -0.288598D+00  0.000000D+00  0.000000D+00  0.000000D+00  0.000000D+00
     16  -0.222006D+00  0.000000D+00  0.000000D+00  0.000000D+00  0.000000D+00
               861           862           863           864 
      1  -0.113968D+03 -0.113954D+03 -0.113845D+03 -0.113752D+03
      2   0.416974D-02 -0.407171D-01  0.604084D-02 -0.140699D-01
      3  -0.197650D-01  0.229994D-01  0.374259D-01  0.785801D-02
      4   0.000000D+00  0.000000D+00  0.000000D+00  0.000000D+00
      5  -0.136156D-01  0.113478D+00 -0.508723D-02  0.546386D-01
      6   0.816923D-01 -0.742360D-01 -0.102741D+00 -0.125968D-01
      7   0.000000D+00  0.000000D+00  0.000000D+00  0.000000D+00
      8   0.000000D+00  0.000000D+00  0.000000D+00  0.000000D+00
      9   0.000000D+00  0.000000D+00  0.000000D+00  0.000000D+00
     10   0.448670D-01 -0.404657D+00 -0.207459D+00  0.281609D+00
     11  -0.372635D+00  0.490106D+00 -0.106603D-01  0.309201D+00
     12  -0.113964D-01 -0.291139D+00  0.191566D+00 -0.259669D-01
     13   0.109451D-01 -0.242571D-01 -0.321909D-01 -0.278477D-01
     14  -0.539887D-01 -0.224714D+00 -0.906261D-01  0.447559D+00
     15   0.000000D+00  0.000000D+00  0.000000D+00  0.000000D+00
     16   0.000000D+00  0.000000D+00  0.000000D+00  0.000000D+00
 Unable to Open any file for archive entry.
 1\1\GINC-HEL24\SP\RPW91PW91 TD-FC\Gen\C3H6\SABYASACHI\21-Mar-2022\0\\#
 P TD(Nstates=10000) pw91pw91/Gen SCF(maxcycles=100) Int(Grid=ultrafine
 )\\xGDB7_00001_tier4.com\\0,1\C,0,-1.131573,-0.504386,0.\C,0,0.,0.4722
 23,0.\C,0,1.284136,0.150792,0.\H,0,-1.767446,-0.362775,0.877699\H,0,-0
 .770123,-1.533458,0.\H,0,-1.767446,-0.362775,-0.877699\H,0,-0.276551,1
 .523465,0.\H,0,1.608435,-0.884556,0.\H,0,2.057749,0.908326,0.\\Version
 =EM64L-G16RevC.01\State=1-A'\HF=-117.7635698\RMSD=1.636e-09\PG=CS [SG(
 C3H4),X(H2)]\\@
 The archive entry for this job was punched.


 THERE ONCE WAS A GIRL NAMED IRENE,
 WHO LIVED ON DISTILLED KEROSENE,
      BUT SHE STARTED ABSORBIN'
      A NEW HYDROCARBON,
 AND SINCE THEN HAS NEVER BENZENE.
 Job cpu time:       0 days  0 hours 10 minutes 12.1 seconds.
 Elapsed time:       0 days  0 hours  1 minutes 16.8 seconds.
 File lengths (MBytes):  RWF=    377 Int=      0 D2E=      0 Chk=    240 Scr=      1
 Normal termination of Gaussian 16 at Mon Mar 21 20:23:38 2022.
