 Entering Gaussian System, Link 0=g16
 Input=000020.com
 Output=000020.log
 Initial command:
 /home/sabyasachi/g16/l1.exe "/scratch/sabyasachi/PBS_7976517.helios/Gau-148030.inp" -scrdir="/scratch/sabyasachi/PBS_7976517.helios/"
 Entering Link 1 = /home/sabyasachi/g16/l1.exe PID=    148031.
  
 Copyright (c) 1988-2019, Gaussian, Inc.  All Rights Reserved.
  
 This is part of the Gaussian(R) 16 program.  It is based on
 the Gaussian(R) 09 system (copyright 2009, Gaussian, Inc.),
 the Gaussian(R) 03 system (copyright 2003, Gaussian, Inc.),
 the Gaussian(R) 98 system (copyright 1998, Gaussian, Inc.),
 the Gaussian(R) 94 system (copyright 1995, Gaussian, Inc.),
 the Gaussian 92(TM) system (copyright 1992, Gaussian, Inc.),
 the Gaussian 90(TM) system (copyright 1990, Gaussian, Inc.),
 the Gaussian 88(TM) system (copyright 1988, Gaussian, Inc.),
 the Gaussian 86(TM) system (copyright 1986, Carnegie Mellon
 University), and the Gaussian 82(TM) system (copyright 1983,
 Carnegie Mellon University). Gaussian is a federally registered
 trademark of Gaussian, Inc.
  
 This software contains proprietary and confidential information,
 including trade secrets, belonging to Gaussian, Inc.
  
 This software is provided under written license and may be
 used, copied, transmitted, or stored only in accord with that
 written license.
  
 The following legend is applicable only to US Government
 contracts under FAR:
  
                    RESTRICTED RIGHTS LEGEND
  
 Use, reproduction and disclosure by the US Government is
 subject to restrictions as set forth in subparagraphs (a)
 and (c) of the Commercial Computer Software - Restricted
 Rights clause in FAR 52.227-19.
  
 Gaussian, Inc.
 340 Quinnipiac St., Bldg. 40, Wallingford CT 06492
  
  
 ---------------------------------------------------------------
 Warning -- This program may not be used in any manner that
 competes with the business of Gaussian, Inc. or will provide
 assistance to any competitor of Gaussian, Inc.  The licensee
 of this program is prohibited from giving any competitor of
 Gaussian, Inc. access to this program.  By using this program,
 the user acknowledges that Gaussian, Inc. is engaged in the
 business of creating and licensing software in the field of
 computational chemistry and represents and warrants to the
 licensee that it is not a competitor of Gaussian, Inc. and that
 it will not use this program in any manner prohibited above.
 ---------------------------------------------------------------
  

 Cite this work as:
 Gaussian 16, Revision C.01,
 M. J. Frisch, G. W. Trucks, H. B. Schlegel, G. E. Scuseria, 
 M. A. Robb, J. R. Cheeseman, G. Scalmani, V. Barone, 
 G. A. Petersson, H. Nakatsuji, X. Li, M. Caricato, A. V. Marenich, 
 J. Bloino, B. G. Janesko, R. Gomperts, B. Mennucci, H. P. Hratchian, 
 J. V. Ortiz, A. F. Izmaylov, J. L. Sonnenberg, D. Williams-Young, 
 F. Ding, F. Lipparini, F. Egidi, J. Goings, B. Peng, A. Petrone, 
 T. Henderson, D. Ranasinghe, V. G. Zakrzewski, J. Gao, N. Rega, 
 G. Zheng, W. Liang, M. Hada, M. Ehara, K. Toyota, R. Fukuda, 
 J. Hasegawa, M. Ishida, T. Nakajima, Y. Honda, O. Kitao, H. Nakai, 
 T. Vreven, K. Throssell, J. A. Montgomery, Jr., J. E. Peralta, 
 F. Ogliaro, M. J. Bearpark, J. J. Heyd, E. N. Brothers, K. N. Kudin, 
 V. N. Staroverov, T. A. Keith, R. Kobayashi, J. Normand, 
 K. Raghavachari, A. P. Rendell, J. C. Burant, S. S. Iyengar, 
 J. Tomasi, M. Cossi, J. M. Millam, M. Klene, C. Adamo, R. Cammi, 
 J. W. Ochterski, R. L. Martin, K. Morokuma, O. Farkas, 
 J. B. Foresman, and D. J. Fox, Gaussian, Inc., Wallingford CT, 2019.
 
 ******************************************
 Gaussian 16:  EM64L-G16RevC.01  3-Jul-2019
                21-Mar-2022 
 ******************************************
 %mem=64gb
 %nproc=8
 Will use up to    8 processors via shared memory.
 ----------------------------------------------------------------------
 #P TD(Nstates=10000) pw91pw91/Gen SCF(maxcycles=100) Int(Grid=ultrafin
 e)
 ----------------------------------------------------------------------
 1/38=1,172=1/1;
 2/12=2,17=6,18=5,40=1/2;
 3/5=7,11=9,25=1,30=1,74=608,75=-5/1,2,3,8;
 4//1;
 5/5=2,7=100,38=5/2;
 8/6=1,10=1,108=10000/1;
 9/41=10000,42=1,70=2/14;
 6/7=2,8=2,9=2,10=2/1;
 99/5=1,9=1/99;
 Leave Link    1 at Mon Mar 21 20:11:34 2022, MaxMem=  8589934592 cpu:               0.2 elap:               0.0
 (Enter /home/sabyasachi/g16/l101.exe)
 ---------------------
 xGDB7_00001_tier4.com
 ---------------------
 Symbolic Z-matrix:
 Charge =  0 Multiplicity = 1
 6                     0.        1.16389  -0.19314 
 8                     0.        0.        0.58545 
 6                     0.       -1.16389  -0.19314 
 1                     0.        2.01548   0.48583 
 1                    -0.89039   1.2192   -0.8344 
 1                     0.89039   1.2192   -0.8344 
 1                     0.       -2.01548   0.48583 
 1                     0.89039  -1.2192   -0.8344 
 1                    -0.89039  -1.2192   -0.8344 
 
 ITRead=  0  0  0  0  0  0  0  0  0
 MicOpt= -1 -1 -1 -1 -1 -1 -1 -1 -1
 NAtoms=      9 NQM=        9 NQMF=       0 NMMI=      0 NMMIF=      0
                NMic=       0 NMicF=      0.
                    Isotopes and Nuclear Properties:
 (Nuclear quadrupole moments (NQMom) in fm**2, nuclear magnetic moments (NMagM)
  in nuclear magnetons)

  Atom         1           2           3           4           5           6           7           8           9
 IAtWgt=          12          16          12           1           1           1           1           1           1
 AtmWgt=  12.0000000  15.9949146  12.0000000   1.0078250   1.0078250   1.0078250   1.0078250   1.0078250   1.0078250
 NucSpn=           0           0           0           1           1           1           1           1           1
 AtZEff=  -0.0000000  -0.0000000  -0.0000000  -0.0000000  -0.0000000  -0.0000000  -0.0000000  -0.0000000  -0.0000000
 NQMom=    0.0000000   0.0000000   0.0000000   0.0000000   0.0000000   0.0000000   0.0000000   0.0000000   0.0000000
 NMagM=    0.0000000   0.0000000   0.0000000   2.7928460   2.7928460   2.7928460   2.7928460   2.7928460   2.7928460
 AtZNuc=   6.0000000   8.0000000   6.0000000   1.0000000   1.0000000   1.0000000   1.0000000   1.0000000   1.0000000
 Leave Link  101 at Mon Mar 21 20:11:34 2022, MaxMem=  8589934592 cpu:               0.7 elap:               0.1
 (Enter /home/sabyasachi/g16/l202.exe)
                          Input orientation:                          
 ---------------------------------------------------------------------
 Center     Atomic      Atomic             Coordinates (Angstroms)
 Number     Number       Type             X           Y           Z
 ---------------------------------------------------------------------
      1          6           0        0.000000    1.163894   -0.193136
      2          8           0        0.000000    0.000000    0.585449
      3          6           0        0.000000   -1.163894   -0.193136
      4          1           0        0.000000    2.015478    0.485827
      5          1           0       -0.890390    1.219204   -0.834404
      6          1           0        0.890390    1.219204   -0.834404
      7          1           0        0.000000   -2.015478    0.485827
      8          1           0        0.890390   -1.219204   -0.834404
      9          1           0       -0.890390   -1.219204   -0.834404
 ---------------------------------------------------------------------
                    Distance matrix (angstroms):
                    1          2          3          4          5
     1  C    0.000000
     2  O    1.400301   0.000000
     3  C    2.327788   1.400301   0.000000
     4  H    1.089122   2.017939   3.251061   0.000000
     5  H    1.098671   2.072495   2.623581   1.780409   0.000000
     6  H    1.098671   2.072495   2.623581   1.780409   1.780780
     7  H    3.251061   2.017939   1.089122   4.030956   3.605409
     8  H    2.623581   2.072495   1.098671   3.605409   3.019439
     9  H    2.623581   2.072495   1.098671   3.605409   2.438408
                    6          7          8          9
     6  H    0.000000
     7  H    3.605409   0.000000
     8  H    2.438408   1.780409   0.000000
     9  H    3.019439   1.780409   1.780780   0.000000
 Stoichiometry    C2H6O
 Framework group  C2V[C2(O),SGV(C2H2),X(H4)]
 Deg. of freedom     7
 Full point group                 C2V     NOp   4
 Largest Abelian subgroup         C2V     NOp   4
 Largest concise Abelian subgroup C2V     NOp   4
                         Standard orientation:                         
 ---------------------------------------------------------------------
 Center     Atomic      Atomic             Coordinates (Angstroms)
 Number     Number       Type             X           Y           Z
 ---------------------------------------------------------------------
      1          6           0        0.000000    1.163894   -0.193136
      2          8           0       -0.000000   -0.000000    0.585449
      3          6           0       -0.000000   -1.163894   -0.193136
      4          1           0        0.000000    2.015478    0.485827
      5          1           0       -0.890390    1.219204   -0.834404
      6          1           0        0.890390    1.219204   -0.834404
      7          1           0       -0.000000   -2.015478    0.485827
      8          1           0        0.890390   -1.219204   -0.834404
      9          1           0       -0.890390   -1.219204   -0.834404
 ---------------------------------------------------------------------
 Rotational constants (GHZ):          39.6793505          10.1303106           8.9873277
 Leave Link  202 at Mon Mar 21 20:11:34 2022, MaxMem=  8589934592 cpu:               0.1 elap:               0.0
 (Enter /home/sabyasachi/g16/l301.exe)
 General basis read from cards:  (5D, 7F)
 Centers:       4      5      6      7      8      9
 S 3 1.00
     Exponent=  1.3010701000D+01 Coefficients=  1.9682158000D-02
     Exponent=  1.9622572000D+00 Coefficients=  1.3796524000D-01
     Exponent=  4.4453796000D-01 Coefficients=  4.7831935000D-01
 S 1 1.00
     Exponent=  1.2194962000D-01 Coefficients=  1.0000000000D+00
 P 1 1.00
     Exponent=  8.0000000000D-01 Coefficients=  1.0000000000D+00
 P 1 1.00
     Exponent=  1.1704099050D-01 Coefficients=  1.0000000000D+00
 ****
 Centers:       1      3
 S 5 1.00
     Exponent=  1.2384016938D+03 Coefficients=  5.4568832082D-03
     Exponent=  1.8629004992D+02 Coefficients=  4.0638409211D-02
     Exponent=  4.2251176346D+01 Coefficients=  1.8025593888D-01
     Exponent=  1.1676557932D+01 Coefficients=  4.6315121755D-01
     Exponent=  3.5930506482D+00 Coefficients=  4.4087173314D-01
 S 1 1.00
     Exponent=  4.0245147363D-01 Coefficients=  1.0000000000D+00
 S 1 1.00
     Exponent=  1.3090182668D-01 Coefficients=  1.0000000000D+00
 S 1 1.00
     Exponent=  6.7053540256D-02 Coefficients=  1.0000000000D+00
 P 3 1.00
     Exponent=  9.4680970621D+00 Coefficients=  3.8387871728D-02
     Exponent=  2.0103545142D+00 Coefficients=  2.1117025112D-01
     Exponent=  5.4771004707D-01 Coefficients=  5.1328172114D-01
 P 1 1.00
     Exponent=  1.5268613795D-01 Coefficients=  1.0000000000D+00
 D 1 1.00
     Exponent=  8.0000000000D-01 Coefficients=  1.0000000000D+00
 D 1 1.00
     Exponent=  1.1713185140D-01 Coefficients=  1.0000000000D+00
 ****
 Centers:       2
 S 5 1.00
     Exponent=  2.2661767785D+03 Coefficients= -5.3431809926D-03
     Exponent=  3.4087010191D+02 Coefficients= -3.9890039230D-02
     Exponent=  7.7363135167D+01 Coefficients= -1.7853911985D-01
     Exponent=  2.1479644940D+01 Coefficients= -4.6427684959D-01
     Exponent=  6.6589433124D+00 Coefficients= -4.4309745172D-01
 S 1 1.00
     Exponent=  8.0975975668D-01 Coefficients=  1.0000000000D+00
 S 1 1.00
     Exponent=  2.5530772234D-01 Coefficients=  1.0000000000D+00
 S 1 1.00
     Exponent=  7.6572453250D-02 Coefficients=  1.0000000000D+00
 P 3 1.00
     Exponent=  1.7721504317D+01 Coefficients=  4.3394573193D-02
     Exponent=  3.8635505440D+00 Coefficients=  2.3094120765D-01
     Exponent=  1.0480920883D+00 Coefficients=  5.1375311064D-01
 P 1 1.00
     Exponent=  2.7641544411D-01 Coefficients=  1.0000000000D+00
 P 1 1.00
     Exponent=  6.9002276350D-02 Coefficients=  1.0000000000D+00
 D 1 1.00
     Exponent=  1.2000000000D+00 Coefficients=  1.0000000000D+00
 D 1 1.00
     Exponent=  1.7992024323D-01 Coefficients=  1.0000000000D+00
 ****
 Ernie: Thresh=  0.10000D-02 Tol=  0.10000D-05 Strict=F.
 There are    43 symmetry adapted cartesian basis functions of A1  symmetry.
 There are    18 symmetry adapted cartesian basis functions of A2  symmetry.
 There are    21 symmetry adapted cartesian basis functions of B1  symmetry.
 There are    35 symmetry adapted cartesian basis functions of B2  symmetry.
 There are    39 symmetry adapted basis functions of A1  symmetry.
 There are    18 symmetry adapted basis functions of A2  symmetry.
 There are    21 symmetry adapted basis functions of B1  symmetry.
 There are    33 symmetry adapted basis functions of B2  symmetry.
   111 basis functions,   159 primitive gaussians,   117 cartesian basis functions
    13 alpha electrons       13 beta electrons
       nuclear repulsion energy        84.2993183068 Hartrees.
 IExCor=  608 DFT=T Ex=PW91 Corr=PW91 ExCW=0 ScaHFX=  0.000000
 ScaDFX=  1.000000  1.000000  1.000000  1.000000 ScalE2=  1.000000  1.000000
 IRadAn=      5 IRanWt=     -1 IRanGd=            0 ICorTp=0 IEmpDi=  4
 NAtoms=    9 NActive=    9 NUniq=    4 SFac= 4.00D+00 NAtFMM=   60 NAOKFM=F Big=F
 Integral buffers will be    131072 words long.
 Regular integral format.
 Two-electron integral symmetry is turned on.
 Leave Link  301 at Mon Mar 21 20:11:35 2022, MaxMem=  8589934592 cpu:               0.5 elap:               0.1
 (Enter /home/sabyasachi/g16/l302.exe)
 NPDir=0 NMtPBC=     1 NCelOv=     1 NCel=       1 NClECP=     1 NCelD=      1
         NCelK=      1 NCelE2=     1 NClLst=     1 CellRange=     0.0.
 One-electron integrals computed using PRISM.
 One-electron integral symmetry used in STVInt
 NBasis=   111 RedAO= T EigKep=  3.93D-04  NBF=    39    18    21    33
 NBsUse=   111 1.00D-06 EigRej= -1.00D+00 NBFU=    39    18    21    33
 Precomputing XC quadrature grid using
 IXCGrd= 4 IRadAn=           5 IRanWt=          -1 IRanGd=           0 AccXCQ= 0.00D+00.
 Generated NRdTot=       0 NPtTot=           0 NUsed=           0 NTot=          32
 NSgBfM=   117   117   117   117   117 MxSgAt=     9 MxSgA2=     9.
 Leave Link  302 at Mon Mar 21 20:11:35 2022, MaxMem=  8589934592 cpu:               1.1 elap:               0.2
 (Enter /home/sabyasachi/g16/l303.exe)
 DipDrv:  MaxL=1.
 Leave Link  303 at Mon Mar 21 20:11:35 2022, MaxMem=  8589934592 cpu:               0.2 elap:               0.0
 (Enter /home/sabyasachi/g16/l308.exe)
 Leave Link  308 at Mon Mar 21 20:11:35 2022, MaxMem=  8589934592 cpu:               0.2 elap:               0.1
 (Enter /home/sabyasachi/g16/l401.exe)
 ExpMin= 6.71D-02 ExpMax= 2.27D+03 ExpMxC= 3.41D+02 IAcc=3 IRadAn=         5 AccDes= 0.00D+00
 Harris functional with IExCor=  608 and IRadAn=       5 diagonalized for initial guess.
 HarFok:  IExCor=  608 AccDes= 0.00D+00 IRadAn=         5 IDoV= 1 UseB2=F ITyADJ=14
 ICtDFT=  3500011 ScaDFX=  1.000000  1.000000  1.000000  1.000000
 FoFCou: FMM=F IPFlag=           0 FMFlag=      100000 FMFlg1=           0
         NFxFlg=           0 DoJE=T BraDBF=F KetDBF=T FulRan=T
         wScrn=  0.000000 ICntrl=       500 IOpCl=  0 I1Cent=   200000004 NGrid=           0
         NMat0=    1 NMatS0=      1 NMatT0=    0 NMatD0=    1 NMtDS0=    0 NMtDT0=    0
 Petite list used in FoFCou.
 Harris En= -154.930076262813    
 JPrj=0 DoOrth=F DoCkMO=F.
 Initial guess orbital symmetries:
       Occupied  (A1) (B2) (A1) (A1) (B2) (A1) (B2) (A1) (B1) (A2)
                 (B2) (A1) (B1)
       Virtual   (A1) (A1) (B2) (A1) (B1) (B2) (A2) (A1) (B1) (B2)
                 (A1) (A2) (B2) (B1) (B2) (A1) (A1) (B2) (A1) (B1)
                 (A1) (B1) (A1) (A2) (B2) (B1) (B2) (A2) (B2) (A2)
                 (A1) (B1) (A1) (B2) (A1) (A2) (B1) (B2) (A1) (B2)
                 (A2) (B2) (A1) (B1) (B2) (A1) (A1) (A2) (A1) (B2)
                 (B1) (B2) (A1) (A2) (B1) (A1) (B2) (A1) (A2) (B2)
                 (B2) (A1) (B1) (A2) (B2) (B1) (B1) (A2) (A1) (B2)
                 (A1) (B1) (A1) (A2) (B2) (A1) (B2) (A2) (B1) (A1)
                 (B2) (B2) (A1) (B1) (A1) (A2) (B2) (A1) (B2) (A1)
                 (A2) (B1) (B2) (B1) (A2) (A1) (A1) (B2)
 The electronic state of the initial guess is 1-A1.
 Leave Link  401 at Mon Mar 21 20:11:35 2022, MaxMem=  8589934592 cpu:               1.7 elap:               0.2
 (Enter /home/sabyasachi/g16/l502.exe)
 Keep J ints in memory in symmetry-blocked form, NReq=26885248.
 FoFCou: FMM=F IPFlag=           0 FMFlag=           0 FMFlg1=           0
         NFxFlg=           0 DoJE=F BraDBF=F KetDBF=F FulRan=T
         wScrn=  0.000000 ICntrl=       600 IOpCl=  0 I1Cent=           0 NGrid=           0
         NMat0=    1 NMatS0=   6216 NMatT0=    0 NMatD0=    1 NMtDS0=    0 NMtDT0=    0
 Petite list used in FoFCou.
 Closed shell SCF:
 Using DIIS extrapolation, IDIIS=  1040.
 NGot=  8589934592 LenX=  8585009726 LenY=  8584995596
 Requested convergence on RMS density matrix=1.00D-08 within 100 cycles.
 Requested convergence on MAX density matrix=1.00D-06.
 Requested convergence on             energy=1.00D-06.
 No special actions if energy rises.
 Integral accuracy reduced to 1.0D-05 until final iterations.

 Cycle   1  Pass 0  IDiag  1:
 E= -154.779067342699    
 DIIS: error= 2.77D-02 at cycle   1 NSaved=   1.
 NSaved= 1 IEnMin= 1 EnMin= -154.779067342699     IErMin= 1 ErrMin= 2.77D-02
 ErrMax= 2.77D-02  0.00D+00 EMaxC= 1.00D-01 BMatC= 6.43D-02 BMatP= 6.43D-02
 IDIUse=3 WtCom= 7.23D-01 WtEn= 2.77D-01
 Coeff-Com:  0.100D+01
 Coeff-En:   0.100D+01
 Coeff:      0.100D+01
 Gap=     0.160 Goal=   None    Shift=    0.000
 GapD=    0.160 DampG=1.000 DampE=0.500 DampFc=0.5000 IDamp=-1.
 Damping current iteration by 5.00D-01
 RMSDP=5.67D-03 MaxDP=1.13D-01              OVMax= 2.02D-01

 Cycle   2  Pass 0  IDiag  1:
 E= -154.797734271872     Delta-E=       -0.018666929173 Rises=F Damp=T
 DIIS: error= 1.05D-02 at cycle   2 NSaved=   2.
 NSaved= 2 IEnMin= 2 EnMin= -154.797734271872     IErMin= 2 ErrMin= 1.05D-02
 ErrMax= 1.05D-02  0.00D+00 EMaxC= 1.00D-01 BMatC= 1.02D-02 BMatP= 6.43D-02
 IDIUse=3 WtCom= 8.95D-01 WtEn= 1.05D-01
 Coeff-Com:  0.245D+00 0.755D+00
 Coeff-En:   0.369D+00 0.631D+00
 Coeff:      0.258D+00 0.742D+00
 Gap=     0.229 Goal=   None    Shift=    0.000
 RMSDP=1.44D-03 MaxDP=2.71D-02 DE=-1.87D-02 OVMax= 1.43D-01

 Cycle   3  Pass 0  IDiag  1:
 E= -154.849665548282     Delta-E=       -0.051931276411 Rises=F Damp=F
 DIIS: error= 8.09D-03 at cycle   3 NSaved=   3.
 NSaved= 3 IEnMin= 3 EnMin= -154.849665548282     IErMin= 3 ErrMin= 8.09D-03
 ErrMax= 8.09D-03  0.00D+00 EMaxC= 1.00D-01 BMatC= 6.09D-03 BMatP= 1.02D-02
 IDIUse=3 WtCom= 9.19D-01 WtEn= 8.09D-02
 Coeff-Com:  0.114D+00 0.446D+00 0.440D+00
 Coeff-En:   0.000D+00 0.000D+00 0.100D+01
 Coeff:      0.105D+00 0.410D+00 0.485D+00
 Gap=     0.214 Goal=   None    Shift=    0.000
 RMSDP=6.66D-04 MaxDP=1.89D-02 DE=-5.19D-02 OVMax= 2.24D-02

 Cycle   4  Pass 0  IDiag  1:
 E= -154.853658302507     Delta-E=       -0.003992754225 Rises=F Damp=F
 DIIS: error= 2.71D-03 at cycle   4 NSaved=   4.
 NSaved= 4 IEnMin= 4 EnMin= -154.853658302507     IErMin= 4 ErrMin= 2.71D-03
 ErrMax= 2.71D-03  0.00D+00 EMaxC= 1.00D-01 BMatC= 1.08D-03 BMatP= 6.09D-03
 IDIUse=3 WtCom= 9.73D-01 WtEn= 2.71D-02
 Coeff-Com:  0.322D-01 0.142D+00 0.304D+00 0.521D+00
 Coeff-En:   0.000D+00 0.000D+00 0.161D+00 0.839D+00
 Coeff:      0.313D-01 0.138D+00 0.300D+00 0.530D+00
 Gap=     0.217 Goal=   None    Shift=    0.000
 RMSDP=2.32D-04 MaxDP=6.21D-03 DE=-3.99D-03 OVMax= 5.97D-03

 Cycle   5  Pass 0  IDiag  1:
 E= -154.854448725488     Delta-E=       -0.000790422981 Rises=F Damp=F
 DIIS: error= 3.27D-04 at cycle   5 NSaved=   5.
 NSaved= 5 IEnMin= 5 EnMin= -154.854448725488     IErMin= 5 ErrMin= 3.27D-04
 ErrMax= 3.27D-04  0.00D+00 EMaxC= 1.00D-01 BMatC= 1.18D-05 BMatP= 1.08D-03
 IDIUse=3 WtCom= 9.97D-01 WtEn= 3.27D-03
 Coeff-Com:  0.243D-02 0.128D-01 0.619D-01 0.175D+00 0.748D+00
 Coeff-En:   0.000D+00 0.000D+00 0.000D+00 0.000D+00 0.100D+01
 Coeff:      0.242D-02 0.128D-01 0.617D-01 0.174D+00 0.749D+00
 Gap=     0.217 Goal=   None    Shift=    0.000
 RMSDP=3.88D-05 MaxDP=4.22D-04 DE=-7.90D-04 OVMax= 9.50D-04

 Cycle   6  Pass 0  IDiag  1:
 E= -154.854458664198     Delta-E=       -0.000009938710 Rises=F Damp=F
 DIIS: error= 5.50D-05 at cycle   6 NSaved=   6.
 NSaved= 6 IEnMin= 6 EnMin= -154.854458664198     IErMin= 6 ErrMin= 5.50D-05
 ErrMax= 5.50D-05  0.00D+00 EMaxC= 1.00D-01 BMatC= 1.92D-07 BMatP= 1.18D-05
 IDIUse=1 WtCom= 1.00D+00 WtEn= 0.00D+00
 Coeff-Com:  0.465D-03 0.170D-02 0.163D-01 0.501D-01 0.264D+00 0.667D+00
 Coeff:      0.465D-03 0.170D-02 0.163D-01 0.501D-01 0.264D+00 0.667D+00
 Gap=     0.217 Goal=   None    Shift=    0.000
 RMSDP=7.72D-06 MaxDP=7.83D-05 DE=-9.94D-06 OVMax= 1.59D-04

 Initial convergence to 1.0D-05 achieved.  Increase integral accuracy.
 Cycle   7  Pass 1  IDiag  1:
 E= -154.854470925651     Delta-E=       -0.000012261453 Rises=F Damp=F
 DIIS: error= 6.09D-06 at cycle   1 NSaved=   1.
 NSaved= 1 IEnMin= 1 EnMin= -154.854470925651     IErMin= 1 ErrMin= 6.09D-06
 ErrMax= 6.09D-06  0.00D+00 EMaxC= 1.00D-01 BMatC= 4.40D-09 BMatP= 4.40D-09
 IDIUse=1 WtCom= 1.00D+00 WtEn= 0.00D+00
 Coeff-Com:  0.100D+01
 Coeff:      0.100D+01
 Gap=     0.217 Goal=   None    Shift=    0.000
 RMSDP=7.72D-06 MaxDP=7.83D-05 DE=-1.23D-05 OVMax= 3.76D-05

 Cycle   8  Pass 1  IDiag  1:
 E= -154.854470929944     Delta-E=       -0.000000004292 Rises=F Damp=F
 DIIS: error= 4.10D-06 at cycle   2 NSaved=   2.
 NSaved= 2 IEnMin= 2 EnMin= -154.854470929944     IErMin= 2 ErrMin= 4.10D-06
 ErrMax= 4.10D-06  0.00D+00 EMaxC= 1.00D-01 BMatC= 1.95D-09 BMatP= 4.40D-09
 IDIUse=1 WtCom= 1.00D+00 WtEn= 0.00D+00
 Coeff-Com:  0.387D+00 0.613D+00
 Coeff:      0.387D+00 0.613D+00
 Gap=     0.217 Goal=   None    Shift=    0.000
 RMSDP=6.45D-07 MaxDP=1.06D-05 DE=-4.29D-09 OVMax= 1.81D-05

 Cycle   9  Pass 1  IDiag  1:
 E= -154.854470931873     Delta-E=       -0.000000001929 Rises=F Damp=F
 DIIS: error= 1.63D-06 at cycle   3 NSaved=   3.
 NSaved= 3 IEnMin= 3 EnMin= -154.854470931873     IErMin= 3 ErrMin= 1.63D-06
 ErrMax= 1.63D-06  0.00D+00 EMaxC= 1.00D-01 BMatC= 2.11D-10 BMatP= 1.95D-09
 IDIUse=1 WtCom= 1.00D+00 WtEn= 0.00D+00
 Coeff-Com:  0.101D+00 0.280D+00 0.618D+00
 Coeff:      0.101D+00 0.280D+00 0.618D+00
 Gap=     0.217 Goal=   None    Shift=    0.000
 RMSDP=1.74D-07 MaxDP=3.79D-06 DE=-1.93D-09 OVMax= 6.37D-06

 Cycle  10  Pass 1  IDiag  1:
 E= -154.854470932014     Delta-E=       -0.000000000141 Rises=F Damp=F
 DIIS: error= 9.52D-07 at cycle   4 NSaved=   4.
 NSaved= 4 IEnMin= 4 EnMin= -154.854470932014     IErMin= 4 ErrMin= 9.52D-07
 ErrMax= 9.52D-07  0.00D+00 EMaxC= 1.00D-01 BMatC= 6.90D-11 BMatP= 2.11D-10
 IDIUse=1 WtCom= 1.00D+00 WtEn= 0.00D+00
 Coeff-Com:  0.162D-01 0.918D-01 0.400D+00 0.492D+00
 Coeff:      0.162D-01 0.918D-01 0.400D+00 0.492D+00
 Gap=     0.217 Goal=   None    Shift=    0.000
 RMSDP=7.39D-08 MaxDP=1.85D-06 DE=-1.41D-10 OVMax= 2.87D-06

 Cycle  11  Pass 1  IDiag  1:
 E= -154.854470932071     Delta-E=       -0.000000000058 Rises=F Damp=F
 DIIS: error= 1.94D-07 at cycle   5 NSaved=   5.
 NSaved= 5 IEnMin= 5 EnMin= -154.854470932071     IErMin= 5 ErrMin= 1.94D-07
 ErrMax= 1.94D-07  0.00D+00 EMaxC= 1.00D-01 BMatC= 6.56D-12 BMatP= 6.90D-11
 IDIUse=1 WtCom= 1.00D+00 WtEn= 0.00D+00
 Coeff-Com: -0.681D-03 0.339D-01 0.208D+00 0.308D+00 0.450D+00
 Coeff:     -0.681D-03 0.339D-01 0.208D+00 0.308D+00 0.450D+00
 Gap=     0.217 Goal=   None    Shift=    0.000
 RMSDP=1.97D-08 MaxDP=4.58D-07 DE=-5.78D-11 OVMax= 4.95D-07

 Cycle  12  Pass 1  IDiag  1:
 E= -154.854470932078     Delta-E=       -0.000000000007 Rises=F Damp=F
 DIIS: error= 3.44D-08 at cycle   6 NSaved=   6.
 NSaved= 6 IEnMin= 6 EnMin= -154.854470932078     IErMin= 6 ErrMin= 3.44D-08
 ErrMax= 3.44D-08  0.00D+00 EMaxC= 1.00D-01 BMatC= 1.50D-13 BMatP= 6.56D-12
 IDIUse=1 WtCom= 1.00D+00 WtEn= 0.00D+00
 Coeff-Com: -0.131D-02 0.922D-02 0.696D-01 0.107D+00 0.208D+00 0.608D+00
 Coeff:     -0.131D-02 0.922D-02 0.696D-01 0.107D+00 0.208D+00 0.608D+00
 Gap=     0.217 Goal=   None    Shift=    0.000
 RMSDP=3.82D-09 MaxDP=8.30D-08 DE=-6.57D-12 OVMax= 9.96D-08

 SCF Done:  E(RPW91-PW91) =  -154.854470932     A.U. after   12 cycles
            NFock= 12  Conv=0.38D-08     -V/T= 2.0102
 KE= 1.532865077565D+02 PE=-5.294842520481D+02 EE= 1.370439550527D+02
 Leave Link  502 at Mon Mar 21 20:11:36 2022, MaxMem=  8589934592 cpu:               9.6 elap:               1.2
 (Enter /home/sabyasachi/g16/l801.exe)
 DoSCS=F DFT=T ScalE2(SS,OS)=  1.000000  1.000000
 ExpMin= 6.71D-02 ExpMax= 2.27D+03 ExpMxC= 3.41D+02 IAcc=3 IRadAn=         5 AccDes= 0.00D+00
 HarFok:  IExCor=  205 AccDes= 0.00D+00 IRadAn=         5 IDoV=-2 UseB2=F ITyADJ=14
 ICtDFT= 12500011 ScaDFX=  1.000000  1.000000  1.000000  1.000000
 Largest valence mixing into a core orbital is  7.10D-05
 Largest core mixing into a valence orbital is  1.38D-05
 Range of M.O.s used for correlation:     4   111
 NBasis=   111 NAE=    13 NBE=    13 NFC=     3 NFV=     0
 NROrb=    108 NOA=    10 NOB=    10 NVA=    98 NVB=    98

 **** Warning!!: The largest alpha MO coefficient is  0.15131982D+02

 Leave Link  801 at Mon Mar 21 20:11:36 2022, MaxMem=  8589934592 cpu:               0.6 elap:               0.1
 (Enter /home/sabyasachi/g16/l914.exe)
 RHF ground state
 Keep J ints in memory in symmetry-blocked form, NReq=1089037740.
 FoFCou: FMM=F IPFlag=           0 FMFlag=           0 FMFlg1=           0
         NFxFlg=           0 DoJE=F BraDBF=F KetDBF=F FulRan=T
         wScrn=  0.000000 ICntrl=       600 IOpCl=  0 I1Cent=           0 NGrid=           0
         NMat0=    1 NMatS0=   6216 NMatT0=    0 NMatD0=    1 NMtDS0=    0 NMtDT0=    0
 Petite list used in FoFCou.
 MDV=  8589934592 DFT=T DoStab=F Mixed=F DoRPA=T DoScal=T NonHer=F
 Making orbital integer symmetry assigments:
 Orbital symmetries:
       Occupied  (A1) (B2) (A1) (A1) (B2) (A1) (B2) (A1) (B1) (A2)
                 (B2) (A1) (B1)
       Virtual   (A1) (B2) (A1) (B1) (A1) (B2) (B1) (A1) (A2) (A1)
                 (B2) (A2) (B2) (B1) (B2) (A1) (A1) (B2) (A1) (B1)
                 (A1) (B1) (A1) (A2) (B1) (B2) (A2) (B2) (A2) (B2)
                 (A1) (B1) (B2) (A1) (A1) (A2) (B2) (B1) (A1) (B2)
                 (A2) (B2) (A1) (B1) (B2) (A1) (A2) (A1) (A1) (B1)
                 (B2) (B2) (A1) (A2) (A1) (B1) (B2) (A1) (A2) (B2)
                 (B2) (A1) (B1) (A2) (B2) (B1) (A2) (B1) (A1) (B2)
                 (A1) (B1) (A1) (A2) (B2) (A1) (B2) (A2) (B1) (A1)
                 (B2) (B2) (A1) (B1) (A2) (A1) (B2) (A1) (B2) (A1)
                 (A2) (B1) (B2) (B1) (A2) (A1) (A1) (B2)
   980 initial guesses have been made.
 Convergence on wavefunction:    0.001000000000000
 Davidson Disk Diagonalization:  ConvIn= 1.00D-03 SkipCon=T Conv= 1.00D-03.
 Max sub-space:  3920 roots to seek:  1960 dimension of matrix:         1960
 *** WARNING: Number of orthogonal guesses is          980
 Iteration     1 Dimension   980 NMult     0 NNew    980
 CISAX will form   980 AO SS matrices at one time.
 NMat=   980 NSing=   980 JSym2X=-1.
 New state      9 was old state     11
 New state     11 was old state      9
 New state     27 was old state     28
 New state     28 was old state     27
 New state     29 was old state     30
 New state     30 was old state     29
 New state     32 was old state     33
 New state     33 was old state     32
 New state     34 was old state     36
 New state     35 was old state     38
 New state     36 was old state     34
 New state     38 was old state     39
 New state     39 was old state     35
 New state     42 was old state     43
 New state     43 was old state     42
 New state     46 was old state     47
 New state     47 was old state     49
 New state     48 was old state     46
 New state     49 was old state     48
 New state     51 was old state     52
 New state     52 was old state     51
 New state     55 was old state     56
 New state     56 was old state     55
 New state     60 was old state     63
 New state     61 was old state     62
 New state     62 was old state     60
 New state     63 was old state     61
 New state     64 was old state     66
 New state     66 was old state     67
 New state     67 was old state     69
 New state     68 was old state     70
 New state     69 was old state     72
 New state     70 was old state     73
 New state     71 was old state     75
 New state     72 was old state     64
 New state     73 was old state     68
 New state     74 was old state     76
 New state     75 was old state     74
 New state     76 was old state     71
 New state     78 was old state     79
 New state     79 was old state     78
 New state     81 was old state     83
 New state     82 was old state     81
 New state     83 was old state     82
 New state     84 was old state     86
 New state     85 was old state     88
 New state     86 was old state     85
 New state     87 was old state     91
 New state     88 was old state     90
 New state     89 was old state     92
 New state     90 was old state     93
 New state     91 was old state     96
 New state     92 was old state     89
 New state     93 was old state     98
 New state     95 was old state     99
 New state     96 was old state     97
 New state     97 was old state    101
 New state     98 was old state    102
 New state     99 was old state     95
 New state    100 was old state    103
 New state    101 was old state    100
 New state    102 was old state    111
 New state    103 was old state    106
 New state    105 was old state    107
 New state    106 was old state    105
 No map to state    107
 New state    108 was old state    109
 New state    109 was old state    113
 New state    110 was old state    108
 New state    111 was old state    112
 New state    112 was old state    115
 New state    113 was old state    110
 New state    115 was old state    116
 New state    116 was old state    117
 New state    117 was old state    121
 No map to state    120
 New state    121 was old state    120
 New state    122 was old state    123
 New state    123 was old state    122
 New state    124 was old state    125
 New state    125 was old state    130
 New state    126 was old state    128
 New state    127 was old state    124
 New state    128 was old state    129
 New state    129 was old state    127
 New state    130 was old state    126
 New state    131 was old state    132
 New state    132 was old state    136
 New state    133 was old state    134
 New state    134 was old state    133
 New state    136 was old state    138
 New state    137 was old state    131
 New state    138 was old state    140
 New state    139 was old state    141
 New state    140 was old state    139
 New state    141 was old state    137
 New state    142 was old state    144
 New state    143 was old state    146
 New state    144 was old state    142
 New state    145 was old state    147
 New state    146 was old state    143
 New state    147 was old state    145
 New state    148 was old state    149
 New state    149 was old state    148
 New state    151 was old state    152
 New state    152 was old state    151
 New state    154 was old state    157
 New state    155 was old state    154
 New state    156 was old state    155
 New state    157 was old state    159
 New state    158 was old state    161
 New state    159 was old state    160
 New state    160 was old state    162
 New state    161 was old state    164
 New state    162 was old state    163
 New state    163 was old state    167
 New state    164 was old state    166
 New state    166 was old state    158
 New state    167 was old state    168
 New state    168 was old state    176
 New state    169 was old state    171
 New state    171 was old state    175
 New state    172 was old state    169
 New state    173 was old state    172
 New state    175 was old state    177
 New state    176 was old state    179
 New state    177 was old state    173
 New state    178 was old state    180
 New state    179 was old state    187
 New state    180 was old state    181
 New state    181 was old state    178
 New state    185 was old state    186
 New state    186 was old state    188
 New state    187 was old state    185
 New state    188 was old state    189
 New state    189 was old state    195
 New state    190 was old state    194
 New state    192 was old state    193
 New state    193 was old state    196
 New state    194 was old state    201
 New state    195 was old state    190
 New state    196 was old state    198
 New state    197 was old state    200
 New state    198 was old state    203
 New state    199 was old state    197
 New state    200 was old state    205
 New state    201 was old state    202
 New state    202 was old state    199
 New state    203 was old state    206
 New state    204 was old state    209
 New state    205 was old state    208
 New state    206 was old state    210
 New state    208 was old state    204
 New state    209 was old state    211
 New state    210 was old state    212
 New state    211 was old state    213
 New state    212 was old state    216
 New state    213 was old state    217
 New state    214 was old state    220
 New state    215 was old state    218
 New state    216 was old state    244
 New state    217 was old state    214
 New state    218 was old state    222
 New state    219 was old state    215
 New state    220 was old state    219
 New state    221 was old state    223
 New state    222 was old state    224
 New state    223 was old state    225
 New state    224 was old state    229
 New state    225 was old state    231
 New state    226 was old state    221
 New state    227 was old state    228
 New state    228 was old state    232
 New state    229 was old state    227
 New state    231 was old state    226
 New state    232 was old state    233
 New state    233 was old state    235
 New state    235 was old state    236
 New state    236 was old state    238
 New state    237 was old state    241
 New state    238 was old state    243
 New state    239 was old state    237
 New state    240 was old state    242
 New state    241 was old state    245
 New state    242 was old state    239
 New state    243 was old state    240
 New state    244 was old state    246
 New state    245 was old state    262
 New state    246 was old state    247
 New state    247 was old state    249
 New state    249 was old state    251
 New state    250 was old state    253
 New state    251 was old state    252
 New state    252 was old state    256
 New state    253 was old state    250
 New state    254 was old state    255
 New state    255 was old state    257
 New state    256 was old state    254
 New state    257 was old state    260
 New state    258 was old state    263
 New state    259 was old state    261
 New state    260 was old state    259
 New state    261 was old state    265
 New state    262 was old state    258
 New state    263 was old state    264
 New state    264 was old state    266
 New state    265 was old state    267
 New state    266 was old state    287
 New state    267 was old state    268
 New state    268 was old state    271
 New state    271 was old state    272
 New state    272 was old state    273
 New state    273 was old state    274
 New state    274 was old state    275
 New state    275 was old state    276
 New state    276 was old state    277
 New state    277 was old state    278
 New state    278 was old state    280
 New state    280 was old state    282
 New state    281 was old state    283
 New state    282 was old state    284
 New state    283 was old state    281
 New state    284 was old state    286
 New state    285 was old state    288
 New state    286 was old state    289
 New state    287 was old state    290
 New state    288 was old state    291
 New state    289 was old state    293
 New state    290 was old state    292
 New state    291 was old state    295
 New state    292 was old state    294
 New state    293 was old state    296
 New state    294 was old state    316
 New state    295 was old state    297
 New state    296 was old state    298
 New state    297 was old state    300
 New state    298 was old state    301
 New state    299 was old state    302
 New state    300 was old state    306
 New state    301 was old state    304
 New state    302 was old state    303
 New state    303 was old state    299
 New state    304 was old state    336
 New state    305 was old state    307
 New state    306 was old state    309
 New state    307 was old state    305
 New state    309 was old state    313
 New state    310 was old state    311
 New state    311 was old state    314
 New state    312 was old state    310
 New state    313 was old state    312
 New state    314 was old state    317
 New state    315 was old state    318
 New state    316 was old state    321
 New state    317 was old state    324
 New state    318 was old state    319
 New state    319 was old state    322
 New state    321 was old state    329
 New state    322 was old state    326
 New state    324 was old state    328
 New state    325 was old state    327
 New state    326 was old state    325
 New state    327 was old state    331
 New state    328 was old state    330
 New state    329 was old state    333
 New state    330 was old state    315
 New state    331 was old state    337
 New state    332 was old state    334
 New state    333 was old state    332
 New state    334 was old state    338
 New state    336 was old state    339
 New state    337 was old state    344
 New state    338 was old state    340
 New state    339 was old state    342
 New state    340 was old state    341
 New state    341 was old state    343
 New state    342 was old state    345
 New state    343 was old state    346
 New state    344 was old state    347
 New state    345 was old state    348
 New state    346 was old state    349
 New state    347 was old state    355
 New state    348 was old state    350
 New state    349 was old state    352
 New state    350 was old state    351
 New state    351 was old state    365
 New state    352 was old state    353
 New state    353 was old state    354
 New state    354 was old state    356
 New state    355 was old state    358
 New state    356 was old state    367
 New state    358 was old state    360
 New state    360 was old state    376
 New state    362 was old state    363
 New state    363 was old state    362
 New state    365 was old state    366
 New state    366 was old state    369
 New state    367 was old state    368
 New state    368 was old state    371
 New state    369 was old state    375
 New state    371 was old state    372
 New state    372 was old state    373
 New state    373 was old state    378
 New state    374 was old state    377
 New state    375 was old state    379
 New state    376 was old state    374
 New state    377 was old state    385
 New state    378 was old state    380
 New state    379 was old state    391
 New state    380 was old state    400
 New state    381 was old state    383
 New state    383 was old state    381
 New state    385 was old state    386
 New state    386 was old state    388
 New state    387 was old state    389
 New state    388 was old state    392
 New state    389 was old state    390
 New state    390 was old state    387
 New state    391 was old state    395
 New state    392 was old state    393
 New state    393 was old state    396
 New state    395 was old state    397
 New state    396 was old state    403
 New state    397 was old state    398
 New state    398 was old state    399
 New state    399 was old state    402
 New state    400 was old state    405
 New state    402 was old state    410
 New state    403 was old state    407
 New state    405 was old state    406
 New state    406 was old state    408
 New state    407 was old state    409
 New state    408 was old state    411
 New state    409 was old state    413
 New state    410 was old state    412
 New state    411 was old state    416
 New state    412 was old state    415
 New state    413 was old state    414
 No map to state    414
 No map to state    415
 New state    416 was old state    417
 New state    417 was old state    441
 New state    423 was old state    424
 New state    424 was old state    427
 New state    425 was old state    426
 New state    426 was old state    428
 New state    427 was old state    425
 New state    428 was old state    429
 New state    429 was old state    431
 New state    430 was old state    432
 New state    431 was old state    430
 New state    432 was old state    433
 New state    433 was old state    434
 New state    434 was old state    435
 New state    435 was old state    440
 New state    436 was old state    438
 New state    438 was old state    439
 New state    439 was old state    442
 New state    440 was old state    443
 New state    441 was old state    436
 New state    442 was old state    423
 New state    443 was old state    444
 New state    444 was old state    445
 New state    445 was old state    446
 New state    446 was old state    447
 New state    447 was old state    448
 New state    448 was old state    449
 New state    449 was old state    450
 New state    450 was old state    453
 New state    451 was old state    456
 New state    452 was old state    454
 New state    453 was old state    451
 New state    454 was old state    457
 New state    455 was old state    463
 New state    456 was old state    458
 New state    457 was old state    461
 New state    458 was old state    462
 New state    459 was old state    460
 New state    460 was old state    455
 New state    461 was old state    466
 New state    462 was old state    465
 New state    463 was old state    464
 New state    464 was old state    467
 New state    465 was old state    452
 New state    466 was old state    470
 New state    467 was old state    468
 New state    468 was old state    469
 New state    469 was old state    471
 New state    470 was old state    475
 New state    471 was old state    474
 New state    472 was old state    477
 New state    473 was old state    476
 New state    474 was old state    472
 New state    475 was old state    459
 New state    476 was old state    496
 New state    477 was old state    481
 New state    478 was old state    473
 New state    480 was old state    482
 New state    481 was old state    480
 New state    482 was old state    484
 New state    484 was old state    485
 New state    485 was old state    487
 New state    486 was old state    489
 New state    487 was old state    488
 New state    488 was old state    486
 New state    489 was old state    478
 New state    490 was old state    492
 New state    491 was old state    494
 New state    492 was old state    490
 New state    493 was old state    498
 New state    494 was old state    493
 New state    496 was old state    497
 New state    497 was old state    500
 New state    498 was old state    499
 New state    499 was old state    502
 New state    500 was old state    501
 New state    501 was old state    503
 New state    502 was old state    506
 New state    503 was old state    505
 New state    504 was old state    507
 New state    505 was old state    516
 New state    506 was old state    504
 New state    507 was old state    510
 New state    508 was old state    509
 New state    509 was old state    508
 New state    510 was old state    511
 New state    511 was old state    512
 New state    512 was old state    514
 New state    514 was old state    517
 New state    515 was old state    518
 New state    516 was old state    519
 New state    517 was old state    515
 New state    518 was old state    523
 New state    519 was old state    520
 New state    520 was old state    521
 New state    521 was old state    522
 New state    522 was old state    524
 New state    523 was old state    526
 New state    524 was old state    528
 New state    525 was old state    527
 New state    526 was old state    525
 New state    527 was old state    529
 New state    528 was old state    530
 New state    529 was old state    532
 New state    530 was old state    531
 New state    531 was old state    535
 New state    532 was old state    534
 New state    534 was old state    541
 New state    535 was old state    536
 New state    536 was old state    538
 New state    538 was old state    539
 New state    539 was old state    543
 New state    541 was old state    544
 New state    543 was old state    555
 New state    544 was old state    547
 New state    547 was old state    548
 New state    548 was old state    550
 New state    549 was old state    551
 New state    550 was old state    552
 New state    551 was old state    553
 New state    552 was old state    554
 New state    553 was old state    549
 New state    554 was old state    556
 New state    555 was old state    559
 New state    556 was old state    560
 New state    558 was old state    561
 New state    559 was old state    558
 New state    560 was old state    562
 New state    561 was old state    570
 New state    562 was old state    563
 New state    563 was old state    564
 New state    564 was old state    568
 New state    565 was old state    566
 New state    566 was old state    565
 New state    568 was old state    572
 New state    570 was old state    573
 New state    571 was old state    575
 New state    572 was old state    574
 New state    573 was old state    571
 New state    574 was old state    576
 New state    575 was old state    577
 New state    576 was old state    579
 New state    577 was old state    578
 New state    578 was old state    581
 New state    579 was old state    584
 New state    581 was old state    583
 New state    583 was old state    586
 New state    584 was old state    589
 New state    585 was old state    587
 New state    586 was old state    588
 New state    587 was old state    590
 New state    588 was old state    591
 New state    589 was old state    585
 New state    590 was old state    593
 No map to state    591
 New state    593 was old state    594
 New state    594 was old state    595
 New state    595 was old state    596
 New state    596 was old state    598
 New state    597 was old state    599
 New state    598 was old state    597
 New state    599 was old state    602
 New state    602 was old state    603
 New state    603 was old state    604
 New state    604 was old state    606
 New state    606 was old state    607
 New state    607 was old state    608
 New state    608 was old state    618
 New state    609 was old state    611
 New state    611 was old state    609
 New state    614 was old state    615
 New state    615 was old state    614
 New state    616 was old state    617
 New state    617 was old state    621
 New state    618 was old state    619
 New state    619 was old state    620
 New state    620 was old state    622
 New state    621 was old state    616
 New state    622 was old state    624
 New state    623 was old state    625
 New state    624 was old state    623
 New state    625 was old state    627
 New state    627 was old state    629
 New state    628 was old state    631
 New state    629 was old state    630
 New state    630 was old state    628
 New state    631 was old state    634
 New state    634 was old state    635
 New state    635 was old state    636
 New state    636 was old state    638
 New state    637 was old state    639
 New state    638 was old state    640
 New state    639 was old state    637
 New state    640 was old state    642
 New state    642 was old state    650
 New state    646 was old state    648
 New state    648 was old state    646
 New state    650 was old state    653
 New state    653 was old state    659
 New state    654 was old state    655
 New state    655 was old state    654
 New state    659 was old state    669
 New state    660 was old state    661
 New state    661 was old state    660
 New state    664 was old state    667
 New state    665 was old state    664
 New state    667 was old state    665
 New state    669 was old state    671
 New state    670 was old state    672
 New state    671 was old state    670
 New state    672 was old state    674
 New state    673 was old state    688
 New state    674 was old state    673
 New state    675 was old state    676
 New state    676 was old state    675
 New state    677 was old state    678
 New state    678 was old state    677
 New state    687 was old state    689
 New state    688 was old state    687
 New state    689 was old state    691
 New state    690 was old state    698
 New state    691 was old state    690
 New state    693 was old state    694
 New state    694 was old state    693
 New state    698 was old state    699
 New state    699 was old state    700
 New state    700 was old state    701
 New state    701 was old state    708
 New state    704 was old state    705
 New state    705 was old state    704
 New state    707 was old state    710
 New state    708 was old state    707
 New state    710 was old state    711
 New state    711 was old state    712
 New state    712 was old state    713
 New state    713 was old state    714
 New state    714 was old state    715
 New state    715 was old state    716
 New state    716 was old state    717
 New state    717 was old state    736
 New state    718 was old state    719
 New state    719 was old state    718
 New state    720 was old state    721
 New state    721 was old state    720
 New state    723 was old state    725
 New state    724 was old state    723
 New state    725 was old state    724
 New state    728 was old state    729
 New state    729 was old state    728
 New state    732 was old state    733
 New state    733 was old state    732
 New state    736 was old state    742
 New state    739 was old state    740
 New state    740 was old state    739
 New state    742 was old state    744
 New state    744 was old state    745
 New state    745 was old state    756
 New state    747 was old state    749
 New state    748 was old state    751
 New state    749 was old state    748
 New state    750 was old state    754
 New state    751 was old state    747
 New state    752 was old state    753
 New state    753 was old state    750
 New state    754 was old state    755
 New state    755 was old state    752
 New state    756 was old state    761
 New state    757 was old state    758
 New state    758 was old state    757
 New state    760 was old state    762
 New state    761 was old state    763
 New state    762 was old state    766
 New state    763 was old state    760
 New state    765 was old state    769
 New state    766 was old state    765
 New state    767 was old state    768
 New state    768 was old state    767
 New state    769 was old state    773
 New state    770 was old state    771
 New state    771 was old state    770
 No map to state    772
 New state    773 was old state    772
 New state    778 was old state    779
 New state    779 was old state    780
 New state    780 was old state    778
 New state    781 was old state    782
 New state    782 was old state    781
 New state    794 was old state    796
 New state    795 was old state    797
 New state    796 was old state    794
 New state    797 was old state    802
 New state    798 was old state    799
 New state    799 was old state    801
 New state    800 was old state    795
 New state    801 was old state    800
 New state    802 was old state    798
 New state    806 was old state    808
 New state    808 was old state    809
 New state    809 was old state    806
 New state    810 was old state    811
 New state    811 was old state    810
 New state    812 was old state    813
 New state    813 was old state    812
 New state    814 was old state    815
 New state    815 was old state    817
 New state    816 was old state    818
 New state    817 was old state    814
 New state    818 was old state    819
 New state    819 was old state    820
 New state    820 was old state    821
 New state    821 was old state    822
 New state    822 was old state    823
 New state    823 was old state    824
 New state    824 was old state    825
 New state    825 was old state    826
 New state    826 was old state    827
 New state    827 was old state    816
 New state    829 was old state    831
 New state    831 was old state    832
 New state    832 was old state    833
 New state    833 was old state    829
 New state    834 was old state    836
 New state    836 was old state    834
 New state    837 was old state    839
 New state    838 was old state    841
 New state    839 was old state    837
 New state    840 was old state    842
 New state    841 was old state    840
 New state    842 was old state    838
 New state    847 was old state    848
 New state    848 was old state    849
 New state    849 was old state    847
 New state    852 was old state    853
 New state    853 was old state    852
 New state    857 was old state    859
 New state    859 was old state    857
 New state    862 was old state    863
 New state    863 was old state    862
 New state    875 was old state    877
 New state    876 was old state    878
 New state    877 was old state    875
 New state    878 was old state    879
 New state    879 was old state    881
 New state    881 was old state    876
 New state    882 was old state    883
 New state    883 was old state    882
 New state    885 was old state    886
 New state    886 was old state    885
 New state    887 was old state    888
 New state    888 was old state    890
 New state    890 was old state    891
 New state    891 was old state    892
 New state    892 was old state    895
 New state    895 was old state    887
 New state    897 was old state    898
 New state    898 was old state    897
 New state    902 was old state    904
 New state    903 was old state    902
 New state    904 was old state    907
 New state    906 was old state    903
 New state    907 was old state    906
 New state    908 was old state    909
 New state    909 was old state    908
 New state    911 was old state    914
 New state    912 was old state    913
 New state    913 was old state    918
 New state    914 was old state    917
 New state    915 was old state    911
 New state    916 was old state    915
 New state    917 was old state    923
 New state    918 was old state    916
 New state    921 was old state    922
 New state    922 was old state    921
 New state    923 was old state    924
 New state    924 was old state    925
 New state    925 was old state    927
 New state    926 was old state    936
 New state    927 was old state    928
 New state    928 was old state    929
 New state    929 was old state    930
 New state    930 was old state    931
 New state    931 was old state    926
 New state    933 was old state    934
 New state    934 was old state    933
 New state    936 was old state    939
 New state    939 was old state    941
 New state    940 was old state    942
 New state    941 was old state    945
 New state    942 was old state    940
 New state    943 was old state    944
 New state    944 was old state    946
 New state    945 was old state    943
 New state    946 was old state    947
 New state    947 was old state    949
 New state    949 was old state    950
 New state    950 was old state    951
 New state    951 was old state    957
 New state    957 was old state    958
 New state    958 was old state    960
 New state    960 was old state    961
 No map to state    961
 New state    962 was old state    964
 New state    963 was old state    962
 New state    964 was old state    963
 New state    970 was old state    971
 New state    971 was old state    970
 New state    975 was old state    976
 New state    976 was old state    975
 Excitation Energies [eV] at current iteration:
 Root      1 :     5.957981420606449
 Root      2 :     6.758544614505887
 Root      3 :     7.201904775266430
 Root      4 :     7.562618215208073
 Root      5 :     7.608592483014645
 Root      6 :     7.736276039276133
 Root      7 :     8.231695310890084
 Root      8 :     8.457089901672353
 Root      9 :     8.817312364142705
 Root     10 :     8.828678420473560
 Root     11 :     9.032349694882459
 Root     12 :     9.064975890579994
 Root     13 :     9.227804159783140
 Root     14 :     9.239227862128004
 Root     15 :     9.360856017393171
 Root     16 :     9.650764936729658
 Root     17 :     9.765771778245371
 Root     18 :     9.885687408455546
 Root     19 :     9.944472611421322
 Root     20 :    10.086251035667590
 Root     21 :    10.155639647274130
 Root     22 :    10.423865667871170
 Root     23 :    10.437429509452400
 Root     24 :    10.498990332533300
 Root     25 :    10.587345400729320
 Root     26 :    10.654972566834720
 Root     27 :    10.753048797568500
 Root     28 :    10.811142769638330
 Root     29 :    10.870453429719970
 Root     30 :    10.929785942558730
 Root     31 :    11.082410058892150
 Root     32 :    11.298235542027230
 Root     33 :    11.402434230674310
 Root     34 :    11.569843189434400
 Root     35 :    11.605337662365050
 Root     36 :    11.629599478666580
 Root     37 :    11.639215411914080
 Root     38 :    11.769426384137340
 Root     39 :    11.892700343022550
 Root     40 :    11.908732789587590
 Root     41 :    11.932356938881380
 Root     42 :    12.033607111098940
 Root     43 :    12.094924243824730
 Root     44 :    12.162194468105120
 Root     45 :    12.211726536546420
 Root     46 :    12.397833734941950
 Root     47 :    12.492375546607740
 Root     48 :    12.514404072043250
 Root     49 :    12.572974230527280
 Root     50 :    12.612268781425940
 Root     51 :    12.633126975932460
 Root     52 :    12.643561568056530
 Root     53 :    12.752678794326020
 Root     54 :    12.801288433346890
 Root     55 :    12.900467881057260
 Root     56 :    12.932209154867150
 Root     57 :    13.044633526072200
 Root     58 :    13.136255294125160
 Root     59 :    13.161369647745440
 Root     60 :    13.226027940037370
 Root     61 :    13.240927243122290
 Root     62 :    13.285301959755640
 Root     63 :    13.293868724080130
 Root     64 :    13.374117588396970
 Root     65 :    13.377400449256690
 Root     66 :    13.439756884041050
 Root     67 :    13.551225197912940
 Root     68 :    13.562700616958950
 Root     69 :    13.566314279553720
 Root     70 :    13.645300736954810
 Root     71 :    13.744808435034790
 Root     72 :    13.834472252903690
 Root     73 :    13.851810189529710
 Root     74 :    13.868984264752430
 Root     75 :    13.953374270754940
 Root     76 :    13.954472613972850
 Root     77 :    14.137092442855320
 Root     78 :    14.164080544879950
 Root     79 :    14.190388998901600
 Root     80 :    14.206891659112940
 Root     81 :    14.414731721295690
 Root     82 :    14.434341608819920
 Root     83 :    14.500268365085960
 Root     84 :    14.518536214374870
 Root     85 :    14.560303120045220
 Root     86 :    14.627963255437160
 Root     87 :    14.656129447293510
 Root     88 :    14.668766140673760
 Root     89 :    14.699581006704980
 Root     90 :    14.754317510454580
 Root     91 :    14.779265592577430
 Root     92 :    14.796929524304320
 Root     93 :    14.831470328106580
 Root     94 :    14.868013242331050
 Root     95 :    14.949227045542570
 Root     96 :    14.956842984749910
 Root     97 :    15.102052517259240
 Root     98 :    15.203908457489850
 Root     99 :    15.239215631679230
 Root    100 :    15.276686464906200
 Root    101 :    15.339067468655490
 Root    102 :    15.410015256175590
 Root    103 :    15.411425027456180
 Root    104 :    15.430645632536560
 Root    105 :    15.506399263965140
 Root    106 :    15.537641961748830
 Root    107 :    15.599537764909070
 Root    108 :    15.606979727759140
 Root    109 :    15.709714453344690
 Root    110 :    15.773147602979060
 Root    111 :    15.802348126818090
 Root    112 :    15.853664631982460
 Root    113 :    15.874227655746770
 Root    114 :    15.886374588993660
 Root    115 :    15.915623682802580
 Root    116 :    16.048733933584760
 Root    117 :    16.093434532053990
 Root    118 :    16.137566358377300
 Root    119 :    16.272440129793130
 Root    120 :    16.294190344689290
 Root    121 :    16.356872463559610
 Root    122 :    16.393320811367780
 Root    123 :    16.470575229626600
 Root    124 :    16.515394827753740
 Root    125 :    16.555099299801150
 Root    126 :    16.556064730345010
 Root    127 :    16.569535091008650
 Root    128 :    16.651362528701420
 Root    129 :    16.652657666553920
 Root    130 :    16.702664218144660
 Root    131 :    16.718028195085270
 Root    132 :    16.741868510272830
 Root    133 :    16.795268744125410
 Root    134 :    16.836494581843270
 Root    135 :    16.864276174585580
 Root    136 :    16.895270168897980
 Root    137 :    16.921548078705350
 Root    138 :    16.987186655878460
 Root    139 :    17.073945773769710
 Root    140 :    17.119137739507590
 Root    141 :    17.120350694283200
 Root    142 :    17.150620759152510
 Root    143 :    17.237965660002310
 Root    144 :    17.239858351521630
 Root    145 :    17.275903535490640
 Root    146 :    17.324852725723150
 Root    147 :    17.328080799533510
 Root    148 :    17.441288521961220
 Root    149 :    17.465087475197610
 Root    150 :    17.524310184014970
 Root    151 :    17.566774954901100
 Root    152 :    17.703072634982480
 Root    153 :    17.713688039461600
 Root    154 :    17.873580819514110
 Root    155 :    17.889343360029050
 Root    156 :    17.933222701281660
 Root    157 :    18.032970441559460
 Root    158 :    18.047655410755990
 Root    159 :    18.082028369328210
 Root    160 :    18.094354740947160
 Root    161 :    18.109095319540340
 Root    162 :    18.157948544071900
 Root    163 :    18.182977524046940
 Root    164 :    18.306640088210710
 Root    165 :    18.356290046578530
 Root    166 :    18.363934510063530
 Root    167 :    18.396591767747110
 Root    168 :    18.418863121947440
 Root    169 :    18.437442784509080
 Root    170 :    18.503331409441110
 Root    171 :    18.526736490958890
 Root    172 :    18.552707039040440
 Root    173 :    18.564699756256390
 Root    174 :    18.600388168551570
 Root    175 :    18.684688589810090
 Root    176 :    18.685827950587180
 Root    177 :    18.751109027263640
 Root    178 :    18.770679008940820
 Root    179 :    18.820391837689280
 Root    180 :    18.857590941278470
 Root    181 :    18.870701693093680
 Root    182 :    18.928727475299280
 Root    183 :    19.029878622024110
 Root    184 :    19.073814295236580
 Root    185 :    19.094227931818350
 Root    186 :    19.102916830996330
 Root    187 :    19.109965342294660
 Root    188 :    19.192450027438240
 Root    189 :    19.204939129765080
 Root    190 :    19.226276585210440
 Root    191 :    19.251511451632800
 Root    192 :    19.287398188990470
 Root    193 :    19.307901967856460
 Root    194 :    19.357373709618530
 Root    195 :    19.364347323114800
 Root    196 :    19.390672508895730
 Root    197 :    19.399759659561220
 Root    198 :    19.501653073954800
 Root    199 :    19.531016225616060
 Root    200 :    19.531278410362870
 Root    201 :    19.536067554368920
 Root    202 :    19.576880521158730
 Root    203 :    19.589034893700760
 Root    204 :    19.640493614527040
 Root    205 :    19.670174221981180
 Root    206 :    19.691805972621040
 Root    207 :    19.770664076718720
 Root    208 :    19.771197455689680
 Root    209 :    19.855179541257490
 Root    210 :    19.944804765283170
 Root    211 :    20.080374384085350
 Root    212 :    20.176256841956060
 Root    213 :    20.183588032363760
 Root    214 :    20.235691024929470
 Root    215 :    20.251333196751290
 Root    216 :    20.254760497820260
 Root    217 :    20.266887934779720
 Root    218 :    20.276606888254830
 Root    219 :    20.336895085703620
 Root    220 :    20.356235114839690
 Root    221 :    20.409099436766860
 Root    222 :    20.471583470006500
 Root    223 :    20.471825201959670
 Root    224 :    20.531820164190660
 Root    225 :    20.574248007522810
 Root    226 :    20.580881264497110
 Root    227 :    20.581492273650540
 Root    228 :    20.586572243281460
 Root    229 :    20.604417024849430
 Root    230 :    20.635691167616990
 Root    231 :    20.654681414592060
 Root    232 :    20.724653513027780
 Root    233 :    20.726787997209280
 Root    234 :    20.758555493512010
 Root    235 :    20.815775108480110
 Root    236 :    20.849149148809150
 Root    237 :    20.906170456425990
 Root    238 :    20.916044345102820
 Root    239 :    20.922993498140390
 Root    240 :    20.925510675973530
 Root    241 :    20.960448640074870
 Root    242 :    20.992586087783630
 Root    243 :    21.092144396822220
 Root    244 :    21.119415671186490
 Root    245 :    21.171465567652650
 Root    246 :    21.177473559845480
 Root    247 :    21.298355520247530
 Root    248 :    21.301490734374480
 Root    249 :    21.305206164199770
 Root    250 :    21.334382052149210
 Root    251 :    21.443819860076080
 Root    252 :    21.468484485214010
 Root    253 :    21.565014667488800
 Root    254 :    21.577979707759210
 Root    255 :    21.635363805223010
 Root    256 :    21.685269220692520
 Root    257 :    21.842619418542850
 Root    258 :    21.845652381265250
 Root    259 :    21.893398922111120
 Root    260 :    21.918719408436610
 Root    261 :    21.926274588248800
 Root    262 :    22.009107571296300
 Root    263 :    22.067402260653050
 Root    264 :    22.067943468073540
 Root    265 :    22.079636409820980
 Root    266 :    22.158327806021130
 Root    267 :    22.193799170743990
 Root    268 :    22.259082629299220
 Root    269 :    22.331458555177290
 Root    270 :    22.332152668468620
 Root    271 :    22.394350625219190
 Root    272 :    22.404928426199060
 Root    273 :    22.412300489284770
 Root    274 :    22.416298803821660
 Root    275 :    22.486243781955890
 Root    276 :    22.500050267222830
 Root    277 :    22.561407383852560
 Root    278 :    22.621974270940980
 Root    279 :    22.715908256826710
 Root    280 :    22.788314102890930
 Root    281 :    22.791302669035410
 Root    282 :    22.861351796950810
 Root    283 :    22.871654696429110
 Root    284 :    22.880693874889900
 Root    285 :    22.958859213443800
 Root    286 :    22.961713949090360
 Root    287 :    23.108609099561090
 Root    288 :    23.139927646644030
 Root    289 :    23.173492350574670
 Root    290 :    23.195921868945090
 Root    291 :    23.226973389500150
 Root    292 :    23.234598652189830
 Root    293 :    23.263424715084110
 Root    294 :    23.298905125738370
 Root    295 :    23.328897789839380
 Root    296 :    23.406535604120130
 Root    297 :    23.563602893639570
 Root    298 :    23.583307064142580
 Root    299 :    23.670547281993070
 Root    300 :    23.718671269461440
 Root    301 :    23.745039962418670
 Root    302 :    23.792730231397280
 Root    303 :    23.869254922559860
 Root    304 :    23.872194368269170
 Root    305 :    23.899319463023950
 Root    306 :    23.997129734995620
 Root    307 :    24.048479856977350
 Root    308 :    24.105843368369360
 Root    309 :    24.108230732554690
 Root    310 :    24.149337997073700
 Root    311 :    24.202307018203310
 Root    312 :    24.222720065001790
 Root    313 :    24.245308487398900
 Root    314 :    24.246919937588360
 Root    315 :    24.363506208727420
 Root    316 :    24.440034159130440
 Root    317 :    24.521637822873380
 Root    318 :    24.525229848774170
 Root    319 :    24.529313263639790
 Root    320 :    24.556911640949710
 Root    321 :    24.657607942442060
 Root    322 :    24.705541295085890
 Root    323 :    24.724455892423230
 Root    324 :    24.874295551869270
 Root    325 :    24.935504163382800
 Root    326 :    24.986559582353500
 Root    327 :    25.045500591665740
 Root    328 :    25.123492806935580
 Root    329 :    25.199427245529910
 Root    330 :    25.255087315365440
 Root    331 :    25.256988286784260
 Root    332 :    25.298548660229490
 Root    333 :    25.318763150241920
 Root    334 :    25.451156516192960
 Root    335 :    25.471272450028810
 Root    336 :    25.596660411116890
 Root    337 :    25.650071878318180
 Root    338 :    25.740414524300590
 Root    339 :    25.789544394138400
 Root    340 :    25.793752301043220
 Root    341 :    25.827597273090190
 Root    342 :    25.941788578633710
 Root    343 :    25.959659443602050
 Root    344 :    26.024017751055800
 Root    345 :    26.056597038990560
 Root    346 :    26.126347497096400
 Root    347 :    26.143178996467440
 Root    348 :    26.155873869008850
 Root    349 :    26.192871976164670
 Root    350 :    26.284026749566550
 Root    351 :    26.293167846981350
 Root    352 :    26.356087186997160
 Root    353 :    26.389874181647620
 Root    354 :    26.472656185145690
 Root    355 :    26.502493308636040
 Root    356 :    26.589328329787250
 Root    357 :    26.611555156159690
 Root    358 :    26.614275081589460
 Root    359 :    26.686974348161970
 Root    360 :    26.695492465531880
 Root    361 :    26.724702238152990
 Root    362 :    26.819560375232480
 Root    363 :    26.907702603347430
 Root    364 :    26.952159689632740
 Root    365 :    27.027439938857000
 Root    366 :    27.144488396962170
 Root    367 :    27.179959954174130
 Root    368 :    27.274861688331730
 Root    369 :    27.312217430420040
 Root    370 :    27.328584076876230
 Root    371 :    27.359543763196060
 Root    372 :    27.370798553946130
 Root    373 :    27.413495096005040
 Root    374 :    27.545651688038620
 Root    375 :    27.559591925524590
 Root    376 :    27.615683040199830
 Root    377 :    27.663522732998520
 Root    378 :    27.751544633729220
 Root    379 :    27.879782857512710
 Root    380 :    28.074401468865980
 Root    381 :    28.127612366205000
 Root    382 :    28.145773468311520
 Root    383 :    28.156979572486620
 Root    384 :    28.217748088137220
 Root    385 :    28.269206471252620
 Root    386 :    28.299855594187700
 Root    387 :    28.464070464899880
 Root    388 :    28.482682276363920
 Root    389 :    28.557657688152110
 Root    390 :    28.588503300296100
 Root    391 :    28.620180049856100
 Root    392 :    28.655952243619190
 Root    393 :    28.676698550802840
 Root    394 :    28.689004281652740
 Root    395 :    28.745153838132080
 Root    396 :    28.747601299185910
 Root    397 :    28.896404442571130
 Root    398 :    28.936344707145010
 Root    399 :    29.076506742540080
 Root    400 :    29.097645460292890
 Root    401 :    29.154135102892840
 Root    402 :    29.271672359792980
 Root    403 :    29.394008658834690
 Root    404 :    29.394238667347290
 Root    405 :    29.415751757111640
 Root    406 :    29.469024115084840
 Root    407 :    29.602428808321710
 Root    408 :    29.652602128024900
 Root    409 :    29.675932784370960
 Root    410 :    29.728437156398310
 Root    411 :    29.819356845107090
 Root    412 :    29.829760988010610
 Root    413 :    29.913768704708320
 Root    414 :    29.957713720847090
 Root    415 :    30.126178340816000
 Root    416 :    30.135294102560140
 Root    417 :    30.298049028972400
 Root    418 :    30.358477275014420
 Root    419 :    30.476894053499770
 Root    420 :    30.720066923307840
 Root    421 :    30.812094842254480
 Root    422 :    30.876639553569940
 Root    423 :    30.928975855789930
 Root    424 :    31.069114218592170
 Root    425 :    31.087451959077680
 Root    426 :    31.104025892908470
 Root    427 :    31.137251130264990
 Root    428 :    31.167421672271700
 Root    429 :    31.247812566023380
 Root    430 :    31.293910895600290
 Root    431 :    31.417119921879430
 Root    432 :    31.567338071717280
 Root    433 :    31.761172694941570
 Root    434 :    31.958285916306380
 Root    435 :    32.030702793178930
 Root    436 :    32.042447798327600
 Root    437 :    32.088213412541380
 Root    438 :    32.189545302208800
 Root    439 :    32.281689912510980
 Root    440 :    32.295353214658850
 Root    441 :    32.298649341951120
 Root    442 :    32.319658680451500
 Root    443 :    32.411624935126870
 Root    444 :    32.621665642050050
 Root    445 :    32.698755941342690
 Root    446 :    32.782070905656820
 Root    447 :    32.788316079277760
 Root    448 :    32.836343232035130
 Root    449 :    32.990648476186770
 Root    450 :    33.070694731063760
 Root    451 :    33.088424333004030
 Root    452 :    33.129828676159050
 Root    453 :    33.167512135330760
 Root    454 :    33.192534216036070
 Root    455 :    33.232714631913240
 Root    456 :    33.310396791213780
 Root    457 :    33.350667487991710
 Root    458 :    33.377023453529600
 Root    459 :    33.448710863249540
 Root    460 :    33.515489222729410
 Root    461 :    33.544641718925280
 Root    462 :    33.573101128651420
 Root    463 :    33.727683490690230
 Root    464 :    33.763853265382660
 Root    465 :    33.827599340114790
 Root    466 :    33.909373851189070
 Root    467 :    33.967856574631430
 Root    468 :    34.053455450708850
 Root    469 :    34.087842816549180
 Root    470 :    34.339436867236740
 Root    471 :    34.430445197898800
 Root    472 :    34.450561945013850
 Root    473 :    34.521829034027400
 Root    474 :    34.539783831499510
 Root    475 :    34.544377494822830
 Root    476 :    34.581433204917300
 Root    477 :    34.736319219747640
 Root    478 :    34.737409700421520
 Root    479 :    34.747818477226380
 Root    480 :    34.760138455169030
 Root    481 :    34.812106067361600
 Root    482 :    34.825133346801030
 Root    483 :    34.903631378280190
 Root    484 :    34.947316717912070
 Root    485 :    35.005045976729820
 Root    486 :    35.065943672476240
 Root    487 :    35.111503128426890
 Root    488 :    35.174358598232590
 Root    489 :    35.230775099730800
 Root    490 :    35.343622267766650
 Root    491 :    35.458924254865540
 Root    492 :    35.470404450700140
 Root    493 :    35.509034657037270
 Root    494 :    35.528748375980060
 Root    495 :    35.546477317742540
 Root    496 :    35.627327677630080
 Root    497 :    35.749874827744770
 Root    498 :    35.845665359570320
 Root    499 :    35.898256172895520
 Root    500 :    36.220240157241610
 Root    501 :    36.327745161152040
 Root    502 :    36.453826104561990
 Root    503 :    36.577121863891640
 Root    504 :    36.642242251496360
 Root    505 :    36.658149473173940
 Root    506 :    36.695351473585210
 Root    507 :    36.775590119785910
 Root    508 :    36.905204209619310
 Root    509 :    36.915071039347110
 Root    510 :    36.937403283637520
 Root    511 :    37.140501261342540
 Root    512 :    37.157970500078170
 Root    513 :    37.190574102937470
 Root    514 :    37.240930765444570
 Root    515 :    37.347256703800070
 Root    516 :    37.423214685585580
 Root    517 :    37.434220841958330
 Root    518 :    37.486873418529490
 Root    519 :    37.588459195912430
 Root    520 :    37.678228305146530
 Root    521 :    37.752756668263880
 Root    522 :    37.781528114131970
 Root    523 :    37.898289522544140
 Root    524 :    37.933919120677520
 Root    525 :    38.016928457500860
 Root    526 :    38.126010061791870
 Root    527 :    38.195749729244010
 Root    528 :    38.206819969238220
 Root    529 :    38.370967234434770
 Root    530 :    38.434543655256210
 Root    531 :    38.471492442074490
 Root    532 :    38.685162639780920
 Root    533 :    38.802931127842900
 Root    534 :    38.804896752766530
 Root    535 :    39.017754758888020
 Root    536 :    39.112272130160630
 Root    537 :    39.166055577411220
 Root    538 :    39.205138555416200
 Root    539 :    39.205797401852470
 Root    540 :    39.267152452028080
 Root    541 :    39.595862426567220
 Root    542 :    39.600708366891570
 Root    543 :    39.688028481982210
 Root    544 :    39.879091989174060
 Root    545 :    40.030947764941020
 Root    546 :    40.168223966269900
 Root    547 :    40.205898435674530
 Root    548 :    40.299702126640280
 Root    549 :    40.568124362385980
 Root    550 :    40.586124682468350
 Root    551 :    40.679572341034060
 Root    552 :    40.761163978617400
 Root    553 :    40.761378219626970
 Root    554 :    40.976345984063040
 Root    555 :    41.138995392503440
 Root    556 :    41.209454155800690
 Root    557 :    41.287420507848200
 Root    558 :    41.464991775491240
 Root    559 :    41.542946067289080
 Root    560 :    41.712680458555400
 Root    561 :    41.784015501639150
 Root    562 :    41.846078392727750
 Root    563 :    41.878939808683530
 Root    564 :    42.366712127890410
 Root    565 :    42.437296657017210
 Root    566 :    42.457271151223220
 Root    567 :    42.512765840928780
 Root    568 :    42.700287364543950
 Root    569 :    42.784460795990690
 Root    570 :    42.802754348012350
 Root    571 :    43.074655654147600
 Root    572 :    43.132153689694460
 Root    573 :    43.204461579144890
 Root    574 :    43.348725896912530
 Root    575 :    43.506669374100940
 Root    576 :    43.600751270142740
 Root    577 :    43.722234570911450
 Root    578 :    43.848342633013680
 Root    579 :    44.094790193991320
 Root    580 :    44.154101328132620
 Root    581 :    44.673225878110920
 Root    582 :    44.674592458963400
 Root    583 :    44.767827153124550
 Root    584 :    44.887339981708140
 Root    585 :    45.170708773284520
 Root    586 :    45.261483217622070
 Root    587 :    45.299560163096500
 Root    588 :    45.471347601445640
 Root    589 :    45.580007407952240
 Root    590 :    45.776632548270080
 Root    591 :    45.959772864129630
 Root    592 :    46.479579888542620
 Root    593 :    46.509556191276520
 Root    594 :    46.546429487277460
 Root    595 :    47.383262182840400
 Root    596 :    47.398358017299040
 Root    597 :    47.529416933690540
 Root    598 :    47.541577047090730
 Root    599 :    47.846235909964260
 Root    600 :    47.910413443583720
 Root    601 :    48.152674483450010
 Root    602 :    48.428114875755580
 Root    603 :    48.466908492396580
 Root    604 :    48.532164612780900
 Root    605 :    48.573032767510240
 Root    606 :    48.693568325802470
 Root    607 :    48.818236893683130
 Root    608 :    48.967442381089360
 Root    609 :    49.283545273552720
 Root    610 :    49.303152277396060
 Root    611 :    49.313381939459060
 Root    612 :    49.468683411867890
 Root    613 :    49.902067606585160
 Root    614 :    50.195696962502520
 Root    615 :    50.275412304187410
 Root    616 :    50.298830246358230
 Root    617 :    50.380311937360450
 Root    618 :    50.395933204003690
 Root    619 :    50.504705939468030
 Root    620 :    50.631326034932660
 Root    621 :    50.703882026109240
 Root    622 :    50.751817773141460
 Root    623 :    50.794606500829050
 Root    624 :    50.816811060119830
 Root    625 :    50.974471346429970
 Root    626 :    51.223996726124490
 Root    627 :    51.528990084128860
 Root    628 :    51.684164436793300
 Root    629 :    51.770378846762020
 Root    630 :    51.776513105640720
 Root    631 :    51.880657942049960
 Root    632 :    51.911379754190350
 Root    633 :    51.940669179819370
 Root    634 :    52.028639502330540
[...]
     15   0.000000D+00  0.346587D+00  0.000000D+00  0.000000D+00  0.000000D+00
     16   0.000000D+00  0.000000D+00 -0.134351D-01  0.000000D+00 -0.290832D+00
               911           912           913           914           915 
      1  -0.151516D+03 -0.151515D+03 -0.151510D+03 -0.151502D+03 -0.151502D+03
      2   0.198512D-01  0.000000D+00 -0.106031D+00  0.000000D+00  0.000000D+00
      3   0.000000D+00  0.000000D+00  0.000000D+00  0.000000D+00  0.000000D+00
      4   0.000000D+00  0.113719D+00  0.000000D+00  0.000000D+00 -0.167978D+00
      5  -0.290342D-01  0.000000D+00  0.267887D+00  0.000000D+00  0.000000D+00
      6   0.000000D+00  0.000000D+00  0.000000D+00  0.000000D+00  0.000000D+00
      7   0.000000D+00 -0.331658D+00  0.000000D+00  0.000000D+00  0.447339D+00
      8   0.000000D+00  0.000000D+00  0.000000D+00  0.000000D+00  0.000000D+00
      9   0.962082D-01  0.000000D+00  0.612601D-01  0.000000D+00  0.000000D+00
     10   0.000000D+00  0.000000D+00  0.000000D+00  0.547879D+00  0.000000D+00
     11   0.000000D+00  0.250756D+00  0.000000D+00  0.000000D+00  0.780125D-01
     12   0.000000D+00  0.314715D+00  0.000000D+00  0.000000D+00  0.501873D+00
     13   0.000000D+00 -0.314548D+00  0.000000D+00  0.000000D+00  0.105394D+00
     14   0.000000D+00  0.000000D+00  0.000000D+00 -0.809539D+00  0.000000D+00
     15   0.353487D-01  0.000000D+00 -0.140886D+00  0.000000D+00  0.000000D+00
     16   0.000000D+00  0.000000D+00  0.000000D+00  0.000000D+00  0.000000D+00
               916           917           918           919           920 
      1  -0.151499D+03 -0.151478D+03 -0.151466D+03 -0.151461D+03 -0.151456D+03
      2   0.000000D+00  0.214332D+00  0.000000D+00  0.000000D+00  0.000000D+00
      3   0.000000D+00  0.000000D+00 -0.158091D+00  0.000000D+00  0.120676D+00
      4  -0.132451D+00  0.000000D+00  0.000000D+00  0.000000D+00  0.000000D+00
      5   0.000000D+00 -0.630297D+00  0.000000D+00  0.000000D+00  0.000000D+00
      6   0.000000D+00  0.000000D+00  0.512754D+00  0.000000D+00 -0.344604D+00
      7   0.352419D+00  0.000000D+00  0.000000D+00  0.000000D+00  0.000000D+00
      8   0.000000D+00  0.000000D+00 -0.246577D+00  0.000000D+00 -0.297939D+00
      9   0.000000D+00 -0.332051D+00  0.000000D+00  0.000000D+00  0.000000D+00
     10   0.000000D+00  0.000000D+00  0.000000D+00 -0.544589D+00  0.000000D+00
     11   0.180543D+00  0.000000D+00  0.000000D+00  0.000000D+00  0.000000D+00
     12   0.398557D+00  0.000000D+00  0.000000D+00  0.000000D+00  0.000000D+00
     13   0.127698D+00  0.000000D+00  0.000000D+00  0.000000D+00  0.000000D+00
     14   0.000000D+00  0.000000D+00  0.000000D+00  0.491008D+00  0.000000D+00
     15   0.000000D+00 -0.371707D+00  0.000000D+00  0.000000D+00  0.000000D+00
     16   0.000000D+00  0.000000D+00  0.115240D+01  0.000000D+00 -0.336070D+00
               921           922           923           924           925 
      1  -0.151449D+03 -0.151446D+03 -0.151440D+03 -0.151438D+03 -0.151435D+03
      2   0.000000D+00  0.000000D+00  0.000000D+00  0.000000D+00  0.000000D+00
      3   0.000000D+00  0.000000D+00  0.000000D+00 -0.418503D-01  0.000000D+00
      4  -0.207096D-01 -0.331077D-01  0.000000D+00  0.000000D+00  0.000000D+00
      5   0.000000D+00  0.000000D+00  0.000000D+00  0.000000D+00  0.000000D+00
      6   0.000000D+00  0.000000D+00  0.000000D+00  0.103088D+00  0.000000D+00
      7   0.531072D-01  0.800186D-01  0.000000D+00  0.000000D+00  0.000000D+00
      8   0.000000D+00  0.000000D+00  0.000000D+00  0.204759D+00  0.000000D+00
      9   0.000000D+00  0.000000D+00  0.000000D+00  0.000000D+00  0.000000D+00
     10   0.000000D+00  0.000000D+00 -0.559836D+00  0.000000D+00 -0.579470D-01
     11   0.152788D+00  0.970939D-01  0.000000D+00  0.000000D+00  0.000000D+00
     12  -0.177539D+00 -0.169162D+00  0.000000D+00  0.000000D+00  0.000000D+00
     13  -0.271907D+00  0.159678D+00  0.000000D+00  0.000000D+00  0.000000D+00
     14   0.000000D+00  0.000000D+00  0.707152D+00  0.000000D+00 -0.387916D-02
     15   0.000000D+00  0.000000D+00  0.000000D+00  0.000000D+00  0.000000D+00
     16   0.000000D+00  0.000000D+00  0.000000D+00  0.256510D+00  0.000000D+00
               926           927           928           929           930 
      1  -0.151426D+03 -0.151394D+03 -0.151387D+03 -0.151383D+03 -0.151380D+03
      2  -0.146366D+00  0.000000D+00  0.000000D+00  0.674845D-01  0.000000D+00
      3   0.000000D+00  0.000000D+00  0.000000D+00  0.000000D+00  0.766514D-01
      4   0.000000D+00  0.102481D+00  0.000000D+00  0.000000D+00  0.000000D+00
      5   0.411676D+00  0.000000D+00  0.000000D+00 -0.214801D+00  0.000000D+00
      6   0.000000D+00  0.000000D+00  0.000000D+00  0.000000D+00 -0.236105D+00
      7   0.000000D+00 -0.332979D+00  0.000000D+00  0.000000D+00  0.000000D+00
      8   0.000000D+00  0.000000D+00  0.000000D+00  0.000000D+00 -0.329187D+00
      9   0.495396D+00  0.000000D+00  0.000000D+00 -0.169747D+00  0.000000D+00
     10   0.000000D+00  0.000000D+00  0.290817D+00  0.000000D+00  0.000000D+00
     11   0.000000D+00  0.216365D-01  0.000000D+00  0.000000D+00  0.000000D+00
     12   0.000000D+00  0.341754D+00  0.000000D+00  0.000000D+00  0.000000D+00
     13   0.000000D+00 -0.111506D+01  0.000000D+00  0.000000D+00  0.000000D+00
     14   0.000000D+00  0.000000D+00 -0.551546D-01  0.000000D+00  0.000000D+00
     15   0.657371D+00  0.000000D+00  0.000000D+00 -0.276183D+00  0.000000D+00
     16   0.000000D+00  0.000000D+00  0.000000D+00  0.000000D+00  0.158693D+00
               931           932           933           934           935 
      1  -0.151377D+03 -0.151373D+03 -0.151368D+03 -0.151365D+03 -0.151318D+03
      2   0.000000D+00  0.479313D-01  0.000000D+00  0.000000D+00  0.000000D+00
      3   0.000000D+00  0.000000D+00  0.000000D+00  0.000000D+00 -0.486063D-01
      4  -0.250361D+00  0.000000D+00  0.000000D+00  0.116256D-01  0.000000D+00
      5   0.000000D+00 -0.133212D+00  0.000000D+00  0.000000D+00  0.000000D+00
      6   0.000000D+00  0.000000D+00  0.000000D+00  0.000000D+00  0.131219D+00
      7   0.751881D+00  0.000000D+00  0.000000D+00 -0.444277D-01  0.000000D+00
      8   0.000000D+00  0.000000D+00  0.000000D+00  0.000000D+00  0.382918D+00
      9   0.000000D+00  0.208443D-01  0.000000D+00  0.000000D+00  0.000000D+00
     10   0.000000D+00  0.000000D+00 -0.437924D+00  0.000000D+00  0.000000D+00
     11  -0.213985D+00  0.000000D+00  0.000000D+00 -0.919171D-01  0.000000D+00
     12   0.763527D+00  0.000000D+00  0.000000D+00  0.741551D+00  0.000000D+00
     13   0.189641D+01  0.000000D+00  0.000000D+00  0.640592D+00  0.000000D+00
     14   0.000000D+00  0.000000D+00  0.327045D+00  0.000000D+00  0.000000D+00
     15   0.000000D+00 -0.121152D+00  0.000000D+00  0.000000D+00  0.000000D+00
     16   0.000000D+00  0.000000D+00  0.000000D+00  0.000000D+00  0.244785D+00
               936           937           938           939           940 
      1  -0.151308D+03 -0.151305D+03 -0.151298D+03 -0.151297D+03 -0.151295D+03
      2  -0.267136D-02  0.000000D+00  0.291725D-01 -0.112630D+00  0.000000D+00
      3   0.000000D+00 -0.534919D-01  0.000000D+00  0.000000D+00  0.000000D+00
      4   0.000000D+00  0.000000D+00  0.000000D+00  0.000000D+00  0.000000D+00
      5   0.419622D-01  0.000000D+00 -0.727540D-01  0.319827D+00  0.000000D+00
      6   0.000000D+00  0.141080D+00  0.000000D+00  0.000000D+00  0.000000D+00
      7   0.000000D+00  0.000000D+00  0.000000D+00  0.000000D+00  0.000000D+00
      8   0.000000D+00  0.374594D+00  0.000000D+00  0.000000D+00  0.000000D+00
      9   0.157805D+00  0.000000D+00  0.110777D+00 -0.575235D-01  0.000000D+00
     10   0.000000D+00  0.000000D+00  0.000000D+00  0.000000D+00  0.204408D+00
     11   0.000000D+00  0.000000D+00  0.000000D+00  0.000000D+00  0.000000D+00
     12   0.000000D+00  0.000000D+00  0.000000D+00  0.000000D+00  0.000000D+00
     13   0.000000D+00  0.000000D+00  0.000000D+00  0.000000D+00  0.000000D+00
     14   0.000000D+00  0.000000D+00  0.000000D+00  0.000000D+00  0.415293D-01
     15  -0.282207D-01  0.000000D+00 -0.934486D-01 -0.820231D-01  0.000000D+00
     16   0.000000D+00  0.154102D+00  0.000000D+00  0.000000D+00  0.000000D+00
               941           942           943           944           945 
      1  -0.151291D+03 -0.151290D+03 -0.151286D+03 -0.151279D+03 -0.151278D+03
      2   0.110127D+00  0.000000D+00  0.000000D+00  0.000000D+00  0.000000D+00
      3   0.000000D+00 -0.102710D+00  0.000000D+00  0.309933D-01  0.000000D+00
      4   0.000000D+00  0.000000D+00  0.000000D+00  0.000000D+00 -0.146654D+00
      5  -0.319383D+00  0.000000D+00  0.000000D+00  0.000000D+00  0.000000D+00
      6   0.000000D+00  0.333414D+00  0.000000D+00 -0.121836D+00  0.000000D+00
      7   0.000000D+00  0.000000D+00  0.000000D+00  0.000000D+00  0.486974D+00
      8   0.000000D+00 -0.461889D+00  0.000000D+00  0.486753D+00  0.000000D+00
      9  -0.123916D-01  0.000000D+00  0.000000D+00  0.000000D+00  0.000000D+00
     10   0.000000D+00  0.000000D+00  0.696118D+00  0.000000D+00  0.000000D+00
     11   0.000000D+00  0.000000D+00  0.000000D+00  0.000000D+00 -0.151019D+00
     12   0.000000D+00  0.000000D+00  0.000000D+00  0.000000D+00 -0.897005D+00
     13   0.000000D+00  0.000000D+00  0.000000D+00  0.000000D+00  0.119688D+01
     14   0.000000D+00  0.000000D+00 -0.832482D+00  0.000000D+00  0.000000D+00
     15  -0.834623D-01  0.000000D+00  0.000000D+00  0.000000D+00  0.000000D+00
     16   0.000000D+00  0.568061D-01  0.000000D+00  0.237684D+00  0.000000D+00
               946           947           948           949           950 
      1  -0.151239D+03 -0.151230D+03 -0.151227D+03 -0.151218D+03 -0.151211D+03
      2   0.000000D+00  0.000000D+00  0.000000D+00  0.000000D+00  0.000000D+00
      3   0.000000D+00  0.000000D+00  0.000000D+00  0.000000D+00  0.376620D-01
      4  -0.804714D-01 -0.704947D-01 -0.837371D-01  0.000000D+00  0.000000D+00
      5   0.000000D+00  0.000000D+00  0.000000D+00  0.000000D+00  0.000000D+00
      6   0.000000D+00  0.000000D+00  0.000000D+00  0.000000D+00 -0.124570D+00
      7   0.248320D+00  0.198849D+00  0.268410D+00  0.000000D+00  0.000000D+00
      8   0.000000D+00  0.000000D+00  0.000000D+00  0.000000D+00  0.835794D-01
      9   0.000000D+00  0.000000D+00  0.000000D+00  0.000000D+00  0.000000D+00
     10   0.000000D+00  0.000000D+00  0.000000D+00  0.264832D+00  0.000000D+00
     11   0.866535D-01  0.215313D+00  0.658995D-01  0.000000D+00  0.000000D+00
     12  -0.508707D-01  0.375720D+00 -0.313724D-01  0.000000D+00  0.000000D+00
     13   0.777624D+00 -0.358248D+00  0.789584D+00  0.000000D+00  0.000000D+00
     14   0.000000D+00  0.000000D+00  0.000000D+00 -0.144362D+00  0.000000D+00
     15   0.000000D+00  0.000000D+00  0.000000D+00  0.000000D+00  0.000000D+00
     16   0.000000D+00  0.000000D+00  0.000000D+00  0.000000D+00 -0.135361D+00
               951           952           953           954           955 
      1  -0.151201D+03 -0.151186D+03 -0.151174D+03 -0.151148D+03 -0.151147D+03
      2  -0.355318D+00  0.000000D+00  0.000000D+00  0.000000D+00  0.000000D+00
      3   0.000000D+00 -0.310368D-01  0.000000D+00  0.000000D+00  0.000000D+00
      4   0.000000D+00  0.000000D+00  0.000000D+00  0.000000D+00 -0.768253D-02
      5   0.111552D+01  0.000000D+00  0.000000D+00  0.000000D+00  0.000000D+00
      6   0.000000D+00  0.106110D+00  0.000000D+00  0.000000D+00  0.000000D+00
      7   0.000000D+00  0.000000D+00  0.000000D+00  0.000000D+00  0.977609D-02
      8   0.000000D+00 -0.393907D+00  0.000000D+00  0.000000D+00  0.000000D+00
      9   0.105759D+01  0.000000D+00  0.000000D+00  0.000000D+00  0.000000D+00
     10   0.000000D+00  0.000000D+00  0.282121D+00  0.822979D-01  0.000000D+00
     11   0.000000D+00  0.000000D+00  0.000000D+00  0.000000D+00  0.218356D+00
     12   0.000000D+00  0.000000D+00  0.000000D+00  0.000000D+00 -0.156562D+00
     13   0.000000D+00  0.000000D+00  0.000000D+00  0.000000D+00 -0.358750D+00
     14   0.000000D+00  0.000000D+00 -0.451197D+00 -0.172861D+00  0.000000D+00
     15   0.134100D+01  0.000000D+00  0.000000D+00  0.000000D+00  0.000000D+00
     16   0.000000D+00  0.160390D+00  0.000000D+00  0.000000D+00  0.000000D+00
               956           957           958           959           960 
      1  -0.151111D+03 -0.151099D+03 -0.151092D+03 -0.151076D+03 -0.151065D+03
      2   0.000000D+00  0.000000D+00 -0.126700D+00  0.000000D+00  0.000000D+00
      3   0.000000D+00  0.000000D+00  0.000000D+00  0.797988D-01 -0.120473D-01
      4   0.000000D+00 -0.100472D-02  0.000000D+00  0.000000D+00  0.000000D+00
      5   0.000000D+00  0.000000D+00  0.405418D+00  0.000000D+00  0.000000D+00
      6   0.000000D+00  0.000000D+00  0.000000D+00 -0.275382D+00  0.530875D-01
      7   0.000000D+00  0.251903D-01  0.000000D+00  0.000000D+00  0.000000D+00
      8   0.000000D+00  0.000000D+00  0.000000D+00  0.497523D+00  0.394913D+00
      9   0.000000D+00  0.000000D+00  0.362989D+00  0.000000D+00  0.000000D+00
     10   0.101144D+00  0.000000D+00  0.000000D+00  0.000000D+00  0.000000D+00
     11   0.000000D+00 -0.197513D-01  0.000000D+00  0.000000D+00  0.000000D+00
     12   0.000000D+00 -0.230398D+00  0.000000D+00  0.000000D+00  0.000000D+00
     13   0.000000D+00  0.524459D+00  0.000000D+00  0.000000D+00  0.000000D+00
     14   0.321413D-01  0.000000D+00  0.000000D+00  0.000000D+00  0.000000D+00
     15   0.000000D+00  0.000000D+00  0.575118D+00  0.000000D+00  0.000000D+00
     16   0.000000D+00  0.000000D+00  0.000000D+00  0.996087D-01  0.368322D+00
               961           962           963           964           965 
      1  -0.151037D+03 -0.150996D+03 -0.150994D+03 -0.150994D+03 -0.150992D+03
      2  -0.206551D+00  0.000000D+00  0.000000D+00  0.000000D+00  0.500701D-01
      3   0.000000D+00  0.000000D+00  0.246106D+00  0.000000D+00  0.000000D+00
      4   0.000000D+00  0.000000D+00  0.000000D+00 -0.490741D-01  0.000000D+00
      5   0.688775D+00  0.000000D+00  0.000000D+00  0.000000D+00 -0.148040D+00
      6   0.000000D+00  0.000000D+00 -0.869453D+00  0.000000D+00  0.000000D+00
      7   0.000000D+00  0.000000D+00  0.000000D+00  0.148983D+00  0.000000D+00
      8   0.000000D+00  0.000000D+00  0.738653D+00  0.000000D+00  0.000000D+00
      9   0.970106D+00  0.000000D+00  0.000000D+00  0.000000D+00  0.117918D+00
     10   0.000000D+00  0.314933D+00  0.000000D+00  0.000000D+00  0.000000D+00
     11   0.000000D+00  0.000000D+00  0.000000D+00  0.333707D+00  0.000000D+00
     12   0.000000D+00  0.000000D+00  0.000000D+00  0.299018D+00  0.000000D+00
     13   0.000000D+00  0.000000D+00  0.000000D+00 -0.245654D+00  0.000000D+00
     14   0.000000D+00 -0.591773D+00  0.000000D+00  0.000000D+00  0.000000D+00
     15   0.113985D+01  0.000000D+00  0.000000D+00  0.000000D+00 -0.879303D-01
     16   0.000000D+00  0.000000D+00 -0.842508D+00  0.000000D+00  0.000000D+00
               966           967           968           969           970 
      1  -0.150985D+03 -0.150975D+03 -0.150950D+03 -0.150938D+03 -0.150904D+03
      2   0.000000D+00 -0.398612D-01  0.000000D+00  0.000000D+00  0.000000D+00
      3   0.000000D+00  0.000000D+00  0.000000D+00 -0.380594D-01  0.000000D+00
      4  -0.115238D+00  0.000000D+00  0.461038D-01  0.000000D+00  0.000000D+00
      5   0.000000D+00  0.130532D+00  0.000000D+00  0.000000D+00  0.000000D+00
      6   0.000000D+00  0.000000D+00  0.000000D+00  0.126938D+00  0.000000D+00
      7   0.400964D+00  0.000000D+00 -0.134979D+00  0.000000D+00  0.000000D+00
      8   0.000000D+00  0.000000D+00  0.000000D+00  0.338205D+00  0.000000D+00
      9   0.000000D+00 -0.101839D-01  0.000000D+00  0.000000D+00  0.000000D+00
     10   0.000000D+00  0.000000D+00  0.000000D+00  0.000000D+00 -0.173815D+00
     11   0.142704D+00  0.000000D+00 -0.165399D+00  0.000000D+00  0.000000D+00
     12   0.511879D+00  0.000000D+00  0.946441D+00  0.000000D+00  0.000000D+00
     13   0.241077D+00  0.000000D+00  0.175364D-01  0.000000D+00  0.000000D+00
     14   0.000000D+00  0.000000D+00  0.000000D+00  0.000000D+00  0.367356D+00
     15   0.000000D+00  0.236570D-01  0.000000D+00  0.000000D+00  0.000000D+00
     16   0.000000D+00  0.000000D+00  0.000000D+00  0.232676D+00  0.000000D+00
               971           972           973           974           975 
      1  -0.150893D+03 -0.150892D+03 -0.150854D+03 -0.150827D+03 -0.150758D+03
      2   0.105177D+00  0.000000D+00  0.000000D+00  0.000000D+00  0.000000D+00
      3   0.000000D+00  0.950332D-01  0.000000D+00  0.219586D+00  0.000000D+00
      4   0.000000D+00  0.000000D+00  0.210096D+00  0.000000D+00  0.230066D-01
      5  -0.355285D+00  0.000000D+00  0.000000D+00  0.000000D+00  0.000000D+00
      6   0.000000D+00 -0.320010D+00  0.000000D+00 -0.851700D+00  0.000000D+00
      7   0.000000D+00  0.000000D+00 -0.753067D+00  0.000000D+00 -0.110288D+00
      8   0.000000D+00  0.593932D+00  0.000000D+00  0.927233D+00  0.000000D+00
      9  -0.337658D+00  0.000000D+00  0.000000D+00  0.000000D+00  0.000000D+00
     10   0.000000D+00  0.000000D+00  0.000000D+00  0.000000D+00  0.000000D+00
     11   0.000000D+00  0.000000D+00  0.533205D-01  0.000000D+00 -0.141173D+00
     12   0.000000D+00  0.000000D+00  0.875196D+00  0.000000D+00  0.317977D+00
     13   0.000000D+00  0.000000D+00 -0.156533D+01  0.000000D+00 -0.327611D+00
     14   0.000000D+00  0.000000D+00  0.000000D+00  0.000000D+00  0.000000D+00
     15   0.247491D-01  0.000000D+00  0.000000D+00  0.000000D+00  0.000000D+00
     16   0.000000D+00  0.150090D+00  0.000000D+00 -0.115994D+01  0.000000D+00
               976           977           978           979           980 
      1  -0.150757D+03 -0.150750D+03 -0.150655D+03 -0.150555D+03 -0.150355D+03
      2   0.000000D+00  0.000000D+00  0.000000D+00  0.000000D+00  0.000000D+00
      3   0.000000D+00  0.185104D-01  0.000000D+00  0.000000D+00 -0.613350D-02
      4   0.000000D+00  0.000000D+00  0.983261D-01  0.434504D-01  0.000000D+00
      5   0.000000D+00  0.000000D+00  0.000000D+00  0.000000D+00  0.000000D+00
      6   0.000000D+00 -0.184422D-01  0.000000D+00  0.000000D+00  0.115132D+00
      7   0.000000D+00  0.000000D+00 -0.409127D+00 -0.126460D+00  0.000000D+00
      8   0.000000D+00 -0.598763D-01  0.000000D+00  0.000000D+00 -0.156873D+00
      9   0.000000D+00  0.000000D+00  0.000000D+00  0.000000D+00  0.000000D+00
     10   0.226525D+00  0.000000D+00  0.000000D+00  0.000000D+00  0.000000D+00
     11   0.000000D+00  0.000000D+00  0.666080D-01  0.301510D+00  0.000000D+00
     12   0.000000D+00  0.000000D+00 -0.693057D+00 -0.181594D+00  0.000000D+00
     13   0.000000D+00  0.000000D+00 -0.129770D+01 -0.255023D+00  0.000000D+00
     14   0.539089D-03  0.000000D+00  0.000000D+00  0.000000D+00  0.000000D+00
     15   0.000000D+00  0.000000D+00  0.000000D+00  0.000000D+00  0.000000D+00
     16   0.000000D+00  0.791922D+00  0.000000D+00  0.000000D+00 -0.357877D-01
 Unable to Open any file for archive entry.
 1\1\GINC-HEL12\SP\RPW91PW91 TD-FC\Gen\C2H6O1\SABYASACHI\21-Mar-2022\0\
 \#P TD(Nstates=10000) pw91pw91/Gen SCF(maxcycles=100) Int(Grid=ultrafi
 ne)\\xGDB7_00001_tier4.com\\0,1\C,0,0.,1.163894,-0.193136\O,0,0.,0.,0.
 585449\C,0,0.,-1.163894,-0.193136\H,0,0.,2.015478,0.485827\H,0,-0.8903
 9,1.219204,-0.834404\H,0,0.89039,1.219204,-0.834404\H,0,0.,-2.015478,0
 .485827\H,0,0.89039,-1.219204,-0.834404\H,0,-0.89039,-1.219204,-0.8344
 04\\Version=EM64L-G16RevC.01\State=1-A1\HF=-154.8544709\RMSD=3.816e-09
 \PG=C02V [C2(O1),SGV(C2H2),X(H4)]\\@
 The archive entry for this job was punched.


 THERE ARE PEOPLE SO ADDICTED TO EXAGERATING THEY
 CAN'T TELL THE TRUTH WITHOUT LYING. -- FORTUNE COOKIE
 Job cpu time:       0 days  0 hours  6 minutes 41.3 seconds.
 Elapsed time:       0 days  0 hours  0 minutes 50.4 seconds.
 File lengths (MBytes):  RWF=    480 Int=      0 D2E=      0 Chk=    291 Scr=      1
 Normal termination of Gaussian 16 at Mon Mar 21 20:12:25 2022.
