 Entering Gaussian System, Link 0=g16
 Input=000033.com
 Output=000033.log
 Initial command:
 /home/sabyasachi/g16/l1.exe "/scratch/sabyasachi/PBS_7976530.helios/Gau-113592.inp" -scrdir="/scratch/sabyasachi/PBS_7976530.helios/"
 Entering Link 1 = /home/sabyasachi/g16/l1.exe PID=    113593.
  
 Copyright (c) 1988-2019, Gaussian, Inc.  All Rights Reserved.
  
 This is part of the Gaussian(R) 16 program.  It is based on
 the Gaussian(R) 09 system (copyright 2009, Gaussian, Inc.),
 the Gaussian(R) 03 system (copyright 2003, Gaussian, Inc.),
 the Gaussian(R) 98 system (copyright 1998, Gaussian, Inc.),
 the Gaussian(R) 94 system (copyright 1995, Gaussian, Inc.),
 the Gaussian 92(TM) system (copyright 1992, Gaussian, Inc.),
 the Gaussian 90(TM) system (copyright 1990, Gaussian, Inc.),
 the Gaussian 88(TM) system (copyright 1988, Gaussian, Inc.),
 the Gaussian 86(TM) system (copyright 1986, Carnegie Mellon
 University), and the Gaussian 82(TM) system (copyright 1983,
 Carnegie Mellon University). Gaussian is a federally registered
 trademark of Gaussian, Inc.
  
 This software contains proprietary and confidential information,
 including trade secrets, belonging to Gaussian, Inc.
  
 This software is provided under written license and may be
 used, copied, transmitted, or stored only in accord with that
 written license.
  
 The following legend is applicable only to US Government
 contracts under FAR:
  
                    RESTRICTED RIGHTS LEGEND
  
 Use, reproduction and disclosure by the US Government is
 subject to restrictions as set forth in subparagraphs (a)
 and (c) of the Commercial Computer Software - Restricted
 Rights clause in FAR 52.227-19.
  
 Gaussian, Inc.
 340 Quinnipiac St., Bldg. 40, Wallingford CT 06492
  
  
 ---------------------------------------------------------------
 Warning -- This program may not be used in any manner that
 competes with the business of Gaussian, Inc. or will provide
 assistance to any competitor of Gaussian, Inc.  The licensee
 of this program is prohibited from giving any competitor of
 Gaussian, Inc. access to this program.  By using this program,
 the user acknowledges that Gaussian, Inc. is engaged in the
 business of creating and licensing software in the field of
 computational chemistry and represents and warrants to the
 licensee that it is not a competitor of Gaussian, Inc. and that
 it will not use this program in any manner prohibited above.
 ---------------------------------------------------------------
  

 Cite this work as:
 Gaussian 16, Revision C.01,
 M. J. Frisch, G. W. Trucks, H. B. Schlegel, G. E. Scuseria, 
 M. A. Robb, J. R. Cheeseman, G. Scalmani, V. Barone, 
 G. A. Petersson, H. Nakatsuji, X. Li, M. Caricato, A. V. Marenich, 
 J. Bloino, B. G. Janesko, R. Gomperts, B. Mennucci, H. P. Hratchian, 
 J. V. Ortiz, A. F. Izmaylov, J. L. Sonnenberg, D. Williams-Young, 
 F. Ding, F. Lipparini, F. Egidi, J. Goings, B. Peng, A. Petrone, 
 T. Henderson, D. Ranasinghe, V. G. Zakrzewski, J. Gao, N. Rega, 
 G. Zheng, W. Liang, M. Hada, M. Ehara, K. Toyota, R. Fukuda, 
 J. Hasegawa, M. Ishida, T. Nakajima, Y. Honda, O. Kitao, H. Nakai, 
 T. Vreven, K. Throssell, J. A. Montgomery, Jr., J. E. Peralta, 
 F. Ogliaro, M. J. Bearpark, J. J. Heyd, E. N. Brothers, K. N. Kudin, 
 V. N. Staroverov, T. A. Keith, R. Kobayashi, J. Normand, 
 K. Raghavachari, A. P. Rendell, J. C. Burant, S. S. Iyengar, 
 J. Tomasi, M. Cossi, J. M. Millam, M. Klene, C. Adamo, R. Cammi, 
 J. W. Ochterski, R. L. Martin, K. Morokuma, O. Farkas, 
 J. B. Foresman, and D. J. Fox, Gaussian, Inc., Wallingford CT, 2019.
 
 ******************************************
 Gaussian 16:  EM64L-G16RevC.01  3-Jul-2019
                21-Mar-2022 
 ******************************************
 %mem=64gb
 %nproc=8
 Will use up to    8 processors via shared memory.
 ----------------------------------------------------------------------
 #P TD(Nstates=10000) pw91pw91/Gen SCF(maxcycles=100) Int(Grid=ultrafin
 e)
 ----------------------------------------------------------------------
 1/38=1,172=1/1;
 2/12=2,17=6,18=5,40=1/2;
 3/5=7,11=9,25=1,30=1,74=608,75=-5/1,2,3,8;
 4//1;
 5/5=2,7=100,38=5/2;
 8/6=1,10=1,108=10000/1;
 9/41=10000,42=1,70=2/14;
 6/7=2,8=2,9=2,10=2/1;
 99/5=1,9=1/99;
 Leave Link    1 at Mon Mar 21 20:14:53 2022, MaxMem=  8589934592 cpu:               0.3 elap:               0.0
 (Enter /home/sabyasachi/g16/l101.exe)
 ---------------------
 xGDB7_00001_tier4.com
 ---------------------
 Symbolic Z-matrix:
 Charge =  0 Multiplicity = 1
 6                     0.        0.72955  -0.36736 
 6                     0.       -0.72955  -0.36736 
 8                     0.        0.        0.84503 
 1                    -0.91895   1.26424  -0.58798 
 1                     0.91895   1.26424  -0.58798 
 1                     0.91895  -1.26424  -0.58798 
 1                    -0.91895  -1.26424  -0.58798 
 
 ITRead=  0  0  0  0  0  0  0
 MicOpt= -1 -1 -1 -1 -1 -1 -1
 NAtoms=      7 NQM=        7 NQMF=       0 NMMI=      0 NMMIF=      0
                NMic=       0 NMicF=      0.
                    Isotopes and Nuclear Properties:
 (Nuclear quadrupole moments (NQMom) in fm**2, nuclear magnetic moments (NMagM)
  in nuclear magnetons)

  Atom         1           2           3           4           5           6           7
 IAtWgt=          12          12          16           1           1           1           1
 AtmWgt=  12.0000000  12.0000000  15.9949146   1.0078250   1.0078250   1.0078250   1.0078250
 NucSpn=           0           0           0           1           1           1           1
 AtZEff=  -0.0000000  -0.0000000  -0.0000000  -0.0000000  -0.0000000  -0.0000000  -0.0000000
 NQMom=    0.0000000   0.0000000   0.0000000   0.0000000   0.0000000   0.0000000   0.0000000
 NMagM=    0.0000000   0.0000000   0.0000000   2.7928460   2.7928460   2.7928460   2.7928460
 AtZNuc=   6.0000000   6.0000000   8.0000000   1.0000000   1.0000000   1.0000000   1.0000000
 Leave Link  101 at Mon Mar 21 20:14:53 2022, MaxMem=  8589934592 cpu:               0.6 elap:               0.1
 (Enter /home/sabyasachi/g16/l202.exe)
                          Input orientation:                          
 ---------------------------------------------------------------------
 Center     Atomic      Atomic             Coordinates (Angstroms)
 Number     Number       Type             X           Y           Z
 ---------------------------------------------------------------------
      1          6           0        0.000000    0.729549   -0.367364
      2          6           0        0.000000   -0.729549   -0.367364
      3          8           0        0.000000    0.000000    0.845033
      4          1           0       -0.918945    1.264243   -0.587975
      5          1           0        0.918945    1.264243   -0.587975
      6          1           0        0.918945   -1.264243   -0.587975
      7          1           0       -0.918945   -1.264243   -0.587975
 ---------------------------------------------------------------------
                    Distance matrix (angstroms):
                    1          2          3          4          5
     1  C    0.000000
     2  C    1.459098   0.000000
     3  O    1.414973   1.414973   0.000000
     4  H    1.085830   2.206431   2.120444   0.000000
     5  H    1.085830   2.206431   2.120444   1.837890   0.000000
     6  H    2.206431   1.085830   2.120444   3.125873   2.528486
     7  H    2.206431   1.085830   2.120444   2.528486   3.125873
                    6          7
     6  H    0.000000
     7  H    1.837890   0.000000
 Stoichiometry    C2H4O
 Framework group  C2V[C2(O),SGV(C2),X(H4)]
 Deg. of freedom     5
 Full point group                 C2V     NOp   4
 Largest Abelian subgroup         C2V     NOp   4
 Largest concise Abelian subgroup C2V     NOp   4
                         Standard orientation:                         
 ---------------------------------------------------------------------
 Center     Atomic      Atomic             Coordinates (Angstroms)
 Number     Number       Type             X           Y           Z
 ---------------------------------------------------------------------
      1          6           0        0.000000    0.729549   -0.367364
      2          6           0       -0.000000   -0.729549   -0.367364
      3          8           0       -0.000000   -0.000000    0.845033
      4          1           0       -0.918945    1.264243   -0.587975
      5          1           0        0.918945    1.264243   -0.587975
      6          1           0        0.918945   -1.264243   -0.587975
      7          1           0       -0.918945   -1.264243   -0.587975
 ---------------------------------------------------------------------
 Rotational constants (GHZ):          26.1375833          22.3408058          14.3785431
 Leave Link  202 at Mon Mar 21 20:14:54 2022, MaxMem=  8589934592 cpu:               0.1 elap:               0.0
 (Enter /home/sabyasachi/g16/l301.exe)
 General basis read from cards:  (5D, 7F)
 Centers:       4      5      6      7
 S 3 1.00
     Exponent=  1.3010701000D+01 Coefficients=  1.9682158000D-02
     Exponent=  1.9622572000D+00 Coefficients=  1.3796524000D-01
     Exponent=  4.4453796000D-01 Coefficients=  4.7831935000D-01
 S 1 1.00
     Exponent=  1.2194962000D-01 Coefficients=  1.0000000000D+00
 P 1 1.00
     Exponent=  8.0000000000D-01 Coefficients=  1.0000000000D+00
 P 1 1.00
     Exponent=  1.1704099050D-01 Coefficients=  1.0000000000D+00
 ****
 Centers:       1      2
 S 5 1.00
     Exponent=  1.2384016938D+03 Coefficients=  5.4568832082D-03
     Exponent=  1.8629004992D+02 Coefficients=  4.0638409211D-02
     Exponent=  4.2251176346D+01 Coefficients=  1.8025593888D-01
     Exponent=  1.1676557932D+01 Coefficients=  4.6315121755D-01
     Exponent=  3.5930506482D+00 Coefficients=  4.4087173314D-01
 S 1 1.00
     Exponent=  4.0245147363D-01 Coefficients=  1.0000000000D+00
 S 1 1.00
     Exponent=  1.3090182668D-01 Coefficients=  1.0000000000D+00
 S 1 1.00
     Exponent=  6.7053540256D-02 Coefficients=  1.0000000000D+00
 P 3 1.00
     Exponent=  9.4680970621D+00 Coefficients=  3.8387871728D-02
     Exponent=  2.0103545142D+00 Coefficients=  2.1117025112D-01
     Exponent=  5.4771004707D-01 Coefficients=  5.1328172114D-01
 P 1 1.00
     Exponent=  1.5268613795D-01 Coefficients=  1.0000000000D+00
 D 1 1.00
     Exponent=  8.0000000000D-01 Coefficients=  1.0000000000D+00
 D 1 1.00
     Exponent=  1.1713185140D-01 Coefficients=  1.0000000000D+00
 ****
 Centers:       3
 S 5 1.00
     Exponent=  2.2661767785D+03 Coefficients= -5.3431809926D-03
     Exponent=  3.4087010191D+02 Coefficients= -3.9890039230D-02
     Exponent=  7.7363135167D+01 Coefficients= -1.7853911985D-01
     Exponent=  2.1479644940D+01 Coefficients= -4.6427684959D-01
     Exponent=  6.6589433124D+00 Coefficients= -4.4309745172D-01
 S 1 1.00
     Exponent=  8.0975975668D-01 Coefficients=  1.0000000000D+00
 S 1 1.00
     Exponent=  2.5530772234D-01 Coefficients=  1.0000000000D+00
 S 1 1.00
     Exponent=  7.6572453250D-02 Coefficients=  1.0000000000D+00
 P 3 1.00
     Exponent=  1.7721504317D+01 Coefficients=  4.3394573193D-02
     Exponent=  3.8635505440D+00 Coefficients=  2.3094120765D-01
     Exponent=  1.0480920883D+00 Coefficients=  5.1375311064D-01
 P 1 1.00
     Exponent=  2.7641544411D-01 Coefficients=  1.0000000000D+00
 P 1 1.00
     Exponent=  6.9002276350D-02 Coefficients=  1.0000000000D+00
 D 1 1.00
     Exponent=  1.2000000000D+00 Coefficients=  1.0000000000D+00
 D 1 1.00
     Exponent=  1.7992024323D-01 Coefficients=  1.0000000000D+00
 ****
 Ernie: Thresh=  0.10000D-02 Tol=  0.10000D-05 Strict=F.
 There are    37 symmetry adapted cartesian basis functions of A1  symmetry.
 There are    16 symmetry adapted cartesian basis functions of A2  symmetry.
 There are    19 symmetry adapted cartesian basis functions of B1  symmetry.
 There are    29 symmetry adapted cartesian basis functions of B2  symmetry.
 There are    33 symmetry adapted basis functions of A1  symmetry.
 There are    16 symmetry adapted basis functions of A2  symmetry.
 There are    19 symmetry adapted basis functions of B1  symmetry.
 There are    27 symmetry adapted basis functions of B2  symmetry.
    95 basis functions,   139 primitive gaussians,   101 cartesian basis functions
    12 alpha electrons       12 beta electrons
       nuclear repulsion energy        75.7300204600 Hartrees.
 IExCor=  608 DFT=T Ex=PW91 Corr=PW91 ExCW=0 ScaHFX=  0.000000
 ScaDFX=  1.000000  1.000000  1.000000  1.000000 ScalE2=  1.000000  1.000000
 IRadAn=      5 IRanWt=     -1 IRanGd=            0 ICorTp=0 IEmpDi=  4
 NAtoms=    7 NActive=    7 NUniq=    3 SFac= 4.00D+00 NAtFMM=   60 NAOKFM=F Big=F
 Integral buffers will be    131072 words long.
 Regular integral format.
 Two-electron integral symmetry is turned on.
 Leave Link  301 at Mon Mar 21 20:14:54 2022, MaxMem=  8589934592 cpu:               0.5 elap:               0.1
 (Enter /home/sabyasachi/g16/l302.exe)
 NPDir=0 NMtPBC=     1 NCelOv=     1 NCel=       1 NClECP=     1 NCelD=      1
         NCelK=      1 NCelE2=     1 NClLst=     1 CellRange=     0.0.
 One-electron integrals computed using PRISM.
 One-electron integral symmetry used in STVInt
 NBasis=    95 RedAO= T EigKep=  1.49D-04  NBF=    33    16    19    27
 NBsUse=    95 1.00D-06 EigRej= -1.00D+00 NBFU=    33    16    19    27
 Precomputing XC quadrature grid using
 IXCGrd= 4 IRadAn=           5 IRanWt=          -1 IRanGd=           0 AccXCQ= 0.00D+00.
 Generated NRdTot=       0 NPtTot=           0 NUsed=           0 NTot=          32
 NSgBfM=   101   101   101   101   101 MxSgAt=     7 MxSgA2=     7.
 Leave Link  302 at Mon Mar 21 20:14:54 2022, MaxMem=  8589934592 cpu:               1.0 elap:               0.1
 (Enter /home/sabyasachi/g16/l303.exe)
 DipDrv:  MaxL=1.
 Leave Link  303 at Mon Mar 21 20:14:54 2022, MaxMem=  8589934592 cpu:               0.2 elap:               0.0
 (Enter /home/sabyasachi/g16/l308.exe)
 Leave Link  308 at Mon Mar 21 20:14:54 2022, MaxMem=  8589934592 cpu:               0.2 elap:               0.1
 (Enter /home/sabyasachi/g16/l401.exe)
 ExpMin= 6.71D-02 ExpMax= 2.27D+03 ExpMxC= 3.41D+02 IAcc=3 IRadAn=         5 AccDes= 0.00D+00
 Harris functional with IExCor=  608 and IRadAn=       5 diagonalized for initial guess.
 HarFok:  IExCor=  608 AccDes= 0.00D+00 IRadAn=         5 IDoV= 1 UseB2=F ITyADJ=14
 ICtDFT=  3500011 ScaDFX=  1.000000  1.000000  1.000000  1.000000
 FoFCou: FMM=F IPFlag=           0 FMFlag=      100000 FMFlg1=           0
         NFxFlg=           0 DoJE=T BraDBF=F KetDBF=T FulRan=T
         wScrn=  0.000000 ICntrl=       500 IOpCl=  0 I1Cent=   200000004 NGrid=           0
         NMat0=    1 NMatS0=      1 NMatT0=    0 NMatD0=    1 NMtDS0=    0 NMtDT0=    0
 Petite list used in FoFCou.
 Harris En= -153.675348006736    
 JPrj=0 DoOrth=F DoCkMO=F.
 Initial guess orbital symmetries:
       Occupied  (A1) (A1) (B2) (A1) (A1) (B2) (B1) (A1) (B2) (A2)
                 (A1) (B1)
       Virtual   (B2) (A1) (A1) (B2) (B1) (A1) (A2) (A1) (B2) (B1)
                 (B2) (B1) (A1) (A1) (B2) (A2) (B1) (A1) (B2) (B1)
                 (A1) (B2) (A2) (A1) (A2) (B2) (A1) (B1) (A2) (A1)
                 (B2) (B1) (B2) (B2) (A1) (B1) (B2) (A2) (A1) (A1)
                 (A2) (A1) (B1) (B2) (A2) (B2) (A1) (B1) (B2) (A1)
                 (B2) (A2) (B1) (A1) (B1) (A2) (A1) (B2) (A1) (B1)
                 (B1) (B2) (A2) (A1) (B2) (A1) (A2) (A1) (B1) (B2)
                 (A1) (B2) (A2) (B2) (B1) (A1) (A1) (A2) (B2) (B1)
                 (A2) (A1) (B2)
 The electronic state of the initial guess is 1-A1.
 Leave Link  401 at Mon Mar 21 20:14:54 2022, MaxMem=  8589934592 cpu:               1.5 elap:               0.2
 (Enter /home/sabyasachi/g16/l502.exe)
 Keep J ints in memory in symmetry-blocked form, NReq=17824824.
 FoFCou: FMM=F IPFlag=           0 FMFlag=           0 FMFlg1=           0
         NFxFlg=           0 DoJE=F BraDBF=F KetDBF=F FulRan=T
         wScrn=  0.000000 ICntrl=       600 IOpCl=  0 I1Cent=           0 NGrid=           0
         NMat0=    1 NMatS0=   4560 NMatT0=    0 NMatD0=    1 NMtDS0=    0 NMtDT0=    0
 Petite list used in FoFCou.
 Closed shell SCF:
 Using DIIS extrapolation, IDIIS=  1040.
 NGot=  8589934592 LenX=  8587281350 LenY=  8587270708
 Requested convergence on RMS density matrix=1.00D-08 within 100 cycles.
 Requested convergence on MAX density matrix=1.00D-06.
 Requested convergence on             energy=1.00D-06.
 No special actions if energy rises.
 Integral accuracy reduced to 1.0D-05 until final iterations.

 Cycle   1  Pass 0  IDiag  1:
 E= -153.582746332451    
 DIIS: error= 2.85D-02 at cycle   1 NSaved=   1.
 NSaved= 1 IEnMin= 1 EnMin= -153.582746332451     IErMin= 1 ErrMin= 2.85D-02
 ErrMax= 2.85D-02  0.00D+00 EMaxC= 1.00D-01 BMatC= 3.78D-02 BMatP= 3.78D-02
 IDIUse=3 WtCom= 7.15D-01 WtEn= 2.85D-01
 Coeff-Com:  0.100D+01
 Coeff-En:   0.100D+01
 Coeff:      0.100D+01
 Gap=     0.209 Goal=   None    Shift=    0.000
 GapD=    0.209 DampG=1.000 DampE=0.500 DampFc=0.5000 IDamp=-1.
 Damping current iteration by 5.00D-01
 RMSDP=5.15D-03 MaxDP=9.35D-02              OVMax= 1.59D-01

 Cycle   2  Pass 0  IDiag  1:
 E= -153.595053116999     Delta-E=       -0.012306784547 Rises=F Damp=T
 DIIS: error= 1.07D-02 at cycle   2 NSaved=   2.
 NSaved= 2 IEnMin= 2 EnMin= -153.595053116999     IErMin= 2 ErrMin= 1.07D-02
 ErrMax= 1.07D-02  0.00D+00 EMaxC= 1.00D-01 BMatC= 6.84D-03 BMatP= 3.78D-02
 IDIUse=3 WtCom= 8.93D-01 WtEn= 1.07D-01
 Coeff-Com:  0.249D+00 0.751D+00
 Coeff-En:   0.345D+00 0.655D+00
 Coeff:      0.259D+00 0.741D+00
 Gap=     0.247 Goal=   None    Shift=    0.000
 RMSDP=1.57D-03 MaxDP=2.22D-02 DE=-1.23D-02 OVMax= 1.08D-01

 Cycle   3  Pass 0  IDiag  1:
 E= -153.624085888801     Delta-E=       -0.029032771803 Rises=F Damp=F
 DIIS: error= 7.01D-03 at cycle   3 NSaved=   3.
 NSaved= 3 IEnMin= 3 EnMin= -153.624085888801     IErMin= 3 ErrMin= 7.01D-03
 ErrMax= 7.01D-03  0.00D+00 EMaxC= 1.00D-01 BMatC= 4.87D-03 BMatP= 6.84D-03
 IDIUse=3 WtCom= 9.30D-01 WtEn= 7.01D-02
 Coeff-Com:  0.107D+00 0.451D+00 0.441D+00
 Coeff-En:   0.000D+00 0.000D+00 0.100D+01
 Coeff:      0.100D+00 0.420D+00 0.480D+00
 Gap=     0.235 Goal=   None    Shift=    0.000
 RMSDP=8.11D-04 MaxDP=1.87D-02 DE=-2.90D-02 OVMax= 2.88D-02

 Cycle   4  Pass 0  IDiag  1:
 E= -153.627023357586     Delta-E=       -0.002937468785 Rises=F Damp=F
 DIIS: error= 3.83D-03 at cycle   4 NSaved=   4.
 NSaved= 4 IEnMin= 4 EnMin= -153.627023357586     IErMin= 4 ErrMin= 3.83D-03
 ErrMax= 3.83D-03  0.00D+00 EMaxC= 1.00D-01 BMatC= 1.29D-03 BMatP= 4.87D-03
 IDIUse=3 WtCom= 9.62D-01 WtEn= 3.83D-02
 Coeff-Com:  0.351D-01 0.148D+00 0.336D+00 0.481D+00
 Coeff-En:   0.000D+00 0.000D+00 0.248D+00 0.752D+00
 Coeff:      0.338D-01 0.142D+00 0.333D+00 0.491D+00
 Gap=     0.239 Goal=   None    Shift=    0.000
 RMSDP=3.01D-04 MaxDP=6.69D-03 DE=-2.94D-03 OVMax= 9.78D-03

 Cycle   5  Pass 0  IDiag  1:
 E= -153.628017693779     Delta-E=       -0.000994336192 Rises=F Damp=F
 DIIS: error= 2.12D-04 at cycle   5 NSaved=   5.
 NSaved= 5 IEnMin= 5 EnMin= -153.628017693779     IErMin= 5 ErrMin= 2.12D-04
 ErrMax= 2.12D-04  0.00D+00 EMaxC= 1.00D-01 BMatC= 5.03D-06 BMatP= 1.29D-03
 IDIUse=3 WtCom= 9.98D-01 WtEn= 2.12D-03
 Coeff-Com:  0.338D-02 0.116D-01 0.614D-01 0.130D+00 0.794D+00
 Coeff-En:   0.000D+00 0.000D+00 0.000D+00 0.000D+00 0.100D+01
 Coeff:      0.337D-02 0.116D-01 0.613D-01 0.129D+00 0.794D+00
 Gap=     0.239 Goal=   None    Shift=    0.000
 RMSDP=3.56D-05 MaxDP=3.75D-04 DE=-9.94D-04 OVMax= 5.14D-04

 Cycle   6  Pass 0  IDiag  1:
 E= -153.628021717517     Delta-E=       -0.000004023738 Rises=F Damp=F
 DIIS: error= 1.25D-05 at cycle   6 NSaved=   6.
 NSaved= 6 IEnMin= 6 EnMin= -153.628021717517     IErMin= 6 ErrMin= 1.25D-05
 ErrMax= 1.25D-05  0.00D+00 EMaxC= 1.00D-01 BMatC= 1.28D-08 BMatP= 5.03D-06
 IDIUse=1 WtCom= 1.00D+00 WtEn= 0.00D+00
 Coeff-Com:  0.254D-03 0.499D-03 0.686D-02 0.164D-01 0.135D+00 0.841D+00
 Coeff:      0.254D-03 0.499D-03 0.686D-02 0.164D-01 0.135D+00 0.841D+00
 Gap=     0.239 Goal=   None    Shift=    0.000
 RMSDP=4.25D-06 MaxDP=5.16D-05 DE=-4.02D-06 OVMax= 3.64D-05

 Initial convergence to 1.0D-05 achieved.  Increase integral accuracy.
 Cycle   7  Pass 1  IDiag  1:
 E= -153.628026783713     Delta-E=       -0.000005066197 Rises=F Damp=F
 DIIS: error= 5.06D-06 at cycle   1 NSaved=   1.
 NSaved= 1 IEnMin= 1 EnMin= -153.628026783713     IErMin= 1 ErrMin= 5.06D-06
 ErrMax= 5.06D-06  0.00D+00 EMaxC= 1.00D-01 BMatC= 1.94D-09 BMatP= 1.94D-09
 IDIUse=1 WtCom= 1.00D+00 WtEn= 0.00D+00
 Coeff-Com:  0.100D+01
 Coeff:      0.100D+01
 Gap=     0.239 Goal=   None    Shift=    0.000
 RMSDP=4.25D-06 MaxDP=5.16D-05 DE=-5.07D-06 OVMax= 3.05D-05

 Cycle   8  Pass 1  IDiag  1:
 E= -153.628026786968     Delta-E=       -0.000000003255 Rises=F Damp=F
 DIIS: error= 3.07D-06 at cycle   2 NSaved=   2.
 NSaved= 2 IEnMin= 2 EnMin= -153.628026786968     IErMin= 2 ErrMin= 3.07D-06
 ErrMax= 3.07D-06  0.00D+00 EMaxC= 1.00D-01 BMatC= 5.50D-10 BMatP= 1.94D-09
 IDIUse=1 WtCom= 1.00D+00 WtEn= 0.00D+00
 Coeff-Com:  0.290D+00 0.710D+00
 Coeff:      0.290D+00 0.710D+00
 Gap=     0.239 Goal=   None    Shift=    0.000
 RMSDP=4.23D-07 MaxDP=9.33D-06 DE=-3.25D-09 OVMax= 1.52D-05

 Cycle   9  Pass 1  IDiag  1:
 E= -153.628026786707     Delta-E=        0.000000000261 Rises=F Damp=F
 DIIS: error= 4.02D-06 at cycle   3 NSaved=   3.
 NSaved= 3 IEnMin= 2 EnMin= -153.628026786968     IErMin= 2 ErrMin= 3.07D-06
 ErrMax= 4.02D-06  0.00D+00 EMaxC= 1.00D-01 BMatC= 9.67D-10 BMatP= 5.50D-10
 IDIUse=1 WtCom= 1.00D+00 WtEn= 0.00D+00
 Coeff-Com:  0.561D-01 0.556D+00 0.388D+00
 Coeff:      0.561D-01 0.556D+00 0.388D+00
 Gap=     0.239 Goal=   None    Shift=    0.000
 RMSDP=2.52D-07 MaxDP=6.38D-06 DE= 2.61D-10 OVMax= 8.64D-06

 Cycle  10  Pass 1  IDiag  1:
 E= -153.628026787453     Delta-E=       -0.000000000746 Rises=F Damp=F
 DIIS: error= 3.78D-07 at cycle   4 NSaved=   4.
 NSaved= 4 IEnMin= 4 EnMin= -153.628026787453     IErMin= 4 ErrMin= 3.78D-07
 ErrMax= 3.78D-07  0.00D+00 EMaxC= 1.00D-01 BMatC= 1.89D-11 BMatP= 5.50D-10
 IDIUse=1 WtCom= 1.00D+00 WtEn= 0.00D+00
 Coeff-Com:  0.285D-02 0.241D+00 0.193D+00 0.563D+00
 Coeff:      0.285D-02 0.241D+00 0.193D+00 0.563D+00
 Gap=     0.239 Goal=   None    Shift=    0.000
 RMSDP=5.03D-08 MaxDP=1.09D-06 DE=-7.46D-10 OVMax= 1.22D-06

 Cycle  11  Pass 1  IDiag  1:
 E= -153.628026787472     Delta-E=       -0.000000000019 Rises=F Damp=F
 DIIS: error= 1.65D-07 at cycle   5 NSaved=   5.
 NSaved= 5 IEnMin= 5 EnMin= -153.628026787472     IErMin= 5 ErrMin= 1.65D-07
 ErrMax= 1.65D-07  0.00D+00 EMaxC= 1.00D-01 BMatC= 1.51D-12 BMatP= 1.89D-11
 IDIUse=1 WtCom= 1.00D+00 WtEn= 0.00D+00
 Coeff-Com: -0.664D-03 0.105D+00 0.867D-01 0.314D+00 0.495D+00
 Coeff:     -0.664D-03 0.105D+00 0.867D-01 0.314D+00 0.495D+00
 Gap=     0.239 Goal=   None    Shift=    0.000
 RMSDP=1.33D-08 MaxDP=2.64D-07 DE=-1.94D-11 OVMax= 3.24D-07

 Cycle  12  Pass 1  IDiag  1:
 E= -153.628026787471     Delta-E=        0.000000000001 Rises=F Damp=F
 DIIS: error= 1.32D-08 at cycle   6 NSaved=   6.
 NSaved= 6 IEnMin= 5 EnMin= -153.628026787472     IErMin= 6 ErrMin= 1.32D-08
 ErrMax= 1.32D-08  0.00D+00 EMaxC= 1.00D-01 BMatC= 1.37D-14 BMatP= 1.51D-12
 IDIUse=1 WtCom= 1.00D+00 WtEn= 0.00D+00
 Coeff-Com: -0.305D-03 0.144D-01 0.147D-01 0.496D-01 0.103D+00 0.818D+00
 Coeff:     -0.305D-03 0.144D-01 0.147D-01 0.496D-01 0.103D+00 0.818D+00
 Gap=     0.239 Goal=   None    Shift=    0.000
 RMSDP=1.68D-09 MaxDP=2.05D-08 DE= 7.96D-13 OVMax= 3.23D-08

 SCF Done:  E(RPW91-PW91) =  -153.628026787     A.U. after   12 cycles
            NFock= 12  Conv=0.17D-08     -V/T= 2.0094
 KE= 1.521985981452D+02 PE=-5.099282491053D+02 EE= 1.283716037127D+02
 Leave Link  502 at Mon Mar 21 20:14:55 2022, MaxMem=  8589934592 cpu:               6.8 elap:               0.9
 (Enter /home/sabyasachi/g16/l801.exe)
 DoSCS=F DFT=T ScalE2(SS,OS)=  1.000000  1.000000
 ExpMin= 6.71D-02 ExpMax= 2.27D+03 ExpMxC= 3.41D+02 IAcc=3 IRadAn=         5 AccDes= 0.00D+00
 HarFok:  IExCor=  205 AccDes= 0.00D+00 IRadAn=         5 IDoV=-2 UseB2=F ITyADJ=14
 ICtDFT= 12500011 ScaDFX=  1.000000  1.000000  1.000000  1.000000
 Largest valence mixing into a core orbital is  7.07D-05
 Largest core mixing into a valence orbital is  1.52D-05
 Range of M.O.s used for correlation:     4    95
 NBasis=    95 NAE=    12 NBE=    12 NFC=     3 NFV=     0
 NROrb=     92 NOA=     9 NOB=     9 NVA=    83 NVB=    83

 **** Warning!!: The largest alpha MO coefficient is  0.29421984D+02

 Leave Link  801 at Mon Mar 21 20:14:55 2022, MaxMem=  8589934592 cpu:               0.6 elap:               0.1
 (Enter /home/sabyasachi/g16/l914.exe)
 RHF ground state
 Keep J ints in memory in symmetry-blocked form, NReq=638130836.
 FoFCou: FMM=F IPFlag=           0 FMFlag=           0 FMFlg1=           0
         NFxFlg=           0 DoJE=F BraDBF=F KetDBF=F FulRan=T
         wScrn=  0.000000 ICntrl=       600 IOpCl=  0 I1Cent=           0 NGrid=           0
         NMat0=    1 NMatS0=   4560 NMatT0=    0 NMatD0=    1 NMtDS0=    0 NMtDT0=    0
 Petite list used in FoFCou.
 MDV=  8589934592 DFT=T DoStab=F Mixed=F DoRPA=T DoScal=T NonHer=F
 Making orbital integer symmetry assigments:
 Orbital symmetries:
       Occupied  (A1) (A1) (B2) (A1) (A1) (B2) (B1) (A1) (B2) (A2)
                 (A1) (B1)
       Virtual   (A1) (B2) (A1) (B1) (B2) (A1) (A2) (B2) (A1) (B1)
                 (B2) (B1) (A1) (A2) (A1) (B2) (B1) (A1) (B2) (B1)
                 (A1) (A2) (B2) (A1) (B2) (A2) (A1) (B2) (A2) (B1)
                 (A1) (B1) (B2) (B2) (A1) (B2) (B1) (A2) (A1) (A1)
                 (A2) (A1) (B1) (B2) (A2) (B2) (A1) (B1) (B2) (A1)
                 (B2) (A2) (B1) (A1) (A2) (B1) (A1) (B2) (A1) (B1)
                 (B1) (B2) (A2) (A1) (B2) (A1) (A2) (B1) (A1) (B2)
                 (A1) (B2) (A2) (B2) (B1) (A1) (A1) (A2) (B2) (B1)
                 (A2) (A1) (B2)
   747 initial guesses have been made.
 Convergence on wavefunction:    0.001000000000000
 Davidson Disk Diagonalization:  ConvIn= 1.00D-03 SkipCon=T Conv= 1.00D-03.
 Max sub-space:  2988 roots to seek:  1494 dimension of matrix:         1494
 *** WARNING: Number of orthogonal guesses is          747
 Iteration     1 Dimension   747 NMult     0 NNew    747
 CISAX will form   747 AO SS matrices at one time.
 NMat=   747 NSing=   747 JSym2X=-1.
 New state     11 was old state     12
 New state     12 was old state     13
 New state     13 was old state     14
 New state     14 was old state     15
 New state     15 was old state     11
 New state     16 was old state     20
 New state     17 was old state     18
 New state     18 was old state     16
 New state     20 was old state     17
 New state     22 was old state     23
 New state     23 was old state     22
 New state     24 was old state     26
 New state     26 was old state     24
 New state     29 was old state     30
 New state     30 was old state     29
 New state     31 was old state     32
 New state     32 was old state     33
 New state     33 was old state     34
 New state     34 was old state     35
 New state     35 was old state     36
 New state     36 was old state     38
 New state     37 was old state     31
 New state     38 was old state     37
 New state     39 was old state     40
 New state     40 was old state     42
 New state     42 was old state     44
 New state     43 was old state     46
 New state     44 was old state     39
 New state     46 was old state     43
 New state     47 was old state     48
 New state     48 was old state     49
 New state     49 was old state     50
 New state     50 was old state     47
 New state     52 was old state     53
 New state     53 was old state     56
 New state     56 was old state     57
 New state     57 was old state     52
 New state     58 was old state     59
 New state     59 was old state     62
 New state     60 was old state     58
 New state     61 was old state     65
 New state     62 was old state     66
 New state     63 was old state     64
 New state     64 was old state     60
 New state     65 was old state     61
 New state     66 was old state     67
 New state     67 was old state     68
 New state     68 was old state     69
 New state     69 was old state     71
 New state     71 was old state     63
 New state     75 was old state     76
 New state     76 was old state     78
 New state     77 was old state     75
 New state     78 was old state     79
 New state     79 was old state     77
 New state     80 was old state     81
 New state     81 was old state     82
 New state     82 was old state     83
 New state     83 was old state     84
 New state     84 was old state     87
 New state     85 was old state     86
 New state     86 was old state     80
 New state     87 was old state     88
 New state     88 was old state     94
 New state     91 was old state     92
 New state     92 was old state     91
 New state     93 was old state     96
 New state     94 was old state     93
 New state     95 was old state    100
 New state     96 was old state     95
 New state     98 was old state     99
 New state     99 was old state     98
 New state    100 was old state    102
 New state    101 was old state    104
 New state    102 was old state    106
 New state    104 was old state    105
 New state    105 was old state    112
 New state    106 was old state    107
 New state    107 was old state    108
 New state    108 was old state    101
 New state    109 was old state    111
 New state    111 was old state    115
 New state    112 was old state    116
 New state    113 was old state    119
 New state    115 was old state    113
 New state    116 was old state    118
 New state    117 was old state    122
 New state    118 was old state    117
 New state    119 was old state    120
 New state    120 was old state    126
 New state    121 was old state    124
 New state    122 was old state    121
 New state    123 was old state    109
 New state    124 was old state    127
 New state    126 was old state    123
 New state    127 was old state    128
 New state    128 was old state    129
 New state    129 was old state    130
 New state    130 was old state    131
 New state    131 was old state    132
 New state    132 was old state    134
 New state    133 was old state    135
 New state    134 was old state    133
 New state    135 was old state    137
 New state    136 was old state    144
 New state    137 was old state    139
 New state    139 was old state    136
 New state    141 was old state    143
 New state    143 was old state    150
 New state    144 was old state    149
 New state    145 was old state    146
 New state    146 was old state    157
 New state    147 was old state    151
 New state    148 was old state    152
 New state    149 was old state    147
 New state    150 was old state    145
 New state    151 was old state    153
 New state    152 was old state    148
 New state    153 was old state    154
 New state    154 was old state    158
 New state    155 was old state    156
 New state    156 was old state    155
 New state    157 was old state    165
 New state    158 was old state    159
 New state    159 was old state    163
 New state    161 was old state    170
 New state    162 was old state    168
 New state    163 was old state    164
 New state    164 was old state    169
 New state    165 was old state    162
 New state    166 was old state    182
 New state    168 was old state    172
 New state    169 was old state    171
 New state    170 was old state    173
 New state    171 was old state    176
 New state    172 was old state    166
 New state    173 was old state    174
 New state    174 was old state    177
 New state    176 was old state    179
 New state    177 was old state    161
 New state    178 was old state    180
 New state    179 was old state    181
 New state    180 was old state    184
 New state    181 was old state    185
 New state    182 was old state    178
 New state    184 was old state    190
 New state    185 was old state    186
 New state    186 was old state    188
 New state    187 was old state    192
 New state    188 was old state    189
 New state    189 was old state    191
 New state    190 was old state    196
 New state    191 was old state    187
 New state    192 was old state    193
 New state    193 was old state    197
 New state    195 was old state    198
 New state    196 was old state    200
 New state    197 was old state    199
 New state    198 was old state    201
 New state    199 was old state    203
 New state    200 was old state    204
 New state    201 was old state    202
 New state    202 was old state    205
 New state    203 was old state    206
 New state    204 was old state    222
 New state    205 was old state    208
 New state    206 was old state    210
 New state    207 was old state    211
 New state    208 was old state    195
 New state    209 was old state    212
 New state    210 was old state    207
 New state    211 was old state    209
 New state    212 was old state    231
 New state    213 was old state    214
 New state    214 was old state    215
 New state    215 was old state    218
 New state    216 was old state    217
 New state    217 was old state    219
 New state    218 was old state    221
 New state    219 was old state    220
 New state    220 was old state    216
 New state    221 was old state    223
 New state    222 was old state    225
 New state    223 was old state    224
 New state    224 was old state    228
 New state    225 was old state    230
 New state    228 was old state    229
 New state    229 was old state    232
 New state    230 was old state    237
 New state    231 was old state    234
 New state    232 was old state    235
 New state    233 was old state    238
 New state    234 was old state    233
 New state    235 was old state    236
 New state    236 was old state    241
 New state    237 was old state    239
 New state    238 was old state    253
 New state    239 was old state    242
 New state    240 was old state    243
 New state    241 was old state    244
 New state    242 was old state    247
 New state    243 was old state    250
 New state    244 was old state    245
 New state    245 was old state    246
 New state    246 was old state    249
 New state    247 was old state    248
 New state    248 was old state    251
 New state    249 was old state    262
 New state    250 was old state    252
 New state    251 was old state    240
 New state    252 was old state    257
 New state    253 was old state    255
 New state    254 was old state    256
 New state    255 was old state    254
 New state    256 was old state    258
 New state    257 was old state    263
 New state    258 was old state    259
 New state    259 was old state    260
 New state    260 was old state    261
 New state    261 was old state    274
 New state    262 was old state    264
 New state    263 was old state    275
 New state    264 was old state    266
 New state    265 was old state    268
 New state    266 was old state    265
 New state    268 was old state    273
 New state    269 was old state    270
 New state    270 was old state    269
 New state    272 was old state    277
 New state    273 was old state    272
 New state    274 was old state    279
 New state    275 was old state    276
 New state    276 was old state    278
 New state    277 was old state    280
 New state    278 was old state    285
 New state    279 was old state    281
 New state    280 was old state    289
 New state    281 was old state    282
 New state    282 was old state    283
 New state    283 was old state    288
 New state    285 was old state    286
 New state    286 was old state    287
 New state    287 was old state    306
 New state    288 was old state    290
 New state    289 was old state    291
 New state    290 was old state    299
 New state    291 was old state    293
 New state    292 was old state    295
 New state    293 was old state    292
 New state    294 was old state    296
 New state    295 was old state    298
 New state    296 was old state    297
 New state    297 was old state    303
 New state    298 was old state    301
 New state    299 was old state    302
 New state    300 was old state    294
 New state    301 was old state    308
 New state    302 was old state    304
 New state    303 was old state    300
 New state    304 was old state    312
 New state    306 was old state    307
 New state    307 was old state    309
 New state    308 was old state    331
 New state    309 was old state    311
 New state    311 was old state    313
 New state    312 was old state    314
 No map to state    313
 New state    314 was old state    316
 New state    315 was old state    317
 New state    316 was old state    315
 New state    317 was old state    318
 New state    318 was old state    319
 New state    319 was old state    320
 New state    320 was old state    321
 New state    321 was old state    327
 New state    323 was old state    324
 New state    324 was old state    325
 New state    325 was old state    323
 New state    327 was old state    328
 New state    328 was old state    342
 New state    331 was old state    332
 New state    332 was old state    333
 New state    333 was old state    334
 New state    334 was old state    336
 New state    336 was old state    337
 New state    337 was old state    338
 New state    338 was old state    339
 New state    339 was old state    340
 New state    340 was old state    345
 New state    342 was old state    343
 New state    343 was old state    346
 New state    345 was old state    355
 New state    346 was old state    347
 New state    347 was old state    354
 New state    351 was old state    353
 New state    353 was old state    351
 New state    354 was old state    357
 New state    355 was old state    359
 New state    356 was old state    358
 New state    357 was old state    367
 New state    358 was old state    360
 New state    359 was old state    356
 New state    360 was old state    363
 New state    361 was old state    362
 New state    362 was old state    364
 New state    363 was old state    365
 New state    364 was old state    361
 New state    365 was old state    366
 New state    366 was old state    368
 New state    367 was old state    371
 New state    368 was old state    372
 New state    370 was old state    373
 New state    371 was old state    370
 New state    372 was old state    380
 New state    373 was old state    378
 New state    374 was old state    375
 New state    375 was old state    376
 New state    376 was old state    384
 New state    378 was old state    379
 New state    379 was old state    374
 New state    380 was old state    381
 New state    381 was old state    383
 New state    382 was old state    387
 New state    383 was old state    385
 New state    384 was old state    382
 New state    385 was old state    386
 New state    386 was old state    389
 New state    387 was old state    388
 New state    388 was old state    390
 New state    389 was old state    391
 New state    390 was old state    393
 New state    391 was old state    392
 New state    392 was old state    394
 New state    393 was old state    414
 New state    394 was old state    396
 New state    396 was old state    397
 New state    397 was old state    399
 New state    399 was old state    400
 New state    400 was old state    402
 New state    402 was old state    403
 New state    403 was old state    405
 New state    404 was old state    420
 New state    405 was old state    404
 New state    407 was old state    408
 New state    408 was old state    409
 New state    409 was old state    410
 New state    410 was old state    407
 New state    412 was old state    413
 New state    413 was old state    412
 New state    414 was old state    415
 New state    415 was old state    417
 New state    417 was old state    419
 New state    419 was old state    423
 New state    420 was old state    421
 New state    421 was old state    425
 New state    423 was old state    424
 New state    424 was old state    426
 New state    425 was old state    427
 New state    426 was old state    429
 New state    427 was old state    428
 New state    428 was old state    430
 New state    429 was old state    434
 New state    430 was old state    431
 New state    431 was old state    432
 New state    432 was old state    433
 New state    433 was old state    450
 New state    434 was old state    435
 New state    435 was old state    436
 New state    436 was old state    438
 New state    438 was old state    445
 New state    444 was old state    446
 New state    445 was old state    444
 New state    446 was old state    447
 New state    447 was old state    449
 New state    449 was old state    455
 New state    450 was old state    451
 New state    451 was old state    456
 New state    455 was old state    459
 New state    456 was old state    457
 New state    457 was old state    460
 New state    459 was old state    461
 No map to state    460
 New state    461 was old state    462
 New state    462 was old state    464
 New state    463 was old state    465
 New state    464 was old state    463
 New state    465 was old state    469
 New state    466 was old state    467
 New state    467 was old state    466
 New state    469 was old state    470
 New state    470 was old state    471
 New state    471 was old state    473
 New state    473 was old state    475
 New state    475 was old state    476
 New state    476 was old state    480
 New state    479 was old state    482
 New state    480 was old state    481
 New state    481 was old state    485
 New state    482 was old state    484
 New state    484 was old state    495
 New state    485 was old state    486
 New state    486 was old state    479
 New state    488 was old state    489
 New state    489 was old state    488
 New state    495 was old state    499
 New state    496 was old state    497
 New state    497 was old state    500
 New state    498 was old state    496
 New state    499 was old state    501
 New state    500 was old state    502
 New state    501 was old state    503
 New state    502 was old state    505
 New state    503 was old state    507
 New state    504 was old state    506
 New state    505 was old state    504
 No map to state    506
 New state    507 was old state    508
 New state    508 was old state    509
 New state    509 was old state    510
 New state    510 was old state    512
 New state    511 was old state    515
 New state    512 was old state    514
 New state    513 was old state    518
 New state    514 was old state    516
 New state    515 was old state    519
 New state    516 was old state    513
 New state    517 was old state    520
 New state    518 was old state    517
 New state    519 was old state    511
 New state    520 was old state    522
 New state    522 was old state    498
 New state    525 was old state    527
 New state    527 was old state    525
 New state    528 was old state    530
 New state    529 was old state    528
 New state    530 was old state    529
 New state    532 was old state    533
 New state    533 was old state    534
 New state    534 was old state    532
 New state    537 was old state    538
 New state    538 was old state    537
 New state    541 was old state    544
 New state    544 was old state    546
 New state    545 was old state    547
 New state    546 was old state    541
 New state    547 was old state    545
 New state    549 was old state    550
 New state    550 was old state    549
 New state    551 was old state    554
 New state    552 was old state    551
 New state    553 was old state    552
 New state    554 was old state    555
 New state    555 was old state    553
 New state    557 was old state    558
 New state    558 was old state    557
 New state    559 was old state    560
 New state    560 was old state    561
 New state    561 was old state    559
 New state    566 was old state    569
 New state    568 was old state    570
 New state    569 was old state    571
 New state    570 was old state    568
 New state    571 was old state    566
 New state    573 was old state    574
 New state    574 was old state    573
 New state    576 was old state    577
 New state    577 was old state    576
 New state    578 was old state    579
 New state    579 was old state    578
 New state    580 was old state    582
 New state    581 was old state    584
 New state    582 was old state    581
 New state    584 was old state    585
 New state    585 was old state    580
 New state    588 was old state    591
 New state    589 was old state    590
 New state    590 was old state    589
 New state    591 was old state    588
 New state    596 was old state    597
 New state    597 was old state    596
 New state    598 was old state    599
 New state    599 was old state    600
 New state    600 was old state    598
 New state    604 was old state    606
 New state    606 was old state    604
 New state    607 was old state    609
 New state    608 was old state    607
 New state    609 was old state    610
 New state    610 was old state    608
 New state    611 was old state    612
 New state    612 was old state    611
 New state    618 was old state    620
 New state    619 was old state    621
 New state    620 was old state    619
 New state    621 was old state    622
 New state    622 was old state    618
 New state    627 was old state    628
 New state    628 was old state    627
 New state    632 was old state    634
 New state    633 was old state    632
 New state    634 was old state    635
 New state    635 was old state    633
 New state    636 was old state    637
 New state    637 was old state    636
 New state    639 was old state    640
 New state    640 was old state    641
 New state    641 was old state    639
 New state    648 was old state    650
 New state    649 was old state    648
 New state    650 was old state    651
 New state    651 was old state    652
 New state    652 was old state    649
 New state    657 was old state    658
 New state    658 was old state    657
 New state    663 was old state    665
 New state    664 was old state    663
 New state    665 was old state    664
 New state    668 was old state    670
 New state    669 was old state    671
 New state    670 was old state    669
 New state    671 was old state    672
 New state    672 was old state    678
 New state    678 was old state    679
 New state    679 was old state    681
 New state    680 was old state    682
 New state    681 was old state    683
 New state    682 was old state    684
 New state    683 was old state    668
 New state    684 was old state    680
 New state    686 was old state    687
 New state    687 was old state    686
 New state    688 was old state    690
 New state    690 was old state    691
 New state    691 was old state    692
 New state    692 was old state    693
 New state    693 was old state    694
 New state    694 was old state    688
 New state    695 was old state    696
 New state    696 was old state    695
 New state    697 was old state    698
 New state    698 was old state    700
 New state    700 was old state    702
 New state    702 was old state    697
 New state    705 was old state    706
 New state    706 was old state    705
 New state    710 was old state    711
 New state    711 was old state    710
 New state    712 was old state    713
 New state    713 was old state    712
 New state    715 was old state    716
 New state    716 was old state    717
 New state    717 was old state    718
 New state    718 was old state    719
 New state    719 was old state    721
 New state    721 was old state    722
 New state    722 was old state    715
 New state    725 was old state    726
 New state    726 was old state    727
 New state    727 was old state    725
 New state    732 was old state    733
 New state    733 was old state    734
 New state    734 was old state    732
 New state    735 was old state    737
 New state    736 was old state    735
 New state    737 was old state    736
 New state    738 was old state    739
 New state    739 was old state    738
 New state    743 was old state    744
 New state    744 was old state    743
 Excitation Energies [eV] at current iteration:
 Root      1 :     6.542201809720216
 Root      2 :     7.071441237771322
 Root      3 :     7.297773406971444
 Root      4 :     7.591685952451468
 Root      5 :     7.913019597573364
 Root      6 :     7.990268341623026
 Root      7 :     8.588669006064871
 Root      8 :     8.698777457739096
 Root      9 :     8.770258804464090
 Root     10 :     8.979261590066262
 Root     11 :     9.481623111016823
 Root     12 :     9.606935816572388
 Root     13 :     9.832063325971376
 Root     14 :     9.920054354826876
 Root     15 :     9.940967771519455
 Root     16 :    10.156384901131060
 Root     17 :    10.181814671847440
 Root     18 :    10.204273309139220
 Root     19 :    10.229229546645650
 Root     20 :    10.486506853554220
 Root     21 :    10.750262749678640
 Root     22 :    10.769102222216370
 Root     23 :    10.788587751516290
 Root     24 :    10.875258449993520
 Root     25 :    10.938881338174440
 Root     26 :    11.018863588083180
 Root     27 :    11.069043115149330
 Root     28 :    11.165702483939580
 Root     29 :    11.465124015281570
 Root     30 :    11.551087571692240
 Root     31 :    11.575330806733870
 Root     32 :    11.794061384857000
 Root     33 :    11.898499481012310
 Root     34 :    12.189380636911570
 Root     35 :    12.204138705454880
 Root     36 :    12.425974158480630
 Root     37 :    12.451722690975790
 Root     38 :    12.492746438943630
 Root     39 :    12.667408340151120
 Root     40 :    12.834870064369730
 Root     41 :    12.878382419541450
 Root     42 :    12.901315041355670
 Root     43 :    12.923056364832210
 Root     44 :    12.924442432866820
 Root     45 :    12.992617168112640
 Root     46 :    13.079273549887670
 Root     47 :    13.110922453543440
 Root     48 :    13.252469925260710
 Root     49 :    13.280572573379390
 Root     50 :    13.285203479237380
 Root     51 :    13.464916900638720
 Root     52 :    13.553762881841630
 Root     53 :    13.559680209041590
 Root     54 :    13.564509867124590
 Root     55 :    13.648871984509020
 Root     56 :    13.741788241536530
 Root     57 :    13.765613019643160
 Root     58 :    13.818042110810860
 Root     59 :    14.046945238103290
 Root     60 :    14.129817821496910
 Root     61 :    14.243203812018440
 Root     62 :    14.251033255871380
 Root     63 :    14.280812113017270
 Root     64 :    14.294249299951010
 Root     65 :    14.328216601182240
 Root     66 :    14.423367421426380
 Root     67 :    14.532260615535220
 Root     68 :    14.637834114226510
 Root     69 :    14.739447907990930
 Root     70 :    14.842683887606330
 Root     71 :    14.927876956929730
 Root     72 :    15.031165207250310
 Root     73 :    15.032834824946110
 Root     74 :    15.147815214066200
 Root     75 :    15.244272670553460
 Root     76 :    15.452479877273840
 Root     77 :    15.549208615502090
 Root     78 :    15.556033312465870
 Root     79 :    15.617216642572070
 Root     80 :    15.684184995551410
 Root     81 :    15.701775210391350
 Root     82 :    15.800487052493900
 Root     83 :    15.813064213661480
 Root     84 :    15.850272968116780
 Root     85 :    15.880780103975410
 Root     86 :    15.914502868296470
 Root     87 :    16.070679927203000
 Root     88 :    16.172387284320180
 Root     89 :    16.213022740149360
 Root     90 :    16.266127885614900
 Root     91 :    16.296242701249910
 Root     92 :    16.375851531704400
 Root     93 :    16.423479978527490
 Root     94 :    16.466448841444230
 Root     95 :    16.538148702040570
 Root     96 :    16.546240860409160
 Root     97 :    16.593586518455470
 Root     98 :    16.605463667142630
 Root     99 :    16.621829795392910
 Root    100 :    16.679696867412860
 Root    101 :    16.707682687380300
 Root    102 :    16.816644859812130
 Root    103 :    16.833656267649150
 Root    104 :    16.855648445787870
 Root    105 :    16.868391995901050
 Root    106 :    16.931482579779060
 Root    107 :    16.992059323655520
 Root    108 :    17.054655654076940
 Root    109 :    17.176435265335520
 Root    110 :    17.187676488988900
 Root    111 :    17.281374438832500
 Root    112 :    17.320239022650430
 Root    113 :    17.352268786002800
 Root    114 :    17.415444498471030
 Root    115 :    17.484804065914520
 Root    116 :    17.570463173572420
 Root    117 :    17.733920597539600
 Root    118 :    17.733958744853920
 Root    119 :    17.765347715121380
 Root    120 :    17.939782285678600
 Root    121 :    17.966143144829660
 Root    122 :    17.969948415537740
 Root    123 :    18.007695893558770
 Root    124 :    18.052228764552800
 Root    125 :    18.068055998099030
 Root    126 :    18.163621830083740
 Root    127 :    18.169071898829650
 Root    128 :    18.189330426199390
 Root    129 :    18.227749055139760
 Root    130 :    18.300796306035710
 Root    131 :    18.335214096210750
 Root    132 :    18.354971373728920
 Root    133 :    18.404973623767400
 Root    134 :    18.473084165873880
 Root    135 :    18.485683723581440
 Root    136 :    18.595900191384490
 Root    137 :    18.660088116989230
 Root    138 :    18.668226553379640
 Root    139 :    18.736592404575640
 Root    140 :    18.865170044841560
 Root    141 :    18.938568327901590
 Root    142 :    18.950512808788210
 Root    143 :    19.107113941764020
 Root    144 :    19.147563591389610
 Root    145 :    19.177915027283880
 Root    146 :    19.227849791981580
 Root    147 :    19.278804428409190
 Root    148 :    19.313185767597290
 Root    149 :    19.314182185520600
 Root    150 :    19.397687415289430
 Root    151 :    19.429841141094020
 Root    152 :    19.498479340596810
 Root    153 :    19.595338966931570
 Root    154 :    19.603149928450090
 Root    155 :    19.609845594533110
 Root    156 :    19.664602423854620
 Root    157 :    19.691265019954900
 Root    158 :    19.747913452086000
 Root    159 :    19.897544560310610
 Root    160 :    19.931387740043490
 Root    161 :    19.945509267172390
 Root    162 :    19.987064824986080
 Root    163 :    20.015885962198310
 Root    164 :    20.041591377270930
 Root    165 :    20.069594848199860
 Root    166 :    20.121463952280200
 Root    167 :    20.123815814592680
 Root    168 :    20.213951034064850
 Root    169 :    20.214905543417510
 Root    170 :    20.217977680501600
 Root    171 :    20.234134678865330
 Root    172 :    20.314479726123960
 Root    173 :    20.370288215140750
 Root    174 :    20.424560863760890
 Root    175 :    20.435742387006060
 Root    176 :    20.581022337901290
 Root    177 :    20.586066990935560
 Root    178 :    20.642970600465480
 Root    179 :    20.730309682874300
 Root    180 :    20.787939456310390
 Root    181 :    20.804535729980630
 Root    182 :    20.929752402857520
 Root    183 :    20.941975814394490
 Root    184 :    21.028977482043180
 Root    185 :    21.201532784459910
 Root    186 :    21.208443786856980
 Root    187 :    21.273266078618240
 Root    188 :    21.300221190146340
 Root    189 :    21.578272018801280
 Root    190 :    21.583798405448710
 Root    191 :    21.611301126119630
 Root    192 :    21.634755412236950
 Root    193 :    21.700227762586690
 Root    194 :    21.730519005327760
 Root    195 :    21.882716308521150
 Root    196 :    21.888389692916630
 Root    197 :    21.951284039221680
 Root    198 :    21.975954721573680
 Root    199 :    21.997419065992420
 Root    200 :    22.059879981696600
 Root    201 :    22.106697829629240
 Root    202 :    22.180380739669400
 Root    203 :    22.271763958745870
 Root    204 :    22.325109770422860
 Root    205 :    22.337480140886460
 Root    206 :    22.470079017068790
 Root    207 :    22.476920515243120
 Root    208 :    22.542822152665210
 Root    209 :    22.551526197638810
 Root    210 :    22.631080916428700
 Root    211 :    22.677287879509410
 Root    212 :    22.719049347655600
 Root    213 :    22.769682302038920
 Root    214 :    22.777940802049810
 Root    215 :    22.896457367663540
 Root    216 :    22.939003286241680
 Root    217 :    23.025574036697370
 Root    218 :    23.030373767602860
 Root    219 :    23.125984001063710
 Root    220 :    23.141248495288990
 Root    221 :    23.338785973141320
 Root    222 :    23.364446192119590
 Root    223 :    23.396777640741940
 Root    224 :    23.606961812668190
 Root    225 :    23.625062996797450
 Root    226 :    23.669686656408010
 Root    227 :    23.736225536463460
 Root    228 :    23.787220476890350
 Root    229 :    23.924643067646380
 Root    230 :    24.040757745216710
 Root    231 :    24.044354709241850
 Root    232 :    24.082607873467150
 Root    233 :    24.135239361445900
 Root    234 :    24.147242626454340
 Root    235 :    24.170400989021350
 Root    236 :    24.248189468515520
 Root    237 :    24.337367518985430
 Root    238 :    24.444358693298670
 Root    239 :    24.515752850243940
 Root    240 :    24.549175400490320
 Root    241 :    24.633642415441250
 Root    242 :    24.793594050677090
 Root    243 :    24.825580859236960
 Root    244 :    24.861654444842310
 Root    245 :    24.888775484289390
 Root    246 :    24.936456295275580
 Root    247 :    25.035056308742860
 Root    248 :    25.058124265174810
 Root    249 :    25.279166292878570
 Root    250 :    25.325954361544980
 Root    251 :    25.376215065505310
 Root    252 :    25.427583380161400
 Root    253 :    25.466704941690010
 Root    254 :    25.489127968843770
 Root    255 :    25.490392152192910
 Root    256 :    25.628425265641750
 Root    257 :    25.659264338104970
 Root    258 :    25.850374480957980
 Root    259 :    25.851279960899740
 Root    260 :    25.873847015249240
 Root    261 :    25.923018550130310
 Root    262 :    25.972086220580910
 Root    263 :    26.045435247756490
 Root    264 :    26.068614975826090
 Root    265 :    26.234891820001150
 Root    266 :    26.329621151528310
 Root    267 :    26.379923502163270
 Root    268 :    26.467051848241910
 Root    269 :    26.571509962426260
 Root    270 :    26.607556168554980
 Root    271 :    26.623458341062520
 Root    272 :    26.757906149543080
 Root    273 :    26.817595436234190
 Root    274 :    26.890186592691020
 Root    275 :    27.029590909686710
 Root    276 :    27.067762378429050
 Root    277 :    27.165034974599860
 Root    278 :    27.196519545221790
 Root    279 :    27.300790651657820
 Root    280 :    27.316372670059620
 Root    281 :    27.502012834751170
 Root    282 :    27.712376969358060
 Root    283 :    27.754635518932770
 Root    284 :    27.765135258780970
 Root    285 :    27.869765363598360
 Root    286 :    27.926892987576330
 Root    287 :    28.035045074921800
 Root    288 :    28.099039198436140
 Root    289 :    28.159102403510970
 Root    290 :    28.228293200834650
 Root    291 :    28.360848281814930
 Root    292 :    28.379705271825940
 Root    293 :    28.426667360439120
 Root    294 :    28.446754378059030
 Root    295 :    28.498658275403340
 Root    296 :    28.546917177382160
 Root    297 :    28.551967839520920
 Root    298 :    28.704688329228870
 Root    299 :    28.758004612386730
 Root    300 :    28.818977548548690
 Root    301 :    28.848096975698440
 Root    302 :    28.876596232794800
 Root    303 :    28.983741454693860
 Root    304 :    29.064004973256020
 Root    305 :    29.086662228722910
 Root    306 :    29.215505123185540
 Root    307 :    29.359917397829700
 Root    308 :    29.362878414460460
 Root    309 :    29.448165705788480
 Root    310 :    29.497365011301080
 Root    311 :    29.548149866939530
 Root    312 :    29.694998454698830
 Root    313 :    29.730710867098110
 Root    314 :    30.055407051637910
 Root    315 :    30.158788477550110
 Root    316 :    30.161826234042040
 Root    317 :    30.212503780568960
 Root    318 :    30.292254477435160
 Root    319 :    30.399453157823190
 Root    320 :    30.458488000076240
 Root    321 :    30.574128583641460
 Root    322 :    30.732075018654940
 Root    323 :    30.771481844418580
 Root    324 :    30.893910950185290
 Root    325 :    30.936893137877800
 Root    326 :    31.120281131685850
 Root    327 :    31.204275603867760
 Root    328 :    31.347622010500200
 Root    329 :    31.424734012003710
 Root    330 :    31.513260985682030
 Root    331 :    31.669646986184360
 Root    332 :    31.722833038644720
 Root    333 :    31.799560906916970
 Root    334 :    31.840764037947470
 Root    335 :    31.975965692329220
 Root    336 :    31.988673048581790
 Root    337 :    32.007541575617410
 Root    338 :    32.106168834914780
 Root    339 :    32.237246620294240
 Root    340 :    32.288164219105700
 Root    341 :    32.449746301493840
 Root    342 :    32.624606858948920
 Root    343 :    32.825690542395880
 Root    344 :    32.867443171490150
 Root    345 :    32.891937590875220
 Root    346 :    32.941924816760800
 Root    347 :    33.034147166640100
 Root    348 :    33.110767801988860
 Root    349 :    33.311745977482630
 Root    350 :    33.344000710097600
 Root    351 :    33.422308754841120
 Root    352 :    33.424300902083370
 Root    353 :    33.577882576557170
 Root    354 :    33.768898129414330
 Root    355 :    33.776348899683700
 Root    356 :    33.801809205661920
 Root    357 :    33.830652325120210
 Root    358 :    34.137169048375750
 Root    359 :    34.205238637926960
 Root    360 :    34.317057898296850
 Root    361 :    34.365693871490460
 Root    362 :    34.426540708824050
 Root    363 :    34.550982270953900
 Root    364 :    34.614031907678960
 Root    365 :    34.666413166141910
 Root    366 :    34.820950910305520
 Root    367 :    34.948172100466440
 Root    368 :    34.981237021174260
 Root    369 :    34.982889214897580
 Root    370 :    35.048536323049440
 Root    371 :    35.072795295590630
 Root    372 :    35.117856546640250
 Root    373 :    35.128812916981330
 Root    374 :    35.342802636469230
 Root    375 :    35.671174694535890
 Root    376 :    35.699816394111220
 Root    377 :    35.729211934361120
 Root    378 :    35.886665808945840
 Root    379 :    36.107628439550570
 Root    380 :    36.303629550642530
 Root    381 :    36.369373949107250
 Root    382 :    36.483209109075740
 Root    383 :    36.491241857723770
 Root    384 :    36.518017344464590
 Root    385 :    36.599714816833730
 Root    386 :    36.738156158368900
 Root    387 :    36.970396903908270
 Root    388 :    36.998415403972370
 Root    389 :    37.036346993561470
 Root    390 :    37.121285081125850
 Root    391 :    37.244508441858860
 Root    392 :    37.345605868231080
 Root    393 :    37.493344678515130
 Root    394 :    37.546311164998340
 Root    395 :    37.547133679089820
 Root    396 :    37.653317608494560
 Root    397 :    37.684960630579630
 Root    398 :    37.800850317800590
 Root    399 :    37.836392321552000
 Root    400 :    38.160773528942750
 Root    401 :    38.233520453074080
 Root    402 :    38.440506157760340
 Root    403 :    38.502711696776540
 Root    404 :    38.645200438234720
 Root    405 :    38.687432097629010
 Root    406 :    38.806666100515140
 Root    407 :    38.920910923921510
 Root    408 :    38.980458351016570
 Root    409 :    39.021844298557600
 Root    410 :    39.054394503114830
 Root    411 :    39.104914927483840
 Root    412 :    39.162571339906730
 Root    413 :    39.202132658268610
 Root    414 :    39.544915757473580
 Root    415 :    39.769932262644230
 Root    416 :    39.785518351003230
 Root    417 :    40.092703143787720
 Root    418 :    40.102285347668560
 Root    419 :    40.123110024647740
 Root    420 :    40.321085703710530
 Root    421 :    40.612399102650680
 Root    422 :    40.866604984761320
 Root    423 :    40.878249849423210
 Root    424 :    40.964746144910110
 Root    425 :    41.022952610462550
 Root    426 :    41.175665690148190
 Root    427 :    41.190057786564940
 Root    428 :    41.356907052737230
 Root    429 :    41.483832182001660
 Root    430 :    41.539761096803010
 Root    431 :    41.566889540007650
 Root    432 :    41.936430933253590
 Root    433 :    42.733052861669640
 Root    434 :    42.734296514851450
 Root    435 :    42.813490975373860
 Root    436 :    43.331966629088990
 Root    437 :    43.435856391170250
 Root    438 :    43.528586105133400
 Root    439 :    43.574773592692540
 Root    440 :    43.720496683619970
 Root    441 :    43.797917321515610
 Root    442 :    43.942587516545910
 Root    443 :    44.094976175847370
 Root    444 :    44.437904843046700
 Root    445 :    44.639367587898950
 Root    446 :    44.879359071438470
 Root    447 :    44.916887493024700
 Root    448 :    44.928612016931870
 Root    449 :    45.221814890136140
 Root    450 :    45.481235261925290
 Root    451 :    45.636157176772960
 Root    452 :    45.710470049781850
 Root    453 :    45.771291815181770
 Root    454 :    46.354786743880050
 Root    455 :    46.435987879892360
 Root    456 :    46.661736890552470
 Root    457 :    46.863624604156230
 Root    458 :    47.142139816917520
 Root    459 :    47.182715981252020
 Root    460 :    47.226098859175760
 Root    461 :    47.577238066593750
 Root    462 :    47.700267906416710
 Root    463 :    47.859913767372660
 Root    464 :    47.908854338862570
 Root    465 :    47.935490094544090
 Root    466 :    48.324575320139320
 Root    467 :    48.456389022713910
 Root    468 :    48.499391934687360
 Root    469 :    49.069963457895400
 Root    470 :    49.476877050620170
 Root    471 :    49.525030884667870
 Root    472 :    49.571420903572100
 Root    473 :    49.609101954027440
 Root    474 :    49.750588628268020
 Root    475 :    50.125734267400570
 Root    476 :    50.131160669743660
 Root    477 :    50.133193905003590
 Root    478 :    50.237652830358790
 Root    479 :    50.549226875794520
 Root    480 :    50.562724544226950
 Root    481 :    50.934238340724680
 Root    482 :    50.998414258679980
 Root    483 :    51.043448272668020
 Root    484 :    51.077851271546790
 Root    485 :    51.182313401627840
 Root    486 :    51.186532956334440
 Root    487 :    51.497577027800840
 Root    488 :    52.096838140990260
 Root    489 :    52.205753201870390
 Root    490 :    52.375405834213470
 Root    491 :    52.484102189830030
 Root    492 :    52.529035234749120
 Root    493 :    52.653033660290720
 Root    494 :    52.918918872699460
 Root    495 :    53.053603086022480
 Root    496 :    53.400605065788350
 Root    497 :    53.436642115280040
 Root    498 :    53.503959818699680
 Root    499 :    53.608480583015370
 Root    500 :    53.696745386290900
 Root    501 :    53.977036823981540
 Root    502 :    54.145403306959990
 Root    503 :    54.253939373438610
 Root    504 :    54.297666430570100
 Root    505 :    54.390617240163780
 Root    506 :    54.851016036457000
 Root    507 :    55.129131651464930
 Root    508 :    55.259649833269340
 Root    509 :    55.513476805060950
 Root    510 :    55.840421669151000
 Root    511 :    55.907911912003780
 Root    512 :    55.993072850950040
 Root    513 :    56.010801395129580
 Root    514 :    56.044025719772000
 Root    515 :    56.094510059064870
 Root    516 :    56.106366151297810
 Root    517 :    56.221474959748650
 Root    518 :    56.340219999024320
 Root    519 :    56.425526575599730
 Root    520 :    56.879576806983610
 Root    521 :    56.883290305944630
 Root    522 :    57.048560719922160
 Root    523 :    57.117114401963780
 Root    524 :    57.126410376300160
 Root    525 :    57.417891915801050
 Root    526 :    57.442764588890750
 Root    527 :    57.834937314874960
 Root    528 :    57.870594282702730
 Root    529 :    57.897392515373230
 Root    530 :    58.027866726242710
 Root    531 :    58.132499918717770
 Root    532 :    58.328404114194320
 Root    533 :    58.362095772112200
 Root    534 :    58.386554792122190
 Root    535 :    58.452222842636880
 Root    536 :    58.784691946471800
 Root    537 :    59.002097128418750
 Root    538 :    59.188919673786120
 Root    539 :    59.383149359251770
 Root    540 :    59.424942844562310
 Root    541 :    59.693423066579460
 Root    542 :    59.704507264785330
 Root    543 :    59.770788879551440
 Root    544 :    60.368068940180920
 Root    545 :    60.371999077660360
 Root    546 :    60.398642602048030
 Root    547 :    60.488547163703680
 Root    548 :    60.819545593891740
 Root    549 :    61.314175470053950
 Root    550 :    61.336924033269110
 Root    551 :    61.641039197707700
 Root    552 :    61.646791812431200
 Root    553 :    61.668778211081630
 Root    554 :    61.803262869891350
 Root    555 :    61.877850696141830
 Root    556 :    62.137791536766480
 Root    557 :    62.310929727035460
 Root    558 :    62.367872375119730
 Root    559 :    62.458441417712910
 Root    560 :    62.494364767045820
 Root    561 :    62.701996907203100
 Root    562 :    62.922060565233630
 Root    563 :    63.072259051401620
 Root    564 :    63.384731361425640
 Root    565 :    63.549235561472430
 Root    566 :    63.913656850923320
 Root    567 :    63.943758301859180
 Root    568 :    63.985317775316480
 Root    569 :    64.064562154597280
 Root    570 :    64.250887160994540
 Root    571 :    64.267291986105280
 Root    572 :    64.530029317121670
 Root    573 :    64.876499776725140
 Root    574 :    64.922278135033740
 Root    575 :    65.334208442377030
 Root    576 :    65.345547157630080
 Root    577 :    65.493966243974730
 Root    578 :    65.525252175437710
 Root    579 :    65.547336472650810
 Root    580 :    65.937675501700350
 Root    581 :    66.034559174337460
 Root    582 :    66.112714540472840
 Root    583 :    66.119071556087600
 Root    584 :    66.177003605120630
 Root    585 :    66.325307129433090
 Root    586 :    66.558991255748550
 Root    587 :    66.754238927594830
 Root    588 :    66.844988892431670
 Root    589 :    66.935089779698810
 Root    590 :    66.962051612509840
 Root    591 :    67.092574058744520
 Root    592 :    67.218437877423550
 Root    593 :    67.443641137791570
 Root    594 :    67.631278924021260
 Root    595 :    67.693705007138050
 Root    596 :    67.719749159364310
 Root    597 :    67.954881414925350
 Root    598 :    68.116130126856130
 Root    599 :    68.506952296453650
 Root    600 :    68.748779266086520
 Root    601 :    69.198039030867890
 Root    602 :    69.290980461317720
 Root    603 :    69.525791886947000
 Root    604 :    69.635520527312350
 Root    605 :    69.892798797768190
 Root    606 :    69.892824439931540
 Root    607 :    70.267042411709680
 Root    608 :    70.525055701730120
 Root    609 :    70.553490938597660
 Root    610 :    70.573869373840890
 Root    611 :    70.702156240473400
 Root    612 :    70.945397190180840
 Root    613 :    71.420759868905380
 Root    614 :    71.863498763023500
 Root    615 :    72.090382853365260
 Root    616 :    72.182748552330540
 Root    617 :    72.814499908883930
 Root    618 :    72.942619647599560
 Root    619 :    72.998160529518880
 Root    620 :    73.058475290179970
 Root    621 :    73.156316990114830
 Root    622 :    73.196343696703290
 Root    623 :    73.267214688222010
 Root    624 :    73.497105226256410
 Root    625 :    73.588136332273490
 Root    626 :    74.000727287181330
 Root    627 :    74.165735834238390
 Root    628 :    74.247602350210470
 Root    629 :    74.363568592853530
 Root    630 :    74.952109845254260
 Root    631 :    75.215563910540410
 Root    632 :    75.466125099104370
 Root    633 :    75.493263851627390
 Root    634 :    75.640466047665400
 Root    635 :    75.812642282397850
 Root    636 :    76.799720135342130
 Root    637 :    76.920241344732890
 Root    638 :    77.228526056163960
 Root    639 :    77.497153980966970
 Root    640 :    77.758504102826380
 Root    641 :    78.339112107742860
 Root    642 :    78.421387318786440
 Root    643 :    78.476967993402170
 Root    644 :    78.845205337925680
 Root    645 :    79.469126838574350
 Root    646 :    79.793556267655300
 Root    647 :    80.729097959074620
 Root    648 :    81.179639839862530
 Root    649 :    81.196261608824530
 Root    650 :    81.248389043110850
 Root    651 :    81.594983994878670
 Root    652 :    81.648763265559770
 Root    653 :    81.978077726393240
 Root    654 :    82.220810653717310
 Root    655 :    82.673003061510980
 Root    656 :    82.796586540042740
 Root    657 :    83.534738315050450
 Root    658 :    83.628251883024730
 Root    659 :    83.923425232930800
 Root    660 :    83.957013631847970
 Root    661 :    84.437141857908560
 Root    662 :    84.770552563291260
 Root    663 :    84.810156931964740
 Root    664 :    85.078209680665130
 Root    665 :    85.148220829331760
 Root    666 :    85.406569706447750
 Root    667 :    85.706909630291360
 Root    668 :    85.818687819724200
 Root    669 :    86.138736683731950
 Root    670 :    86.139404856854640
 Root    671 :    86.670251368353960
 Root    672 :    87.029839452492850
 Root    673 :    87.098816366215470
 Root    674 :    87.360014504778490
 Root    675 :    87.443530224666700
 Root    676 :    87.569980288561770
 Root    677 :    88.223122043225870
 Root    678 :    88.715483174696700
 Root    679 :    88.869931605186410
 Root    680 :    88.872017071366610
 Root    681 :    89.126651805937710
 Root    682 :    89.791489477013410
 Root    683 :    89.859316963641490
 Root    684 :    89.952555674369790
 Root    685 :    89.981919498999600
 Root    686 :    90.068847883013850
 Root    687 :    90.443515280889860
 Root    688 :    90.451002679603120
 Root    689 :    90.528491523386830
 Root    690 :    90.695714258101990
 Root    691 :    91.062390531167950
 Root    692 :    91.328388965075010
 Root    693 :    91.415903022412480
 Root    694 :    91.654479756784450
 Root    695 :    91.746459306199990
 Root    696 :    91.789540392027970
 Root    697 :    92.126008644993010
 Root    698 :    92.301638414672500
 Root    699 :    92.454596863754360
 Root    700 :    92.698312034939090
 Root    701 :    92.746103216539820
 Root    702 :    93.038621683351890
 Root    703 :    93.270710227810600
 Root    704 :    93.472400661474340
 Root    705 :    93.903675076197790
 Root    706 :    94.522862742719450
 Root    707 :    94.678238834652570
 Root    708 :    94.975871127901900
 Root    709 :    95.264243986980740
 Root    710 :    95.297152895792710
 Root    711 :    95.380810086939460
 Root    712 :    95.863404939970490
 Root    713 :    96.108020100840950
 Root    714 :    96.806908910411960
 Root    715 :    97.570443375549260
 Root    716 :    97.877121604435970
 Root    717 :    97.950681576729110
 Root    718 :    98.617393116665800
 Root    719 :    98.855549915309450
 Root    720 :    99.332563004704100
 Root    721 :    99.364826540159130
 Root    722 :   100.117803459458700
 Root    723 :   100.359697414980900
 Root    724 :   100.631680322146100
 Root    725 :   100.959846599969800
 Root    726 :   101.470019047246800
 Root    727 :   101.712901570218000
 Root    728 :   102.037734520923200
 Root    729 :   102.243679100381400
 Root    730 :   102.443916870330300
 Root    731 :   102.938625867539700
 Root    732 :   103.588744701937000
 Root    733 :   104.110700794183200
 Root    734 :   105.117829691177500
 Root    735 :   105.791214499336000
 Root    736 :   105.965556912223200
 Root    737 :   105.989182828675500
 Root    738 :   106.654637289787100
 Root    739 :   107.177902525629800
 Root    740 :   107.896298337732300
 Root    741 :   108.314700417382400
 Root    742 :   109.123016968597800
 Root    743 :   109.899878665308300
 Root    744 :   110.194533359755200
 Root    745 :   112.971520746310400
 Root    746 :   118.895043904020600
 Root    747 :   120.780937558271400
 Convergence achieved for final wavefunctions.
 ***********************************************************************
 Excited states from <AA,BB:AA,BB> singles matrix:
 ***********************************************************************
 
 1PDM for each excited state written to RWF  633
 Ground to excited state transition densities written to RWF  633
 Ground to excited state transition electric dipole moments (Au):
       state          X           Y           Z        Dip. S.      Osc.
         1         0.3733      0.0000     -0.0000      0.1394      0.0223
         2         0.0000      0.0000      0.0000      0.0000      0.0000
         3        -0.2589     -0.0000     -0.0000      0.0670      0.0120
         4         0.0000      0.0000     -0.4560      0.2079      0.0387
         5         0.0000      0.0000     -0.0000      0.0000      0.0000
         6        -0.0000     -0.0000      0.0840      0.0071      0.0014
         7        -0.0000      0.4406     -0.0000      0.1941      0.0408
         8         0.0000      0.0000     -0.5039      0.2539      0.0541
         9         0.2419     -0.0000      0.0000      0.0585      0.0126
        10         0.1579      0.0000      0.0000      0.0249      0.0055
        11        -0.0000      0.4482      0.0000      0.2009      0.0467
        12        -0.0000      0.0000     -0.0000      0.0000      0.0000
        13         0.0000      0.0000     -0.0000      0.0000      0.0000
        14         0.0696      0.0000     -0.0000      0.0048      0.0012
        15        -0.0000     -0.6527      0.0000      0.4260      0.1038
        16        -0.0000      0.0000      0.1439      0.0207      0.0052
        17        -0.0000      0.1814     -0.0000      0.0329      0.0082
        18        -0.5424      0.0000     -0.0000      0.2942      0.0735
        19        -0.0000      0.0000     -0.0000      0.0000      0.0000
        20        -0.0000      0.0000      0.0197      0.0004      0.0001
        21        -0.0000     -0.6559      0.0000      0.4302      0.1133
        22        -0.0000      0.0000      0.0000      0.0000      0.0000
        23        -0.0000      0.0000     -0.2453      0.0602      0.0159
        24         0.0000      0.0000      0.0000      0.0000      0.0000
        25        -0.1241     -0.0000     -0.0000      0.0154      0.0041
        26        -0.0000     -0.5094      0.0000      0.2594      0.0700
        27         0.0000      0.0000     -0.1315      0.0173      0.0047
        28         0.0000      0.0000     -0.0000      0.0000      0.0000
        29        -0.0000      0.0000      0.0943      0.0089      0.0025
        30         0.0000      0.5056     -0.0000      0.2556      0.0723
        31        -0.0315      0.0000     -0.0000      0.0010      0.0003
        32        -0.1351     -0.0000     -0.0000      0.0182      0.0053
        33        -0.0000      0.0000      0.0000      0.0000      0.0000
        34         0.0000      0.2291      0.0000      0.0525      0.0157
        35        -0.0000     -0.0000     -0.0953      0.0091      0.0027
        36         0.0000     -0.1461     -0.0000      0.0214      0.0065
        37         0.0000     -0.0000     -0.1073      0.0115      0.0035
        38        -0.2383      0.0000     -0.0000      0.0568      0.0174
        39        -0.0000      0.2918     -0.0000      0.0852      0.0264
        40         0.0000     -0.7046      0.0000      0.4965      0.1561
        41         0.0214      0.0000     -0.0000      0.0005      0.0001
        42         0.0005     -0.0000     -0.0000      0.0000      0.0000
        43         0.0000     -0.0000      0.0000      0.0000      0.0000
        44         0.0000     -0.0000      0.1843      0.0339      0.0107
[...]
      7   0.000000D+00  0.919695D-01  0.604393D-01  0.000000D+00  0.000000D+00
      8   0.000000D+00  0.000000D+00  0.000000D+00  0.000000D+00  0.658965D+00
      9   0.000000D+00  0.000000D+00  0.000000D+00 -0.133403D+00  0.000000D+00
     10  -0.197703D+00  0.000000D+00  0.000000D+00  0.000000D+00  0.000000D+00
     11   0.000000D+00 -0.485999D-01  0.867445D-01  0.000000D+00  0.000000D+00
     12   0.000000D+00 -0.520039D+00  0.324030D+00  0.000000D+00  0.000000D+00
     13   0.000000D+00  0.436330D+00  0.858978D-01  0.000000D+00  0.000000D+00
     14   0.122613D+00  0.000000D+00  0.000000D+00  0.000000D+00  0.000000D+00
     15   0.000000D+00  0.000000D+00  0.000000D+00 -0.186360D+00  0.000000D+00
     16   0.000000D+00  0.000000D+00  0.000000D+00  0.000000D+00 -0.146005D+00
               681           682           683           684           685 
      1  -0.150353D+03 -0.150328D+03 -0.150326D+03 -0.150322D+03 -0.150321D+03
      2   0.000000D+00  0.101631D+00  0.000000D+00  0.000000D+00  0.000000D+00
      3   0.000000D+00  0.000000D+00 -0.269584D+00  0.000000D+00  0.437027D-01
      4   0.224841D-01  0.000000D+00  0.000000D+00 -0.129803D+00  0.000000D+00
      5   0.000000D+00 -0.278229D+00  0.000000D+00  0.000000D+00  0.000000D+00
      6   0.000000D+00  0.000000D+00  0.781161D+00  0.000000D+00 -0.812905D-01
      7  -0.641626D-01  0.000000D+00  0.000000D+00  0.392032D+00  0.000000D+00
      8   0.000000D+00  0.000000D+00 -0.104243D+01  0.000000D+00 -0.304164D+00
      9   0.000000D+00 -0.315750D+00  0.000000D+00  0.000000D+00  0.000000D+00
     10   0.000000D+00  0.000000D+00  0.000000D+00  0.000000D+00  0.000000D+00
     11   0.272826D+00  0.000000D+00  0.000000D+00 -0.555621D-01  0.000000D+00
     12   0.465797D+00  0.000000D+00  0.000000D+00  0.416052D+00  0.000000D+00
     13  -0.230991D+00  0.000000D+00  0.000000D+00  0.178298D+01  0.000000D+00
     14   0.000000D+00  0.000000D+00  0.000000D+00  0.000000D+00  0.000000D+00
     15   0.000000D+00  0.504666D-01  0.000000D+00  0.000000D+00  0.000000D+00
     16   0.000000D+00  0.000000D+00  0.126904D+01  0.000000D+00 -0.418284D-01
               686           687           688           689           690 
      1  -0.150318D+03 -0.150304D+03 -0.150304D+03 -0.150301D+03 -0.150295D+03
      2   0.000000D+00  0.000000D+00 -0.881327D-01  0.000000D+00 -0.108796D+00
      3   0.000000D+00  0.000000D+00  0.000000D+00  0.000000D+00  0.000000D+00
      4   0.000000D+00  0.181066D-01  0.000000D+00  0.123715D+00  0.000000D+00
      5   0.000000D+00  0.000000D+00  0.251334D+00  0.000000D+00  0.299986D+00
      6   0.000000D+00  0.000000D+00  0.000000D+00  0.000000D+00  0.000000D+00
      7   0.000000D+00 -0.671261D-01  0.000000D+00 -0.396956D+00  0.000000D+00
      8   0.000000D+00  0.000000D+00  0.000000D+00  0.000000D+00  0.000000D+00
      9   0.000000D+00  0.000000D+00 -0.167242D+00  0.000000D+00  0.425531D+00
     10   0.269500D+00  0.000000D+00  0.000000D+00  0.000000D+00  0.000000D+00
     11   0.000000D+00  0.522440D+00  0.000000D+00  0.948570D-01  0.000000D+00
     12   0.000000D+00 -0.588647D+00  0.000000D+00 -0.122977D+00  0.000000D+00
     13   0.000000D+00 -0.189455D+00  0.000000D+00 -0.180759D+01  0.000000D+00
     14  -0.129128D-01  0.000000D+00  0.000000D+00  0.000000D+00  0.000000D+00
     15   0.000000D+00  0.000000D+00 -0.240875D+00  0.000000D+00  0.429839D+00
     16   0.000000D+00  0.000000D+00  0.000000D+00  0.000000D+00  0.000000D+00
               691           692           693           694           695 
      1  -0.150282D+03 -0.150272D+03 -0.150269D+03 -0.150260D+03 -0.150256D+03
      2  -0.130642D+00  0.000000D+00  0.000000D+00  0.255504D+00  0.000000D+00
      3   0.000000D+00  0.000000D+00  0.000000D+00  0.000000D+00  0.863978D-01
      4   0.000000D+00 -0.647833D-01  0.000000D+00  0.000000D+00  0.000000D+00
      5   0.349903D+00  0.000000D+00  0.000000D+00 -0.735140D+00  0.000000D+00
      6   0.000000D+00  0.000000D+00  0.000000D+00  0.000000D+00 -0.248983D+00
      7   0.000000D+00  0.202927D+00  0.000000D+00  0.000000D+00  0.000000D+00
      8   0.000000D+00  0.000000D+00  0.000000D+00  0.000000D+00  0.805188D-01
      9  -0.278114D+00  0.000000D+00  0.000000D+00 -0.916298D+00  0.000000D+00
     10   0.000000D+00  0.000000D+00 -0.776348D-01  0.000000D+00  0.000000D+00
     11   0.000000D+00  0.799461D-01  0.000000D+00  0.000000D+00  0.000000D+00
     12   0.000000D+00 -0.712370D-01  0.000000D+00  0.000000D+00  0.000000D+00
     13   0.000000D+00  0.118465D+01  0.000000D+00  0.000000D+00  0.000000D+00
     14   0.000000D+00  0.000000D+00 -0.511957D-01  0.000000D+00  0.000000D+00
     15  -0.650881D-01  0.000000D+00  0.000000D+00 -0.115279D+01  0.000000D+00
     16   0.000000D+00  0.000000D+00  0.000000D+00  0.000000D+00  0.308372D-01
               696           697           698           699           700 
      1  -0.150255D+03 -0.150242D+03 -0.150236D+03 -0.150230D+03 -0.150221D+03
      2   0.000000D+00  0.000000D+00  0.000000D+00  0.000000D+00  0.000000D+00
      3   0.352845D-01  0.154290D-01  0.000000D+00 -0.114079D-01  0.000000D+00
      4   0.000000D+00  0.000000D+00  0.000000D+00  0.000000D+00  0.000000D+00
      5   0.000000D+00  0.000000D+00  0.000000D+00  0.000000D+00  0.000000D+00
      6  -0.800896D-01 -0.448182D-01  0.000000D+00  0.253413D-01  0.000000D+00
      7   0.000000D+00  0.000000D+00  0.000000D+00  0.000000D+00  0.000000D+00
      8  -0.896524D-01  0.100229D+00  0.000000D+00 -0.124200D+00  0.000000D+00
      9   0.000000D+00  0.000000D+00  0.000000D+00  0.000000D+00  0.000000D+00
     10   0.000000D+00  0.000000D+00 -0.196976D+00  0.000000D+00  0.895846D-01
     11   0.000000D+00  0.000000D+00  0.000000D+00  0.000000D+00  0.000000D+00
     12   0.000000D+00  0.000000D+00  0.000000D+00  0.000000D+00  0.000000D+00
     13   0.000000D+00  0.000000D+00  0.000000D+00  0.000000D+00  0.000000D+00
     14   0.000000D+00  0.000000D+00  0.223559D+00  0.000000D+00 -0.113451D+00
     15   0.000000D+00  0.000000D+00  0.000000D+00  0.000000D+00  0.000000D+00
     16  -0.866456D-01  0.619040D-01  0.000000D+00 -0.166341D+00  0.000000D+00
               701           702           703           704           705 
      1  -0.150220D+03 -0.150209D+03 -0.150200D+03 -0.150193D+03 -0.150177D+03
      2   0.000000D+00  0.000000D+00  0.000000D+00  0.000000D+00  0.000000D+00
      3   0.000000D+00  0.195411D+00  0.236116D-02  0.000000D+00  0.000000D+00
      4  -0.266736D-01  0.000000D+00  0.000000D+00  0.000000D+00  0.000000D+00
      5   0.000000D+00  0.000000D+00  0.000000D+00  0.000000D+00  0.000000D+00
      6   0.000000D+00 -0.602703D+00 -0.233896D-01  0.000000D+00  0.000000D+00
      7   0.890474D-01  0.000000D+00  0.000000D+00  0.000000D+00  0.000000D+00
      8   0.000000D+00  0.778151D+00 -0.347849D+00  0.000000D+00  0.000000D+00
      9   0.000000D+00  0.000000D+00  0.000000D+00  0.000000D+00  0.000000D+00
     10   0.000000D+00  0.000000D+00  0.000000D+00  0.188342D+00 -0.351281D+00
     11   0.555700D-01  0.000000D+00  0.000000D+00  0.000000D+00  0.000000D+00
     12  -0.300773D+00  0.000000D+00  0.000000D+00  0.000000D+00  0.000000D+00
     13   0.807962D+00  0.000000D+00  0.000000D+00  0.000000D+00  0.000000D+00
     14   0.000000D+00  0.000000D+00  0.000000D+00 -0.158631D+00  0.566777D+00
     15   0.000000D+00  0.000000D+00  0.000000D+00  0.000000D+00  0.000000D+00
     16   0.000000D+00 -0.118263D+01  0.164671D+00  0.000000D+00  0.000000D+00
               706           707           708           709           710 
      1  -0.150154D+03 -0.150149D+03 -0.150138D+03 -0.150127D+03 -0.150126D+03
      2   0.000000D+00 -0.154815D-02  0.000000D+00  0.125686D+00  0.000000D+00
      3  -0.204281D+00  0.000000D+00  0.000000D+00  0.000000D+00  0.000000D+00
      4   0.000000D+00  0.000000D+00  0.929972D-02  0.000000D+00 -0.481976D-01
      5   0.000000D+00  0.148678D-01  0.000000D+00 -0.362779D+00  0.000000D+00
      6   0.622169D+00  0.000000D+00  0.000000D+00  0.000000D+00  0.000000D+00
      7   0.000000D+00  0.000000D+00 -0.109700D-01  0.000000D+00  0.153029D+00
      8  -0.122552D+01  0.000000D+00  0.000000D+00  0.000000D+00  0.000000D+00
      9   0.000000D+00  0.404561D+00  0.000000D+00 -0.504335D+00  0.000000D+00
     10   0.000000D+00  0.000000D+00  0.000000D+00  0.000000D+00  0.000000D+00
     11   0.000000D+00  0.000000D+00 -0.432554D+00  0.000000D+00  0.461495D-01
     12   0.000000D+00  0.000000D+00  0.294744D+00  0.000000D+00  0.472917D+00
     13   0.000000D+00  0.000000D+00  0.384842D+00  0.000000D+00  0.625624D+00
     14   0.000000D+00  0.000000D+00  0.000000D+00  0.000000D+00  0.000000D+00
     15   0.000000D+00  0.522224D+00  0.000000D+00 -0.632270D+00  0.000000D+00
     16   0.143353D+01  0.000000D+00  0.000000D+00  0.000000D+00  0.000000D+00
               711           712           713           714           715 
      1  -0.150123D+03 -0.150105D+03 -0.150096D+03 -0.150070D+03 -0.150042D+03
      2   0.000000D+00 -0.270963D-01  0.000000D+00  0.000000D+00  0.000000D+00
      3   0.000000D+00  0.000000D+00  0.000000D+00  0.000000D+00 -0.350455D-01
      4  -0.107580D+00  0.000000D+00  0.000000D+00  0.108045D-01  0.000000D+00
      5   0.000000D+00  0.548321D-01  0.000000D+00  0.000000D+00  0.000000D+00
      6   0.000000D+00  0.000000D+00  0.000000D+00  0.000000D+00  0.831167D-01
      7   0.359339D+00  0.000000D+00  0.000000D+00 -0.246980D-01  0.000000D+00
      8   0.000000D+00  0.000000D+00  0.000000D+00  0.000000D+00  0.696485D-01
      9   0.000000D+00  0.469755D+00  0.000000D+00  0.000000D+00  0.000000D+00
     10   0.000000D+00  0.000000D+00 -0.161363D+00  0.000000D+00  0.000000D+00
     11   0.805738D-01  0.000000D+00  0.000000D+00  0.947274D-01  0.000000D+00
     12  -0.686534D+00  0.000000D+00  0.000000D+00 -0.812195D+00  0.000000D+00
     13   0.177281D+00  0.000000D+00  0.000000D+00 -0.267150D-01  0.000000D+00
     14   0.000000D+00  0.000000D+00 -0.177737D+00  0.000000D+00  0.000000D+00
     15   0.000000D+00  0.685976D+00  0.000000D+00  0.000000D+00  0.000000D+00
     16   0.000000D+00  0.000000D+00  0.000000D+00  0.000000D+00 -0.130585D+00
               716           717           718           719           720 
      1  -0.150031D+03 -0.150028D+03 -0.150004D+03 -0.149995D+03 -0.149978D+03
      2   0.000000D+00  0.000000D+00  0.000000D+00  0.160414D+00  0.000000D+00
      3   0.000000D+00  0.000000D+00 -0.111018D+00  0.000000D+00  0.000000D+00
      4   0.000000D+00  0.000000D+00  0.000000D+00  0.000000D+00 -0.933166D-01
      5   0.000000D+00  0.000000D+00  0.000000D+00 -0.513383D+00  0.000000D+00
      6   0.000000D+00  0.000000D+00  0.371794D+00  0.000000D+00  0.000000D+00
      7   0.000000D+00  0.000000D+00  0.000000D+00  0.000000D+00  0.333733D+00
      8   0.000000D+00  0.000000D+00 -0.116025D+00  0.000000D+00  0.000000D+00
      9   0.000000D+00  0.000000D+00  0.000000D+00 -0.642414D+00  0.000000D+00
     10  -0.448673D+00 -0.177964D+00  0.000000D+00  0.000000D+00  0.000000D+00
     11   0.000000D+00  0.000000D+00  0.000000D+00  0.000000D+00 -0.154135D+00
     12   0.000000D+00  0.000000D+00  0.000000D+00  0.000000D+00 -0.339944D+00
     13   0.000000D+00  0.000000D+00  0.000000D+00  0.000000D+00  0.198350D+01
     14   0.631387D+00  0.174033D+00  0.000000D+00  0.000000D+00  0.000000D+00
     15   0.000000D+00  0.000000D+00  0.000000D+00 -0.629965D+00  0.000000D+00
     16   0.000000D+00  0.000000D+00  0.283241D-02  0.000000D+00  0.000000D+00
               721           722           723           724           725 
      1  -0.149976D+03 -0.149949D+03 -0.149940D+03 -0.149930D+03 -0.149918D+03
      2   0.000000D+00  0.300442D+00  0.000000D+00  0.000000D+00  0.000000D+00
      3   0.000000D+00  0.000000D+00  0.000000D+00 -0.169714D-01 -0.718529D-01
      4   0.000000D+00  0.000000D+00  0.000000D+00  0.000000D+00  0.000000D+00
      5   0.000000D+00 -0.963434D+00  0.000000D+00  0.000000D+00  0.000000D+00
      6   0.000000D+00  0.000000D+00  0.000000D+00  0.578317D-01  0.247844D+00
      7   0.000000D+00  0.000000D+00  0.000000D+00  0.000000D+00  0.000000D+00
      8   0.000000D+00  0.000000D+00  0.000000D+00 -0.180546D+00 -0.163231D+00
      9   0.000000D+00 -0.147804D+01  0.000000D+00  0.000000D+00  0.000000D+00
     10  -0.771686D-01  0.000000D+00 -0.164834D+00  0.000000D+00  0.000000D+00
     11   0.000000D+00  0.000000D+00  0.000000D+00  0.000000D+00  0.000000D+00
     12   0.000000D+00  0.000000D+00  0.000000D+00  0.000000D+00  0.000000D+00
     13   0.000000D+00  0.000000D+00  0.000000D+00  0.000000D+00  0.000000D+00
     14  -0.991249D-01  0.000000D+00  0.184212D+00  0.000000D+00  0.000000D+00
     15   0.000000D+00 -0.195870D+01  0.000000D+00  0.000000D+00  0.000000D+00
     16   0.000000D+00  0.000000D+00  0.000000D+00  0.529199D-01 -0.131196D+00
               726           727           728           729           730 
      1  -0.149899D+03 -0.149890D+03 -0.149878D+03 -0.149871D+03 -0.149863D+03
      2  -0.734110D-01  0.000000D+00  0.169481D+00  0.000000D+00  0.499072D-01
      3   0.000000D+00 -0.225450D+00  0.000000D+00  0.000000D+00  0.000000D+00
      4   0.000000D+00  0.000000D+00  0.000000D+00  0.000000D+00  0.000000D+00
      5   0.242294D+00  0.000000D+00 -0.522660D+00  0.000000D+00 -0.161794D+00
      6   0.000000D+00  0.745367D+00  0.000000D+00  0.000000D+00  0.000000D+00
      7   0.000000D+00  0.000000D+00  0.000000D+00  0.000000D+00  0.000000D+00
      8   0.000000D+00 -0.804799D+00  0.000000D+00  0.000000D+00  0.000000D+00
      9   0.545852D+00  0.000000D+00 -0.171366D+00  0.000000D+00  0.916173D-01
     10   0.000000D+00  0.000000D+00  0.000000D+00 -0.214155D+00  0.000000D+00
     11   0.000000D+00  0.000000D+00  0.000000D+00  0.000000D+00  0.000000D+00
     12   0.000000D+00  0.000000D+00  0.000000D+00  0.000000D+00  0.000000D+00
     13   0.000000D+00  0.000000D+00  0.000000D+00  0.000000D+00  0.000000D+00
     14   0.000000D+00  0.000000D+00  0.000000D+00  0.337609D+00  0.000000D+00
     15   0.681096D+00  0.000000D+00 -0.269038D-01  0.000000D+00  0.284883D+00
     16   0.000000D+00  0.105653D+01  0.000000D+00  0.000000D+00  0.000000D+00
               731           732           733           734           735 
      1  -0.149845D+03 -0.149821D+03 -0.149802D+03 -0.149765D+03 -0.149740D+03
      2   0.000000D+00  0.000000D+00  0.144291D+00  0.000000D+00  0.000000D+00
      3   0.000000D+00  0.000000D+00  0.000000D+00  0.000000D+00  0.000000D+00
      4   0.128144D-01 -0.338917D-01  0.000000D+00 -0.307008D+00  0.000000D+00
      5   0.000000D+00  0.000000D+00 -0.474547D+00  0.000000D+00  0.000000D+00
      6   0.000000D+00  0.000000D+00  0.000000D+00  0.000000D+00  0.000000D+00
      7  -0.362043D-01  0.119433D+00  0.000000D+00  0.108237D+01  0.000000D+00
      8   0.000000D+00  0.000000D+00  0.000000D+00  0.000000D+00  0.000000D+00
      9   0.000000D+00  0.000000D+00 -0.895228D+00  0.000000D+00  0.000000D+00
     10   0.000000D+00  0.000000D+00  0.000000D+00  0.000000D+00  0.153549D+00
     11  -0.126981D+00  0.175577D+00  0.000000D+00 -0.357424D-01  0.000000D+00
     12   0.717123D-01 -0.333250D+00  0.000000D+00 -0.217897D+00  0.000000D+00
     13   0.663113D-01  0.454587D+00  0.000000D+00  0.260850D+01  0.000000D+00
     14   0.000000D+00  0.000000D+00  0.000000D+00  0.000000D+00 -0.151123D+00
     15   0.000000D+00  0.000000D+00 -0.119601D+01  0.000000D+00  0.000000D+00
     16   0.000000D+00  0.000000D+00  0.000000D+00  0.000000D+00  0.000000D+00
               736           737           738           739           740 
      1  -0.149734D+03 -0.149733D+03 -0.149709D+03 -0.149689D+03 -0.149663D+03
      2   0.000000D+00  0.000000D+00  0.000000D+00  0.000000D+00  0.000000D+00
      3  -0.176631D+00  0.000000D+00  0.880699D-01  0.000000D+00  0.000000D+00
      4   0.000000D+00 -0.123860D+00  0.000000D+00  0.000000D+00 -0.350101D-01
      5   0.000000D+00  0.000000D+00  0.000000D+00  0.000000D+00  0.000000D+00
      6   0.631944D+00  0.000000D+00 -0.278740D+00  0.000000D+00  0.000000D+00
      7   0.000000D+00  0.427164D+00  0.000000D+00  0.000000D+00  0.129769D+00
      8  -0.115560D+01  0.000000D+00  0.626237D+00  0.000000D+00  0.000000D+00
      9   0.000000D+00  0.000000D+00  0.000000D+00  0.000000D+00  0.000000D+00
     10   0.000000D+00  0.000000D+00  0.000000D+00  0.126741D+00  0.000000D+00
     11   0.000000D+00 -0.339288D+00  0.000000D+00  0.000000D+00 -0.184109D+00
     12   0.000000D+00  0.164793D+00  0.000000D+00  0.000000D+00  0.339385D+00
     13   0.000000D+00  0.981290D+00  0.000000D+00  0.000000D+00  0.108582D+01
     14   0.000000D+00  0.000000D+00  0.000000D+00 -0.524044D+00  0.000000D+00
     15   0.000000D+00  0.000000D+00  0.000000D+00  0.000000D+00  0.000000D+00
     16   0.114191D+01  0.000000D+00  0.502503D-01  0.000000D+00  0.000000D+00
               741           742           743           744           745 
      1  -0.149648D+03 -0.149618D+03 -0.149589D+03 -0.149578D+03 -0.149476D+03
      2   0.000000D+00  0.000000D+00  0.000000D+00  0.593764D-01  0.000000D+00
      3   0.724910D-01  0.000000D+00 -0.380439D-01  0.000000D+00  0.000000D+00
      4   0.000000D+00 -0.773528D-01  0.000000D+00  0.000000D+00  0.000000D+00
      5   0.000000D+00  0.000000D+00  0.000000D+00 -0.214903D+00  0.000000D+00
      6  -0.239441D+00  0.000000D+00  0.127726D+00  0.000000D+00  0.000000D+00
      7   0.000000D+00  0.380069D+00  0.000000D+00  0.000000D+00  0.000000D+00
      8   0.172055D+00  0.000000D+00 -0.177590D+00  0.000000D+00  0.000000D+00
      9   0.000000D+00  0.000000D+00  0.000000D+00 -0.597257D+00  0.000000D+00
     10   0.000000D+00  0.000000D+00  0.000000D+00  0.000000D+00  0.324221D+00
     11   0.000000D+00 -0.109848D+00  0.000000D+00  0.000000D+00  0.000000D+00
     12   0.000000D+00 -0.769439D-04  0.000000D+00  0.000000D+00  0.000000D+00
     13   0.000000D+00  0.236009D+01  0.000000D+00  0.000000D+00  0.000000D+00
     14   0.000000D+00  0.000000D+00  0.000000D+00  0.000000D+00 -0.219131D+00
     15   0.000000D+00  0.000000D+00  0.000000D+00 -0.416582D+00  0.000000D+00
     16  -0.205803D+00  0.000000D+00  0.961547D+00  0.000000D+00  0.000000D+00
               746           747 
      1  -0.149259D+03 -0.149189D+03
      2   0.000000D+00  0.000000D+00
      3   0.000000D+00  0.496891D-01
      4   0.389535D-01  0.000000D+00
      5   0.000000D+00  0.000000D+00
      6   0.000000D+00 -0.236827D+00
      7  -0.236949D+00  0.000000D+00
      8   0.000000D+00  0.366760D+00
      9   0.000000D+00  0.000000D+00
     10   0.000000D+00  0.000000D+00
     11  -0.117380D+00  0.000000D+00
     12  -0.517846D-01  0.000000D+00
     13  -0.776343D+00  0.000000D+00
     14   0.000000D+00  0.000000D+00
     15   0.000000D+00  0.000000D+00
     16   0.000000D+00 -0.231536D+00
 Unable to Open any file for archive entry.
 1\1\GINC-HEL23\SP\RPW91PW91 TD-FC\Gen\C2H4O1\SABYASACHI\21-Mar-2022\0\
 \#P TD(Nstates=10000) pw91pw91/Gen SCF(maxcycles=100) Int(Grid=ultrafi
 ne)\\xGDB7_00001_tier4.com\\0,1\C,0,0.,0.729549,-0.367364\C,0,0.,-0.72
 9549,-0.367364\O,0,0.,0.,0.845033\H,0,-0.918945,1.264243,-0.587975\H,0
 ,0.918945,1.264243,-0.587975\H,0,0.918945,-1.264243,-0.587975\H,0,-0.9
 18945,-1.264243,-0.587975\\Version=EM64L-G16RevC.01\State=1-A1\HF=-153
 .6280268\RMSD=1.678e-09\PG=C02V [C2(O1),SGV(C2),X(H4)]\\@
 The archive entry for this job was punched.


 ALMOST ALL THE CHEMICAL PROCESSES WHICH OCCUR IN NATURE,
 WHETHER IN ANIMAL OR VEGETABLE ORGANISMS,
 OR IN THE NON-LIVING SURFACE OF THE EARTH ... 
 TAKE PLACE BETWEEN SUBSTANCES IN SOLUTION

                                    -- W. OSTWALD, 1890
 Job cpu time:       0 days  0 hours  3 minutes 22.7 seconds.
 Elapsed time:       0 days  0 hours  0 minutes 25.6 seconds.
 File lengths (MBytes):  RWF=    280 Int=      0 D2E=      0 Chk=    165 Scr=      1
 Normal termination of Gaussian 16 at Mon Mar 21 20:15:19 2022.
