 Entering Gaussian System, Link 0=g16
 Input=000014.com
 Output=000014.log
 Initial command:
 /home/sabyasachi/g16/l1.exe "/scratch/sabyasachi/PBS_7976511.helios/Gau-111392.inp" -scrdir="/scratch/sabyasachi/PBS_7976511.helios/"
 Entering Link 1 = /home/sabyasachi/g16/l1.exe PID=    111393.
  
 Copyright (c) 1988-2019, Gaussian, Inc.  All Rights Reserved.
  
 This is part of the Gaussian(R) 16 program.  It is based on
 the Gaussian(R) 09 system (copyright 2009, Gaussian, Inc.),
 the Gaussian(R) 03 system (copyright 2003, Gaussian, Inc.),
 the Gaussian(R) 98 system (copyright 1998, Gaussian, Inc.),
 the Gaussian(R) 94 system (copyright 1995, Gaussian, Inc.),
 the Gaussian 92(TM) system (copyright 1992, Gaussian, Inc.),
 the Gaussian 90(TM) system (copyright 1990, Gaussian, Inc.),
 the Gaussian 88(TM) system (copyright 1988, Gaussian, Inc.),
 the Gaussian 86(TM) system (copyright 1986, Carnegie Mellon
 University), and the Gaussian 82(TM) system (copyright 1983,
 Carnegie Mellon University). Gaussian is a federally registered
 trademark of Gaussian, Inc.
  
 This software contains proprietary and confidential information,
 including trade secrets, belonging to Gaussian, Inc.
  
 This software is provided under written license and may be
 used, copied, transmitted, or stored only in accord with that
 written license.
  
 The following legend is applicable only to US Government
 contracts under FAR:
  
                    RESTRICTED RIGHTS LEGEND
  
 Use, reproduction and disclosure by the US Government is
 subject to restrictions as set forth in subparagraphs (a)
 and (c) of the Commercial Computer Software - Restricted
 Rights clause in FAR 52.227-19.
  
 Gaussian, Inc.
 340 Quinnipiac St., Bldg. 40, Wallingford CT 06492
  
  
 ---------------------------------------------------------------
 Warning -- This program may not be used in any manner that
 competes with the business of Gaussian, Inc. or will provide
 assistance to any competitor of Gaussian, Inc.  The licensee
 of this program is prohibited from giving any competitor of
 Gaussian, Inc. access to this program.  By using this program,
 the user acknowledges that Gaussian, Inc. is engaged in the
 business of creating and licensing software in the field of
 computational chemistry and represents and warrants to the
 licensee that it is not a competitor of Gaussian, Inc. and that
 it will not use this program in any manner prohibited above.
 ---------------------------------------------------------------
  

 Cite this work as:
 Gaussian 16, Revision C.01,
 M. J. Frisch, G. W. Trucks, H. B. Schlegel, G. E. Scuseria, 
 M. A. Robb, J. R. Cheeseman, G. Scalmani, V. Barone, 
 G. A. Petersson, H. Nakatsuji, X. Li, M. Caricato, A. V. Marenich, 
 J. Bloino, B. G. Janesko, R. Gomperts, B. Mennucci, H. P. Hratchian, 
 J. V. Ortiz, A. F. Izmaylov, J. L. Sonnenberg, D. Williams-Young, 
 F. Ding, F. Lipparini, F. Egidi, J. Goings, B. Peng, A. Petrone, 
 T. Henderson, D. Ranasinghe, V. G. Zakrzewski, J. Gao, N. Rega, 
 G. Zheng, W. Liang, M. Hada, M. Ehara, K. Toyota, R. Fukuda, 
 J. Hasegawa, M. Ishida, T. Nakajima, Y. Honda, O. Kitao, H. Nakai, 
 T. Vreven, K. Throssell, J. A. Montgomery, Jr., J. E. Peralta, 
 F. Ogliaro, M. J. Bearpark, J. J. Heyd, E. N. Brothers, K. N. Kudin, 
 V. N. Staroverov, T. A. Keith, R. Kobayashi, J. Normand, 
 K. Raghavachari, A. P. Rendell, J. C. Burant, S. S. Iyengar, 
 J. Tomasi, M. Cossi, J. M. Millam, M. Klene, C. Adamo, R. Cammi, 
 J. W. Ochterski, R. L. Martin, K. Morokuma, O. Farkas, 
 J. B. Foresman, and D. J. Fox, Gaussian, Inc., Wallingford CT, 2019.
 
 ******************************************
 Gaussian 16:  EM64L-G16RevC.01  3-Jul-2019
                21-Mar-2022 
 ******************************************
 %mem=64gb
 %nproc=8
 Will use up to    8 processors via shared memory.
 ----------------------------------------------------------------------
 #P TD(Nstates=10000) pw91pw91/Gen SCF(maxcycles=100) Int(Grid=ultrafin
 e)
 ----------------------------------------------------------------------
 1/38=1,172=1/1;
 2/12=2,17=6,18=5,40=1/2;
 3/5=7,11=9,25=1,30=1,74=608,75=-5/1,2,3,8;
 4//1;
 5/5=2,7=100,38=5/2;
 8/6=1,10=1,108=10000/1;
 9/41=10000,42=1,70=2/14;
 6/7=2,8=2,9=2,10=2/1;
 99/5=1,9=1/99;
 Leave Link    1 at Mon Mar 21 04:16:18 2022, MaxMem=  8589934592 cpu:               0.4 elap:               0.1
 (Enter /home/sabyasachi/g16/l101.exe)
 ---------------------
 xGDB7_00001_tier4.com
 ---------------------
 Symbolic Z-matrix:
 Charge =  0 Multiplicity = 1
 6                     0.        1.26773  -0.25908 
 6                     0.        0.        0.58555 
 6                     0.       -1.26773  -0.25908 
 1                     0.        2.16431   0.36309 
 1                    -0.88145   1.30768  -0.90365 
 1                     0.88145   1.30768  -0.90365 
 1                    -0.87453   0.        1.24206 
 1                     0.87453   0.        1.24206 
 1                    -0.88145  -1.30768  -0.90365 
 1                     0.       -2.16431   0.36309 
 1                     0.88145  -1.30768  -0.90365 
 
 ITRead=  0  0  0  0  0  0  0  0  0  0  0
 MicOpt= -1 -1 -1 -1 -1 -1 -1 -1 -1 -1 -1
 NAtoms=     11 NQM=       11 NQMF=       0 NMMI=      0 NMMIF=      0
                NMic=       0 NMicF=      0.
                    Isotopes and Nuclear Properties:
 (Nuclear quadrupole moments (NQMom) in fm**2, nuclear magnetic moments (NMagM)
  in nuclear magnetons)

  Atom         1           2           3           4           5           6           7           8           9          10
 IAtWgt=          12          12          12           1           1           1           1           1           1           1
 AtmWgt=  12.0000000  12.0000000  12.0000000   1.0078250   1.0078250   1.0078250   1.0078250   1.0078250   1.0078250   1.0078250
 NucSpn=           0           0           0           1           1           1           1           1           1           1
 AtZEff=  -0.0000000  -0.0000000  -0.0000000  -0.0000000  -0.0000000  -0.0000000  -0.0000000  -0.0000000  -0.0000000  -0.0000000
 NQMom=    0.0000000   0.0000000   0.0000000   0.0000000   0.0000000   0.0000000   0.0000000   0.0000000   0.0000000   0.0000000
 NMagM=    0.0000000   0.0000000   0.0000000   2.7928460   2.7928460   2.7928460   2.7928460   2.7928460   2.7928460   2.7928460
 AtZNuc=   6.0000000   6.0000000   6.0000000   1.0000000   1.0000000   1.0000000   1.0000000   1.0000000   1.0000000   1.0000000

  Atom        11
 IAtWgt=           1
 AtmWgt=   1.0078250
 NucSpn=           1
 AtZEff=  -0.0000000
 NQMom=    0.0000000
 NMagM=    2.7928460
 AtZNuc=   1.0000000
 Leave Link  101 at Mon Mar 21 04:16:18 2022, MaxMem=  8589934592 cpu:               0.7 elap:               0.1
 (Enter /home/sabyasachi/g16/l202.exe)
                          Input orientation:                          
 ---------------------------------------------------------------------
 Center     Atomic      Atomic             Coordinates (Angstroms)
 Number     Number       Type             X           Y           Z
 ---------------------------------------------------------------------
      1          6           0        0.000000    1.267731   -0.259082
      2          6           0        0.000000    0.000000    0.585552
      3          6           0        0.000000   -1.267731   -0.259082
      4          1           0        0.000000    2.164308    0.363087
      5          1           0       -0.881453    1.307675   -0.903652
      6          1           0        0.881453    1.307675   -0.903652
      7          1           0       -0.874532    0.000000    1.242055
      8          1           0        0.874532    0.000000    1.242055
      9          1           0       -0.881453   -1.307675   -0.903652
     10          1           0        0.000000   -2.164308    0.363087
     11          1           0        0.881453   -1.307675   -0.903652
 ---------------------------------------------------------------------
                    Distance matrix (angstroms):
                    1          2          3          4          5
     1  C    0.000000
     2  C    1.523335   0.000000
     3  C    2.535462   1.523335   0.000000
     4  H    1.091304   2.175711   3.487977   0.000000
     5  H    1.092715   2.169032   2.797346   1.765052   0.000000
     6  H    1.092715   2.169032   2.797346   1.765052   1.762906
     7  H    2.150665   1.093528   2.150665   2.494318   2.512791
     8  H    2.150665   1.093528   2.150665   2.494318   3.065543
     9  H    2.797346   2.169032   1.092715   3.799507   2.615350
    10  H    3.487977   2.175711   1.091304   4.328616   3.799507
    11  H    2.797346   2.169032   1.092715   3.799507   3.154028
                    6          7          8          9         10
     6  H    0.000000
     7  H    3.065543   0.000000
     8  H    2.512791   1.749064   0.000000
     9  H    3.154028   2.512791   3.065543   0.000000
    10  H    3.799507   2.494318   2.494318   1.765052   0.000000
    11  H    2.615350   3.065543   2.512791   1.762906   1.765052
                   11
    11  H    0.000000
 Stoichiometry    C3H8
 Framework group  C2V[C2(C),SGV(C2H2),SGV'(H2),X(H4)]
 Deg. of freedom     9
 Full point group                 C2V     NOp   4
 Largest Abelian subgroup         C2V     NOp   4
 Largest concise Abelian subgroup C2V     NOp   4
                         Standard orientation:                         
 ---------------------------------------------------------------------
 Center     Atomic      Atomic             Coordinates (Angstroms)
 Number     Number       Type             X           Y           Z
 ---------------------------------------------------------------------
      1          6           0        0.000000    1.267731   -0.259082
      2          6           0       -0.000000   -0.000000    0.585552
      3          6           0       -0.000000   -1.267731   -0.259082
      4          1           0        0.000000    2.164308    0.363087
      5          1           0       -0.881453    1.307675   -0.903652
      6          1           0        0.881453    1.307675   -0.903652
      7          1           0       -0.874532    0.000000    1.242055
      8          1           0        0.874532   -0.000000    1.242055
      9          1           0       -0.881453   -1.307675   -0.903652
     10          1           0       -0.000000   -2.164308    0.363087
     11          1           0        0.881453   -1.307675   -0.903652
 ---------------------------------------------------------------------
 Rotational constants (GHZ):          29.6189661           8.4822903           7.5098267
 Leave Link  202 at Mon Mar 21 04:16:18 2022, MaxMem=  8589934592 cpu:               0.1 elap:               0.0
 (Enter /home/sabyasachi/g16/l301.exe)
 General basis read from cards:  (5D, 7F)
 Centers:       4      5      6      7      8      9     10     11
 S 3 1.00
     Exponent=  1.3010701000D+01 Coefficients=  1.9682158000D-02
     Exponent=  1.9622572000D+00 Coefficients=  1.3796524000D-01
     Exponent=  4.4453796000D-01 Coefficients=  4.7831935000D-01
 S 1 1.00
     Exponent=  1.2194962000D-01 Coefficients=  1.0000000000D+00
 P 1 1.00
     Exponent=  8.0000000000D-01 Coefficients=  1.0000000000D+00
 P 1 1.00
     Exponent=  1.1704099050D-01 Coefficients=  1.0000000000D+00
 ****
 Centers:       1      2      3
 S 5 1.00
     Exponent=  1.2384016938D+03 Coefficients=  5.4568832082D-03
     Exponent=  1.8629004992D+02 Coefficients=  4.0638409211D-02
     Exponent=  4.2251176346D+01 Coefficients=  1.8025593888D-01
     Exponent=  1.1676557932D+01 Coefficients=  4.6315121755D-01
     Exponent=  3.5930506482D+00 Coefficients=  4.4087173314D-01
 S 1 1.00
     Exponent=  4.0245147363D-01 Coefficients=  1.0000000000D+00
 S 1 1.00
     Exponent=  1.3090182668D-01 Coefficients=  1.0000000000D+00
 S 1 1.00
     Exponent=  6.7053540256D-02 Coefficients=  1.0000000000D+00
 P 3 1.00
     Exponent=  9.4680970621D+00 Coefficients=  3.8387871728D-02
     Exponent=  2.0103545142D+00 Coefficients=  2.1117025112D-01
     Exponent=  5.4771004707D-01 Coefficients=  5.1328172114D-01
 P 1 1.00
     Exponent=  1.5268613795D-01 Coefficients=  1.0000000000D+00
 D 1 1.00
     Exponent=  8.0000000000D-01 Coefficients=  1.0000000000D+00
 D 1 1.00
     Exponent=  1.1713185140D-01 Coefficients=  1.0000000000D+00
 ****
 Ernie: Thresh=  0.10000D-02 Tol=  0.10000D-05 Strict=F.
 There are    48 symmetry adapted cartesian basis functions of A1  symmetry.
 There are    20 symmetry adapted cartesian basis functions of A2  symmetry.
 There are    26 symmetry adapted cartesian basis functions of B1  symmetry.
 There are    36 symmetry adapted cartesian basis functions of B2  symmetry.
 There are    44 symmetry adapted basis functions of A1  symmetry.
 There are    20 symmetry adapted basis functions of A2  symmetry.
 There are    26 symmetry adapted basis functions of B1  symmetry.
 There are    34 symmetry adapted basis functions of B2  symmetry.
   124 basis functions,   176 primitive gaussians,   130 cartesian basis functions
    13 alpha electrons       13 beta electrons
       nuclear repulsion energy        82.7165400226 Hartrees.
 IExCor=  608 DFT=T Ex=PW91 Corr=PW91 ExCW=0 ScaHFX=  0.000000
 ScaDFX=  1.000000  1.000000  1.000000  1.000000 ScalE2=  1.000000  1.000000
 IRadAn=      5 IRanWt=     -1 IRanGd=            0 ICorTp=0 IEmpDi=  4
 NAtoms=   11 NActive=   11 NUniq=    5 SFac= 4.00D+00 NAtFMM=   60 NAOKFM=F Big=F
 Integral buffers will be    131072 words long.
 Regular integral format.
 Two-electron integral symmetry is turned on.
 Leave Link  301 at Mon Mar 21 04:16:18 2022, MaxMem=  8589934592 cpu:               0.5 elap:               0.1
 (Enter /home/sabyasachi/g16/l302.exe)
 NPDir=0 NMtPBC=     1 NCelOv=     1 NCel=       1 NClECP=     1 NCelD=      1
         NCelK=      1 NCelE2=     1 NClLst=     1 CellRange=     0.0.
 One-electron integrals computed using PRISM.
 One-electron integral symmetry used in STVInt
 NBasis=   124 RedAO= T EigKep=  2.54D-04  NBF=    44    20    26    34
 NBsUse=   124 1.00D-06 EigRej= -1.00D+00 NBFU=    44    20    26    34
 Precomputing XC quadrature grid using
 IXCGrd= 4 IRadAn=           5 IRanWt=          -1 IRanGd=           0 AccXCQ= 0.00D+00.
 Generated NRdTot=       0 NPtTot=           0 NUsed=           0 NTot=          32
 NSgBfM=   130   130   130   130   130 MxSgAt=    11 MxSgA2=    11.
 Leave Link  302 at Mon Mar 21 04:16:18 2022, MaxMem=  8589934592 cpu:               1.1 elap:               0.2
 (Enter /home/sabyasachi/g16/l303.exe)
 DipDrv:  MaxL=1.
 Leave Link  303 at Mon Mar 21 04:16:18 2022, MaxMem=  8589934592 cpu:               0.2 elap:               0.0
 (Enter /home/sabyasachi/g16/l308.exe)
 Leave Link  308 at Mon Mar 21 04:16:18 2022, MaxMem=  8589934592 cpu:               0.2 elap:               0.1
 (Enter /home/sabyasachi/g16/l401.exe)
 ExpMin= 6.71D-02 ExpMax= 1.24D+03 ExpMxC= 1.86D+02 IAcc=3 IRadAn=         5 AccDes= 0.00D+00
 Harris functional with IExCor=  608 and IRadAn=       5 diagonalized for initial guess.
 HarFok:  IExCor=  608 AccDes= 0.00D+00 IRadAn=         5 IDoV= 1 UseB2=F ITyADJ=14
 ICtDFT=  3500011 ScaDFX=  1.000000  1.000000  1.000000  1.000000
 FoFCou: FMM=F IPFlag=           0 FMFlag=      100000 FMFlg1=           0
         NFxFlg=           0 DoJE=T BraDBF=F KetDBF=T FulRan=T
         wScrn=  0.000000 ICntrl=       500 IOpCl=  0 I1Cent=   200000004 NGrid=           0
         NMat0=    1 NMatS0=      1 NMatT0=    0 NMatD0=    1 NMtDS0=    0 NMtDT0=    0
 Petite list used in FoFCou.
 Harris En= -119.127221029098    
 JPrj=0 DoOrth=F DoCkMO=F.
 Initial guess orbital symmetries:
       Occupied  (B2) (A1) (A1) (A1) (B2) (A1) (B1) (A1) (B2) (A2)
                 (B2) (A1) (B1)
       Virtual   (A1) (B2) (A1) (B1) (A1) (A1) (B1) (B2) (A2) (B2)
                 (A1) (A2) (B2) (A1) (B1) (B1) (B2) (A1) (A1) (B2)
                 (A1) (A2) (B1) (B1) (A1) (A1) (A2) (B2) (B1) (B2)
                 (A2) (A1) (A1) (B2) (B1) (A1) (B2) (A2) (A1) (B1)
                 (B1) (A2) (B2) (A1) (A1) (B2) (B1) (A2) (B2) (A1)
                 (B2) (A2) (A1) (B2) (A1) (B1) (B2) (A1) (A1) (B2)
                 (B1) (A2) (A1) (B2) (A1) (B1) (A2) (B2) (B1) (B2)
                 (A1) (A1) (A2) (A1) (B1) (B2) (A2) (B1) (A1) (A2)
                 (B2) (B1) (A1) (A2) (B2) (B1) (A1) (B1) (B2) (A2)
                 (A1) (B1) (B2) (A1) (B2) (A1) (A2) (A1) (B2) (B1)
                 (A1) (B2) (A2) (A1) (B2) (B1) (A1) (B2) (A2) (A1)
                 (B1)
 The electronic state of the initial guess is 1-A1.
 Leave Link  401 at Mon Mar 21 04:16:19 2022, MaxMem=  8589934592 cpu:               2.0 elap:               0.3
 (Enter /home/sabyasachi/g16/l502.exe)
 Keep J ints in memory in symmetry-blocked form, NReq=37701951.
 FoFCou: FMM=F IPFlag=           0 FMFlag=           0 FMFlg1=           0
         NFxFlg=           0 DoJE=F BraDBF=F KetDBF=F FulRan=T
         wScrn=  0.000000 ICntrl=       600 IOpCl=  0 I1Cent=           0 NGrid=           0
         NMat0=    1 NMatS0=   7750 NMatT0=    0 NMatD0=    1 NMtDS0=    0 NMtDT0=    0
 Petite list used in FoFCou.
 Closed shell SCF:
 Using DIIS extrapolation, IDIIS=  1040.
 NGot=  8589934592 LenX=  8582321173 LenY=  8582303832
 Requested convergence on RMS density matrix=1.00D-08 within 100 cycles.
 Requested convergence on MAX density matrix=1.00D-06.
 Requested convergence on             energy=1.00D-06.
 No special actions if energy rises.
 Integral accuracy reduced to 1.0D-05 until final iterations.

 Cycle   1  Pass 0  IDiag  1:
 E= -118.841698113895    
 DIIS: error= 4.17D-02 at cycle   1 NSaved=   1.
 NSaved= 1 IEnMin= 1 EnMin= -118.841698113895     IErMin= 1 ErrMin= 4.17D-02
 ErrMax= 4.17D-02  0.00D+00 EMaxC= 1.00D-01 BMatC= 1.28D-01 BMatP= 1.28D-01
 IDIUse=3 WtCom= 5.83D-01 WtEn= 4.17D-01
 Coeff-Com:  0.100D+01
 Coeff-En:   0.100D+01
 Coeff:      0.100D+01
 Gap=     0.200 Goal=   None    Shift=    0.000
 GapD=    0.200 DampG=1.000 DampE=0.500 DampFc=0.5000 IDamp=-1.
 Damping current iteration by 5.00D-01
 RMSDP=7.80D-03 MaxDP=1.64D-01              OVMax= 2.36D-01

 Cycle   2  Pass 0  IDiag  1:
 E= -118.876172156793     Delta-E=       -0.034474042899 Rises=F Damp=T
 DIIS: error= 1.49D-02 at cycle   2 NSaved=   2.
 NSaved= 2 IEnMin= 2 EnMin= -118.876172156793     IErMin= 2 ErrMin= 1.49D-02
 ErrMax= 1.49D-02  0.00D+00 EMaxC= 1.00D-01 BMatC= 1.47D-02 BMatP= 1.28D-01
 IDIUse=3 WtCom= 8.51D-01 WtEn= 1.49D-01
 Coeff-Com:  0.237D+00 0.763D+00
 Coeff-En:   0.389D+00 0.611D+00
 Coeff:      0.259D+00 0.741D+00
 Gap=     0.280 Goal=   None    Shift=    0.000
 RMSDP=1.96D-03 MaxDP=3.29D-02 DE=-3.45D-02 OVMax= 1.51D-01

 Cycle   3  Pass 0  IDiag  1:
 E= -118.991376534731     Delta-E=       -0.115204377938 Rises=F Damp=F
 DIIS: error= 3.01D-03 at cycle   3 NSaved=   3.
 NSaved= 3 IEnMin= 3 EnMin= -118.991376534731     IErMin= 3 ErrMin= 3.01D-03
 ErrMax= 3.01D-03  0.00D+00 EMaxC= 1.00D-01 BMatC= 1.01D-03 BMatP= 1.47D-02
 IDIUse=3 WtCom= 9.70D-01 WtEn= 3.01D-02
 Coeff-Com:  0.879D-01 0.269D+00 0.643D+00
 Coeff-En:   0.000D+00 0.000D+00 0.100D+01
 Coeff:      0.852D-01 0.261D+00 0.654D+00
 Gap=     0.287 Goal=   None    Shift=    0.000
 RMSDP=6.08D-04 MaxDP=8.84D-03 DE=-1.15D-01 OVMax= 1.14D-02

 Cycle   4  Pass 0  IDiag  1:
 E= -118.992206178879     Delta-E=       -0.000829644148 Rises=F Damp=F
 DIIS: error= 1.11D-03 at cycle   4 NSaved=   4.
 NSaved= 4 IEnMin= 4 EnMin= -118.992206178879     IErMin= 4 ErrMin= 1.11D-03
 ErrMax= 1.11D-03  0.00D+00 EMaxC= 1.00D-01 BMatC= 2.08D-04 BMatP= 1.01D-03
 IDIUse=3 WtCom= 9.89D-01 WtEn= 1.11D-02
 Coeff-Com:  0.215D-01 0.708D-01 0.326D+00 0.581D+00
 Coeff-En:   0.000D+00 0.000D+00 0.986D-01 0.901D+00
 Coeff:      0.212D-01 0.700D-01 0.324D+00 0.585D+00
 Gap=     0.287 Goal=   None    Shift=    0.000
 RMSDP=1.72D-04 MaxDP=5.23D-03 DE=-8.30D-04 OVMax= 4.08D-03

 Cycle   5  Pass 0  IDiag  1:
 E= -118.992392416851     Delta-E=       -0.000186237972 Rises=F Damp=F
 DIIS: error= 4.61D-04 at cycle   5 NSaved=   5.
 NSaved= 5 IEnMin= 5 EnMin= -118.992392416851     IErMin= 5 ErrMin= 4.61D-04
 ErrMax= 4.61D-04  0.00D+00 EMaxC= 1.00D-01 BMatC= 1.93D-05 BMatP= 2.08D-04
 IDIUse=3 WtCom= 9.95D-01 WtEn= 4.61D-03
 Coeff-Com:  0.868D-03 0.515D-02 0.836D-01 0.289D+00 0.621D+00
 Coeff-En:   0.000D+00 0.000D+00 0.000D+00 0.136D-01 0.986D+00
 Coeff:      0.864D-03 0.513D-02 0.832D-01 0.288D+00 0.623D+00
 Gap=     0.287 Goal=   None    Shift=    0.000
 RMSDP=6.14D-05 MaxDP=1.47D-03 DE=-1.86D-04 OVMax= 1.37D-03

 Cycle   6  Pass 0  IDiag  1:
 E= -118.992411131212     Delta-E=       -0.000018714360 Rises=F Damp=F
 DIIS: error= 6.32D-05 at cycle   6 NSaved=   6.
 NSaved= 6 IEnMin= 6 EnMin= -118.992411131212     IErMin= 6 ErrMin= 6.32D-05
 ErrMax= 6.32D-05  0.00D+00 EMaxC= 1.00D-01 BMatC= 3.33D-07 BMatP= 1.93D-05
 IDIUse=1 WtCom= 1.00D+00 WtEn= 0.00D+00
 Coeff-Com:  0.129D-03 0.277D-03 0.225D-01 0.919D-01 0.235D+00 0.650D+00
 Coeff:      0.129D-03 0.277D-03 0.225D-01 0.919D-01 0.235D+00 0.650D+00
 Gap=     0.287 Goal=   None    Shift=    0.000
 RMSDP=1.13D-05 MaxDP=1.35D-04 DE=-1.87D-05 OVMax= 2.10D-04

 Cycle   7  Pass 0  IDiag  1:
 E= -118.992411546134     Delta-E=       -0.000000414923 Rises=F Damp=F
 DIIS: error= 8.69D-06 at cycle   7 NSaved=   7.
 NSaved= 7 IEnMin= 7 EnMin= -118.992411546134     IErMin= 7 ErrMin= 8.69D-06
 ErrMax= 8.69D-06  0.00D+00 EMaxC= 1.00D-01 BMatC= 9.86D-09 BMatP= 3.33D-07
 IDIUse=1 WtCom= 1.00D+00 WtEn= 0.00D+00
 Coeff-Com:  0.143D-03-0.127D-03 0.117D-02 0.660D-02 0.218D-01 0.163D+00
 Coeff-Com:  0.807D+00
 Coeff:      0.143D-03-0.127D-03 0.117D-02 0.660D-02 0.218D-01 0.163D+00
 Coeff:      0.807D+00
 Gap=     0.287 Goal=   None    Shift=    0.000
 RMSDP=1.66D-06 MaxDP=2.24D-05 DE=-4.15D-07 OVMax= 3.43D-05

 Initial convergence to 1.0D-05 achieved.  Increase integral accuracy.
 Cycle   8  Pass 1  IDiag  1:
 E= -118.992406522106     Delta-E=        0.000005024029 Rises=F Damp=F
 DIIS: error= 2.05D-06 at cycle   1 NSaved=   1.
 NSaved= 1 IEnMin= 1 EnMin= -118.992406522106     IErMin= 1 ErrMin= 2.05D-06
 ErrMax= 2.05D-06  0.00D+00 EMaxC= 1.00D-01 BMatC= 6.22D-10 BMatP= 6.22D-10
 IDIUse=1 WtCom= 1.00D+00 WtEn= 0.00D+00
 Coeff-Com:  0.100D+01
 Coeff:      0.100D+01
 Gap=     0.287 Goal=   None    Shift=    0.000
 RMSDP=1.66D-06 MaxDP=2.24D-05 DE= 5.02D-06 OVMax= 1.13D-05

 Cycle   9  Pass 1  IDiag  1:
 E= -118.992406522998     Delta-E=       -0.000000000893 Rises=F Damp=F
 DIIS: error= 7.55D-07 at cycle   2 NSaved=   2.
 NSaved= 2 IEnMin= 2 EnMin= -118.992406522998     IErMin= 2 ErrMin= 7.55D-07
 ErrMax= 7.55D-07  0.00D+00 EMaxC= 1.00D-01 BMatC= 4.60D-11 BMatP= 6.22D-10
 IDIUse=1 WtCom= 1.00D+00 WtEn= 0.00D+00
 Coeff-Com:  0.144D+00 0.856D+00
 Coeff:      0.144D+00 0.856D+00
 Gap=     0.287 Goal=   None    Shift=    0.000
 RMSDP=1.65D-07 MaxDP=2.76D-06 DE=-8.93D-10 OVMax= 3.79D-06

 Cycle  10  Pass 1  IDiag  1:
 E= -118.992406523029     Delta-E=       -0.000000000031 Rises=F Damp=F
 DIIS: error= 5.65D-07 at cycle   3 NSaved=   3.
 NSaved= 3 IEnMin= 3 EnMin= -118.992406523029     IErMin= 3 ErrMin= 5.65D-07
 ErrMax= 5.65D-07  0.00D+00 EMaxC= 1.00D-01 BMatC= 2.31D-11 BMatP= 4.60D-11
 IDIUse=1 WtCom= 1.00D+00 WtEn= 0.00D+00
 Coeff-Com:  0.257D-01 0.416D+00 0.558D+00
 Coeff:      0.257D-01 0.416D+00 0.558D+00
 Gap=     0.287 Goal=   None    Shift=    0.000
 RMSDP=5.46D-08 MaxDP=1.17D-06 DE=-3.06D-11 OVMax= 1.53D-06

 Cycle  11  Pass 1  IDiag  1:
 E= -118.992406523049     Delta-E=       -0.000000000020 Rises=F Damp=F
 DIIS: error= 1.97D-07 at cycle   4 NSaved=   4.
 NSaved= 4 IEnMin= 4 EnMin= -118.992406523049     IErMin= 4 ErrMin= 1.97D-07
 ErrMax= 1.97D-07  0.00D+00 EMaxC= 1.00D-01 BMatC= 3.19D-12 BMatP= 2.31D-11
 IDIUse=1 WtCom= 1.00D+00 WtEn= 0.00D+00
 Coeff-Com: -0.163D-02 0.132D+00 0.316D+00 0.554D+00
 Coeff:     -0.163D-02 0.132D+00 0.316D+00 0.554D+00
 Gap=     0.287 Goal=   None    Shift=    0.000
 RMSDP=1.79D-08 MaxDP=2.93D-07 DE=-1.97D-11 OVMax= 4.92D-07

 Cycle  12  Pass 1  IDiag  1:
 E= -118.992406523052     Delta-E=       -0.000000000004 Rises=F Damp=F
 DIIS: error= 1.04D-08 at cycle   5 NSaved=   5.
 NSaved= 5 IEnMin= 5 EnMin= -118.992406523052     IErMin= 5 ErrMin= 1.04D-08
 ErrMax= 1.04D-08  0.00D+00 EMaxC= 1.00D-01 BMatC= 1.04D-14 BMatP= 3.19D-12
 IDIUse=1 WtCom= 1.00D+00 WtEn= 0.00D+00
 Coeff-Com: -0.680D-03 0.392D-01 0.970D-01 0.179D+00 0.686D+00
 Coeff:     -0.680D-03 0.392D-01 0.970D-01 0.179D+00 0.686D+00
 Gap=     0.287 Goal=   None    Shift=    0.000
 RMSDP=2.25D-09 MaxDP=4.14D-08 DE=-3.61D-12 OVMax= 4.88D-08

 SCF Done:  E(RPW91-PW91) =  -118.992406523     A.U. after   12 cycles
            NFock= 12  Conv=0.22D-08     -V/T= 2.0131
 KE= 1.174492400742D+02 PE=-4.393391996019D+02 EE= 1.201810129821D+02
 Leave Link  502 at Mon Mar 21 04:16:20 2022, MaxMem=  8589934592 cpu:              12.1 elap:               1.6
 (Enter /home/sabyasachi/g16/l801.exe)
 DoSCS=F DFT=T ScalE2(SS,OS)=  1.000000  1.000000
 ExpMin= 6.71D-02 ExpMax= 1.24D+03 ExpMxC= 1.86D+02 IAcc=3 IRadAn=         5 AccDes= 0.00D+00
 HarFok:  IExCor=  205 AccDes= 0.00D+00 IRadAn=         5 IDoV=-2 UseB2=F ITyADJ=14
 ICtDFT= 12500011 ScaDFX=  1.000000  1.000000  1.000000  1.000000
 Largest valence mixing into a core orbital is  6.64D-05
 Largest core mixing into a valence orbital is  1.66D-05
 Range of M.O.s used for correlation:     4   124
 NBasis=   124 NAE=    13 NBE=    13 NFC=     3 NFV=     0
 NROrb=    121 NOA=    10 NOB=    10 NVA=   111 NVB=   111

 **** Warning!!: The largest alpha MO coefficient is  0.27180789D+02

 Leave Link  801 at Mon Mar 21 04:16:20 2022, MaxMem=  8589934592 cpu:               0.6 elap:               0.1
 (Enter /home/sabyasachi/g16/l914.exe)
 RHF ground state
 Keep J ints in memory in symmetry-blocked form, NReq=1499364203.
 FoFCou: FMM=F IPFlag=           0 FMFlag=           0 FMFlg1=           0
         NFxFlg=           0 DoJE=F BraDBF=F KetDBF=F FulRan=T
         wScrn=  0.000000 ICntrl=       600 IOpCl=  0 I1Cent=           0 NGrid=           0
         NMat0=    1 NMatS0=   7750 NMatT0=    0 NMatD0=    1 NMtDS0=    0 NMtDT0=    0
 Petite list used in FoFCou.
 MDV=  8589934592 DFT=T DoStab=F Mixed=F DoRPA=T DoScal=T NonHer=F
 Making orbital integer symmetry assigments:
 Orbital symmetries:
       Occupied  (A1) (B2) (A1) (A1) (B2) (A1) (B1) (A1) (B2) (A2)
                 (B2) (A1) (B1)
       Virtual   (A1) (B2) (A1) (B1) (A1) (B1) (A1) (B2) (A2) (A2)
                 (A1) (B2) (B1) (B2) (A1) (B1) (B2) (A1) (A1) (B2)
                 (A2) (A1) (B1) (A1) (B1) (A1) (A2) (B1) (B2) (A2)
                 (B2) (A1) (A1) (B1) (B2) (B2) (A2) (A1) (A1) (B1)
                 (A2) (B1) (A1) (B2) (B2) (A1) (B1) (B2) (A1) (A2)
                 (B2) (A2) (A1) (B2) (A1) (B1) (B2) (A1) (A1) (B1)
                 (B2) (A2) (A1) (B2) (A1) (B1) (A2) (B2) (B1) (B2)
                 (A1) (A1) (A2) (A1) (B1) (B2) (A2) (B1) (A1) (A2)
                 (B1) (B2) (A2) (A1) (B2) (B1) (A1) (B2) (B1) (A2)
                 (A1) (B1) (B2) (A1) (B2) (A2) (A1) (A1) (B2) (B1)
                 (A1) (B2) (A2) (A1) (B2) (B1) (A1) (B2) (A2) (A1)
                 (B1)
  1110 initial guesses have been made.
 Convergence on wavefunction:    0.001000000000000
 Davidson Disk Diagonalization:  ConvIn= 1.00D-03 SkipCon=T Conv= 1.00D-03.
 Max sub-space:  4440 roots to seek:  2220 dimension of matrix:         2220
 *** WARNING: Number of orthogonal guesses is         1110
 Iteration     1 Dimension  1110 NMult     0 NNew   1110
 CISAX will form  1110 AO SS matrices at one time.
 NMat=  1110 NSing=  1110 JSym2X=-1.
 New state      2 was old state      3
 New state      3 was old state      2
 New state     12 was old state     13
 New state     13 was old state     12
 New state     18 was old state     19
 New state     19 was old state     18
 New state     21 was old state     23
 New state     22 was old state     21
 New state     23 was old state     22
 New state     26 was old state     27
 New state     27 was old state     26
 New state     29 was old state     30
 New state     30 was old state     31
 New state     31 was old state     29
 New state     35 was old state     36
 New state     36 was old state     35
 New state     38 was old state     39
 New state     39 was old state     38
 New state     43 was old state     44
 New state     44 was old state     46
 New state     45 was old state     43
 New state     46 was old state     45
 New state     48 was old state     50
 New state     49 was old state     48
 New state     50 was old state     51
 New state     51 was old state     52
 New state     52 was old state     49
 New state     54 was old state     56
 New state     55 was old state     57
 New state     56 was old state     55
 New state     57 was old state     54
 New state     58 was old state     59
 New state     59 was old state     58
 New state     60 was old state     62
 New state     61 was old state     60
 New state     62 was old state     61
 New state     63 was old state     65
 New state     64 was old state     63
 New state     65 was old state     68
 New state     66 was old state     64
 New state     67 was old state     70
 New state     68 was old state     69
 New state     69 was old state     67
 New state     70 was old state     72
 New state     71 was old state     73
 New state     72 was old state     74
 New state     73 was old state     77
 New state     74 was old state     79
 New state     75 was old state     71
 New state     76 was old state     81
 New state     77 was old state     80
 New state     78 was old state     75
 New state     79 was old state     78
 New state     80 was old state     82
 New state     81 was old state     84
 New state     82 was old state     83
 New state     83 was old state     89
 New state     84 was old state     86
 New state     85 was old state     87
 New state     86 was old state     85
 New state     87 was old state     90
 New state     89 was old state     92
 New state     90 was old state     91
 New state     91 was old state     66
 New state     92 was old state     94
 New state     94 was old state     97
 New state     96 was old state     98
 New state     97 was old state     96
 New state     98 was old state     99
 New state     99 was old state     76
 New state    103 was old state    106
 New state    105 was old state    107
 New state    106 was old state    109
 New state    107 was old state    108
 New state    108 was old state    105
 New state    109 was old state    110
 New state    110 was old state    103
 New state    111 was old state    112
 New state    112 was old state    111
 New state    113 was old state    114
 New state    114 was old state    115
 New state    115 was old state    116
 New state    116 was old state    113
 New state    119 was old state    122
 New state    120 was old state    121
 New state    121 was old state    120
 New state    122 was old state    119
 New state    123 was old state    128
 New state    124 was old state    129
 New state    125 was old state    127
 New state    126 was old state    125
 New state    127 was old state    124
 New state    128 was old state    130
 New state    129 was old state    126
 New state    130 was old state    132
 New state    132 was old state    134
 New state    134 was old state    136
 New state    136 was old state    139
 New state    137 was old state    138
 New state    138 was old state    137
 New state    139 was old state    142
 New state    140 was old state    143
 New state    142 was old state    154
 New state    143 was old state    140
 New state    145 was old state    147
 New state    147 was old state    145
 New state    148 was old state    155
 New state    149 was old state    150
 New state    150 was old state    151
 New state    151 was old state    149
 New state    152 was old state    156
 New state    153 was old state    148
 New state    154 was old state    158
 New state    155 was old state    152
 New state    156 was old state    157
 New state    157 was old state    153
 New state    158 was old state    162
 New state    159 was old state    163
 New state    160 was old state    159
 New state    161 was old state    160
 New state    162 was old state    166
 New state    163 was old state    168
 New state    164 was old state    161
 New state    165 was old state    169
 New state    166 was old state    164
 New state    167 was old state    165
 New state    168 was old state    167
 New state    169 was old state    170
 New state    170 was old state    173
 New state    171 was old state    178
 New state    172 was old state    174
 New state    173 was old state    175
 New state    174 was old state    172
 New state    175 was old state    171
 New state    176 was old state    179
 New state    177 was old state    176
 New state    178 was old state    180
 New state    179 was old state    181
 New state    180 was old state    182
 New state    181 was old state    183
 New state    182 was old state    177
 New state    183 was old state    184
 New state    184 was old state    186
 New state    185 was old state    207
 New state    186 was old state    187
 New state    187 was old state    189
 New state    189 was old state    193
 New state    190 was old state    191
 New state    191 was old state    192
 New state    192 was old state    197
 New state    193 was old state    195
 New state    194 was old state    201
 New state    195 was old state    202
 New state    196 was old state    203
 New state    197 was old state    199
 New state    199 was old state    206
 New state    201 was old state    196
 New state    202 was old state    204
 New state    203 was old state    205
 New state    204 was old state    194
 New state    205 was old state    211
 New state    206 was old state    208
 New state    207 was old state    212
 New state    208 was old state    210
 New state    209 was old state    216
 New state    210 was old state    227
 New state    211 was old state    217
 New state    212 was old state    215
 New state    213 was old state    220
 New state    214 was old state    213
 New state    215 was old state    214
 New state    216 was old state    209
 New state    217 was old state    222
 New state    219 was old state    223
 New state    220 was old state    224
 New state    222 was old state    239
 New state    223 was old state    219
 New state    224 was old state    225
 New state    225 was old state    228
 New state    227 was old state    190
 New state    228 was old state    231
 New state    231 was old state    235
 New state    233 was old state    234
 New state    234 was old state    236
 New state    235 was old state    233
 New state    236 was old state    245
 New state    239 was old state    241
 New state    240 was old state    246
 New state    241 was old state    242
 New state    242 was old state    244
 New state    243 was old state    247
 No map to state    244
 New state    245 was old state    243
 New state    246 was old state    252
 New state    247 was old state    251
 New state    248 was old state    270
 New state    251 was old state    253
 New state    252 was old state    254
 New state    253 was old state    257
 New state    254 was old state    256
 New state    255 was old state    248
 New state    256 was old state    261
 New state    257 was old state    255
 New state    258 was old state    262
 New state    259 was old state    269
 New state    260 was old state    263
 New state    261 was old state    266
 New state    262 was old state    265
 New state    263 was old state    267
 New state    264 was old state    259
 New state    265 was old state    260
 New state    266 was old state    268
 New state    267 was old state    273
 New state    268 was old state    264
 New state    269 was old state    275
 New state    270 was old state    258
 New state    271 was old state    272
 New state    272 was old state    276
 New state    273 was old state    280
 New state    274 was old state    285
 New state    275 was old state    271
 New state    276 was old state    277
 New state    277 was old state    278
 New state    278 was old state    282
 New state    279 was old state    284
 New state    280 was old state    283
 New state    281 was old state    287
 New state    282 was old state    290
 New state    283 was old state    281
 New state    284 was old state    288
 New state    285 was old state    286
 New state    286 was old state    289
 New state    287 was old state    291
 New state    288 was old state    299
 New state    289 was old state    293
 New state    290 was old state    292
 New state    291 was old state    295
 New state    292 was old state    294
 New state    293 was old state    310
 New state    294 was old state    303
 New state    295 was old state    302
 New state    297 was old state    298
 New state    298 was old state    297
 New state    299 was old state    304
 New state    301 was old state    308
 New state    302 was old state    306
 New state    303 was old state    301
 No map to state    304
 New state    306 was old state    307
 New state    307 was old state    309
 New state    308 was old state    311
 New state    309 was old state    316
 New state    310 was old state    321
 New state    311 was old state    312
 New state    312 was old state    313
 New state    313 was old state    324
 New state    314 was old state    315
 New state    315 was old state    318
 New state    316 was old state    319
 New state    317 was old state    323
 New state    318 was old state    320
 New state    319 was old state    314
 New state    320 was old state    317
 New state    321 was old state    322
 New state    322 was old state    328
 New state    323 was old state    325
 New state    324 was old state    330
 New state    325 was old state    327
 New state    327 was old state    332
 New state    328 was old state    333
 New state    330 was old state    337
 New state    331 was old state    340
 New state    332 was old state    335
 New state    333 was old state    331
 New state    334 was old state    339
 New state    335 was old state    334
 New state    336 was old state    341
 New state    337 was old state    336
 New state    338 was old state    342
 New state    339 was old state    338
 New state    340 was old state    343
 New state    341 was old state    345
 New state    342 was old state    344
 New state    343 was old state    371
 New state    344 was old state    349
 New state    345 was old state    347
 New state    347 was old state    355
 New state    348 was old state    351
 New state    349 was old state    348
 New state    351 was old state    352
 New state    352 was old state    353
 New state    353 was old state    354
 New state    354 was old state    363
 New state    355 was old state    359
 New state    356 was old state    365
 New state    358 was old state    361
 New state    359 was old state    360
 New state    360 was old state    358
 New state    361 was old state    356
 New state    363 was old state    368
 New state    365 was old state    370
 New state    366 was old state    369
 New state    368 was old state    372
 New state    369 was old state    373
 New state    370 was old state    366
 New state    371 was old state    375
 New state    372 was old state    374
 New state    373 was old state    380
 New state    374 was old state    377
 New state    375 was old state    376
 New state    376 was old state    378
 New state    377 was old state    389
 New state    378 was old state    379
 New state    379 was old state    382
 New state    380 was old state    385
 New state    381 was old state    397
 New state    382 was old state    387
 New state    383 was old state    384
 New state    384 was old state    386
 New state    385 was old state    383
 New state    386 was old state    390
 New state    387 was old state    395
 New state    389 was old state    391
 New state    390 was old state    393
 New state    391 was old state    396
 New state    392 was old state    394
 New state    393 was old state    399
 New state    394 was old state    398
 New state    395 was old state    402
 New state    396 was old state    400
 New state    397 was old state    403
 New state    398 was old state    406
 New state    399 was old state    404
 New state    400 was old state    401
 New state    401 was old state    405
 New state    402 was old state    407
 New state    403 was old state    409
 New state    404 was old state    416
 New state    405 was old state    408
 New state    406 was old state    413
 New state    407 was old state    410
 New state    408 was old state    414
 New state    409 was old state    418
 New state    410 was old state    417
 New state    411 was old state    415
 New state    413 was old state    381
 New state    414 was old state    423
 New state    415 was old state    421
 New state    416 was old state    420
 New state    417 was old state    448
 New state    418 was old state    422
 New state    420 was old state    424
 New state    421 was old state    429
 New state    422 was old state    425
 New state    423 was old state    426
 New state    424 was old state    411
 New state    425 was old state    434
 New state    426 was old state    427
 New state    427 was old state    430
 New state    428 was old state    432
 New state    429 was old state    433
 New state    430 was old state    428
 New state    431 was old state    435
 New state    432 was old state    436
 New state    433 was old state    431
 New state    434 was old state    447
 New state    435 was old state    437
 New state    436 was old state    450
 New state    437 was old state    438
 New state    438 was old state    441
 New state    439 was old state    444
 New state    440 was old state    442
 New state    441 was old state    440
 New state    442 was old state    439
 New state    443 was old state    445
 New state    444 was old state    443
 New state    445 was old state    451
 New state    446 was old state    449
 New state    447 was old state    453
 New state    448 was old state    446
 New state    449 was old state    454
 New state    450 was old state    452
 New state    451 was old state    461
 New state    452 was old state    459
 New state    453 was old state    456
 New state    454 was old state    457
 New state    455 was old state    458
 New state    456 was old state    464
 New state    457 was old state    460
 New state    458 was old state    463
 New state    459 was old state    473
 New state    460 was old state    487
 New state    461 was old state    455
 No map to state    463
 New state    464 was old state    469
 New state    465 was old state    466
 New state    466 was old state    465
 New state    467 was old state    468
 New state    468 was old state    470
 New state    469 was old state    467
 New state    470 was old state    471
 New state    471 was old state    486
 New state    473 was old state    474
 New state    474 was old state    475
 New state    475 was old state    485
 New state    480 was old state    481
 New state    481 was old state    480
 New state    482 was old state    483
 New state    483 was old state    482
 New state    484 was old state    491
 New state    485 was old state    484
 New state    486 was old state    488
 New state    487 was old state    489
 New state    488 was old state    490
 No map to state    489
 New state    490 was old state    497
 New state    491 was old state    496
 New state    492 was old state    495
 New state    494 was old state    492
 New state    495 was old state    498
 New state    496 was old state    494
 New state    497 was old state    499
 New state    498 was old state    500
 New state    499 was old state    509
 New state    500 was old state    501
 New state    501 was old state    503
 New state    502 was old state    505
 New state    503 was old state    504
 New state    504 was old state    502
 New state    505 was old state    508
 New state    508 was old state    512
 New state    509 was old state    513
 New state    511 was old state    540
 New state    512 was old state    514
 New state    513 was old state    516
 New state    514 was old state    515
 New state    515 was old state    517
 New state    516 was old state    521
 New state    517 was old state    511
 New state    519 was old state    520
 New state    520 was old state    522
 New state    521 was old state    519
 New state    522 was old state    525
 New state    523 was old state    527
 New state    524 was old state    532
 New state    525 was old state    524
 New state    526 was old state    528
 New state    527 was old state    523
 New state    528 was old state    530
 New state    530 was old state    526
 New state    531 was old state    533
 New state    532 was old state    534
 New state    533 was old state    535
 New state    534 was old state    539
 New state    535 was old state    536
 New state    536 was old state    537
 New state    537 was old state    538
 New state    538 was old state    544
 New state    539 was old state    531
 New state    540 was old state    542
 New state    542 was old state    543
 New state    543 was old state    564
 New state    544 was old state    545
 New state    545 was old state    554
 New state    546 was old state    547
 New state    547 was old state    546
 New state    550 was old state    551
 New state    551 was old state    552
 New state    552 was old state    553
 New state    553 was old state    555
 New state    554 was old state    559
 New state    555 was old state    558
 New state    556 was old state    550
 New state    558 was old state    556
 New state    559 was old state    565
 New state    560 was old state    561
 New state    561 was old state    562
 New state    562 was old state    560
 New state    563 was old state    567
 New state    564 was old state    568
 New state    565 was old state    566
 New state    566 was old state    563
 New state    567 was old state    570
 New state    568 was old state    569
 New state    569 was old state    576
 New state    570 was old state    574
 New state    573 was old state    575
 New state    574 was old state    573
 New state    575 was old state    577
 New state    576 was old state    578
 New state    577 was old state    579
 New state    578 was old state    581
 New state    579 was old state    584
 New state    581 was old state    583
 New state    582 was old state    586
 New state    583 was old state    587
 New state    584 was old state    582
 New state    585 was old state    588
 New state    586 was old state    589
 New state    587 was old state    585
 New state    588 was old state    590
 New state    589 was old state    591
 New state    590 was old state    599
 New state    591 was old state    595
 New state    594 was old state    597
 New state    595 was old state    594
 New state    597 was old state    598
 New state    598 was old state    600
 New state    599 was old state    601
 New state    600 was old state    610
 New state    601 was old state    604
 New state    602 was old state    603
 New state    603 was old state    607
 New state    604 was old state    608
 New state    605 was old state    609
 New state    606 was old state    602
 New state    607 was old state    611
 New state    608 was old state    612
 New state    609 was old state    615
 New state    610 was old state    605
 New state    611 was old state    613
 New state    612 was old state    614
 New state    613 was old state    620
 New state    614 was old state    616
 New state    615 was old state    618
 New state    616 was old state    623
 New state    618 was old state    619
 New state    619 was old state    622
 New state    620 was old state    627
 New state    621 was old state    624
 New state    622 was old state    635
 New state    623 was old state    621
 New state    624 was old state    625
 New state    625 was old state    626
 New state    626 was old state    636
 New state    627 was old state    638
 New state    628 was old state    630
 New state    630 was old state    628
 New state    631 was old state    632
 New state    632 was old state    631
 New state    634 was old state    637
 New state    635 was old state    634
 New state    636 was old state    641
 New state    637 was old state    639
 New state    638 was old state    640
 New state    639 was old state    642
 New state    640 was old state    643
 New state    641 was old state    654
 New state    642 was old state    645
 New state    643 was old state    652
 New state    644 was old state    647
 New state    645 was old state    648
 New state    646 was old state    649
 New state    647 was old state    650
 New state    648 was old state    644
 New state    649 was old state    646
 New state    650 was old state    651
 New state    651 was old state    653
 New state    652 was old state    655
 New state    653 was old state    657
 New state    654 was old state    656
 New state    655 was old state    658
 New state    656 was old state    659
 New state    657 was old state    660
 New state    658 was old state    662
 New state    659 was old state    661
 New state    660 was old state    671
 New state    661 was old state    667
 New state    662 was old state    663
 New state    663 was old state    664
 New state    664 was old state    665
 New state    665 was old state    668
 New state    666 was old state    672
 New state    667 was old state    669
 New state    668 was old state    670
 New state    669 was old state    666
 New state    670 was old state    676
 New state    671 was old state    673
 New state    672 was old state    675
 New state    673 was old state    674
 New state    674 was old state    685
 New state    675 was old state    677
 New state    676 was old state    683
 New state    677 was old state    679
 New state    679 was old state    681
 New state    681 was old state    682
 New state    682 was old state    688
 New state    683 was old state    684
 New state    684 was old state    687
 New state    685 was old state    689
 No map to state    687
 New state    688 was old state    690
 New state    689 was old state    691
 New state    690 was old state    692
 New state    691 was old state    693
 New state    692 was old state    696
 New state    693 was old state    695
 New state    695 was old state    697
 New state    696 was old state    700
 No map to state    697
 New state    698 was old state    699
 New state    699 was old state    698
 New state    700 was old state    701
 New state    701 was old state    702
 New state    702 was old state    703
 New state    703 was old state    709
 New state    705 was old state    707
 New state    707 was old state    705
 New state    709 was old state    710
 New state    710 was old state    716
 New state    713 was old state    714
 New state    714 was old state    713
 New state    715 was old state    718
 New state    716 was old state    717
 New state    717 was old state    715
 New state    718 was old state    719
 New state    719 was old state    724
 New state    720 was old state    721
 New state    721 was old state    722
 New state    722 was old state    723
 New state    723 was old state    720
 New state    724 was old state    725
 New state    725 was old state    732
 New state    728 was old state    729
 New state    729 was old state    730
 New state    730 was old state    728
 New state    731 was old state    737
 New state    732 was old state    733
 New state    733 was old state    734
 New state    734 was old state    731
 New state    735 was old state    736
 New state    736 was old state    735
 New state    737 was old state    739
 New state    738 was old state    740
 New state    739 was old state    738
 New state    740 was old state    752
 New state    743 was old state    744
 New state    744 was old state    747
 New state    746 was old state    743
 New state    747 was old state    748
 New state    748 was old state    746
 New state    750 was old state    751
 New state    751 was old state    750
 New state    752 was old state    754
 New state    753 was old state    755
 New state    754 was old state    756
 New state    755 was old state    758
 New state    756 was old state    753
 No map to state    758
 New state    760 was old state    761
 New state    761 was old state    763
 New state    763 was old state    760
 New state    768 was old state    769
 New state    769 was old state    768
 New state    771 was old state    772
 New state    772 was old state    771
 New state    773 was old state    774
 New state    774 was old state    775
 New state    775 was old state    779
 New state    776 was old state    777
 New state    777 was old state    773
 New state    779 was old state    780
 New state    780 was old state    776
 New state    781 was old state    782
 New state    782 was old state    781
 New state    786 was old state    787
 New state    787 was old state    786
 New state    789 was old state    790
 New state    790 was old state    789
 New state    792 was old state    793
 New state    793 was old state    794
 New state    794 was old state    792
 New state    797 was old state    799
 New state    798 was old state    797
 New state    799 was old state    798
 New state    800 was old state    803
 New state    801 was old state    800
 New state    802 was old state    801
 New state    803 was old state    802
 New state    806 was old state    807
 New state    807 was old state    808
 New state    808 was old state    806
 New state    810 was old state    811
 New state    811 was old state    813
 New state    813 was old state    815
 New state    815 was old state    810
 New state    816 was old state    817
 New state    817 was old state    819
 New state    819 was old state    822
 New state    820 was old state    821
 New state    821 was old state    820
 New state    822 was old state    824
 New state    823 was old state    825
 New state    824 was old state    816
 New state    825 was old state    823
 New state    827 was old state    829
 New state    829 was old state    827
 New state    830 was old state    832
 New state    831 was old state    830
 New state    832 was old state    831
 New state    833 was old state    835
 New state    834 was old state    837
 New state    835 was old state    834
 New state    837 was old state    838
 New state    838 was old state    840
 New state    839 was old state    842
 New state    840 was old state    841
 New state    841 was old state    844
 New state    842 was old state    839
 New state    843 was old state    846
 New state    844 was old state    833
 New state    846 was old state    843
 New state    847 was old state    848
 New state    848 was old state    847
 New state    851 was old state    852
 New state    852 was old state    851
 New state    855 was old state    857
 New state    856 was old state    858
 New state    857 was old state    855
 New state    858 was old state    856
 New state    861 was old state    862
 New state    862 was old state    863
 New state    863 was old state    864
 New state    864 was old state    861
 New state    869 was old state    870
 New state    870 was old state    871
 New state    871 was old state    869
 New state    872 was old state    873
 New state    873 was old state    872
 New state    874 was old state    875
 New state    875 was old state    876
 New state    876 was old state    874
 New state    884 was old state    885
 New state    885 was old state    887
 New state    886 was old state    884
 New state    887 was old state    886
 New state    890 was old state    891
 New state    891 was old state    892
 New state    892 was old state    893
 New state    893 was old state    890
 New state    895 was old state    896
 New state    896 was old state    895
 New state    898 was old state    899
 New state    899 was old state    898
 New state    901 was old state    904
 New state    902 was old state    901
 New state    904 was old state    902
 New state    905 was old state    907
 New state    907 was old state    905
 New state    916 was old state    918
 New state    917 was old state    916
 New state    918 was old state    917
 New state    919 was old state    920
 New state    920 was old state    919
 New state    921 was old state    922
 New state    922 was old state    921
 New state    925 was old state    926
 New state    926 was old state    925
 New state    928 was old state    929
 New state    929 was old state    928
 New state    931 was old state    932
 New state    932 was old state    931
 New state    936 was old state    937
 New state    937 was old state    936
 New state    941 was old state    943
 New state    942 was old state    941
 New state    943 was old state    942
 New state    946 was old state    947
 New state    947 was old state    946
 New state    952 was old state    953
 New state    953 was old state    952
 New state    954 was old state    955
 New state    955 was old state    954
 New state    959 was old state    961
 New state    960 was old state    959
 New state    961 was old state    960
 New state    967 was old state    968
 New state    968 was old state    969
 New state    969 was old state    967
 New state    970 was old state    971
 New state    971 was old state    970
 New state    976 was old state    977
 New state    977 was old state    978
 New state    978 was old state    976
 New state    985 was old state    987
 New state    986 was old state    985
 New state    987 was old state    986
 New state    988 was old state    989
 New state    989 was old state    988
 New state    995 was old state    996
 New state    996 was old state    997
 New state    997 was old state    995
 New state   1020 was old state   1021
 New state   1021 was old state   1020
 New state   1022 was old state   1023
 New state   1023 was old state   1022
 New state   1029 was old state   1030
 New state   1030 was old state   1029
 New state   1035 was old state   1036
 New state   1036 was old state   1035
 New state   1039 was old state   1040
 New state   1040 was old state   1039
 New state   1051 was old state   1052
 New state   1052 was old state   1051
 New state   1065 was old state   1066
 New state   1066 was old state   1068
 New state   1067 was old state   1065
 New state   1068 was old state   1067
 New state   1069 was old state   1070
 New state   1070 was old state   1069
 New state   1074 was old state   1076
 New state   1075 was old state   1074
 New state   1076 was old state   1077
 New state   1077 was old state   1075
 New state   1090 was old state   1091
 New state   1091 was old state   1090
 Excitation Energies [eV] at current iteration:
 Root      1 :     7.872295539268607
 Root      2 :     8.226004989090644
 Root      3 :     8.228142904888683
 Root      4 :     8.647814330127501
 Root      5 :     8.895821088009361
 Root      6 :     8.970230018286609
 Root      7 :     9.085085004967436
 Root      8 :     9.171614352066641
 Root      9 :     9.206220741702500
 Root     10 :     9.245871664112851
 Root     11 :     9.549468390038539
 Root     12 :     9.705728654429223
 Root     13 :     9.712731582560719
 Root     14 :     9.799723222605339
 Root     15 :     9.823857775063599
 Root     16 :    10.076186688984980
 Root     17 :    10.189514876135850
 Root     18 :    10.211178235590350
 Root     19 :    10.275062738540250
 Root     20 :    10.477635693287470
 Root     21 :    10.608775634171990
 Root     22 :    10.612950276993360
 Root     23 :    10.645473074862160
 Root     24 :    10.657212946741210
 Root     25 :    10.679302771353390
 Root     26 :    10.720836509422250
 Root     27 :    10.780571950100760
 Root     28 :    10.799819602556680
 Root     29 :    10.940723942418010
 Root     30 :    10.988987529407360
 Root     31 :    11.047162376558180
 Root     32 :    11.092408980618410
 Root     33 :    11.206973319601820
 Root     34 :    11.212078404072500
 Root     35 :    11.234862476624460
 Root     36 :    11.312050842954850
 Root     37 :    11.381744152514560
 Root     38 :    11.389911429970130
 Root     39 :    11.477505500669120
 Root     40 :    11.605598629804740
 Root     41 :    11.623481313942680
 Root     42 :    11.716183042714180
 Root     43 :    11.730749480105840
 Root     44 :    11.741261750055430
 Root     45 :    11.756404852956120
 Root     46 :    11.853651413216790
 Root     47 :    11.864487757815190
 Root     48 :    11.969202830955950
 Root     49 :    11.990628280372700
 Root     50 :    12.016479323469100
 Root     51 :    12.042125983852220
 Root     52 :    12.086580560330000
 Root     53 :    12.205776702854750
 Root     54 :    12.214700930537620
 Root     55 :    12.225785042806730
 Root     56 :    12.255219311921010
 Root     57 :    12.299694559315450
 Root     58 :    12.456019973320800
 Root     59 :    12.512138770401980
 Root     60 :    12.551110160736560
 Root     61 :    12.593320286102170
 Root     62 :    12.613783076611480
 Root     63 :    12.696605535587100
 Root     64 :    12.768453600648870
 Root     65 :    12.790713910281690
 Root     66 :    12.857449985531320
 Root     67 :    12.902331615502830
 Root     68 :    12.905268346893760
 Root     69 :    12.946229762471370
 Root     70 :    12.947071092294390
 Root     71 :    12.991526091306430
 Root     72 :    13.094172311972840
 Root     73 :    13.187686692060920
 Root     74 :    13.214408585170990
 Root     75 :    13.231206423245300
 Root     76 :    13.241345952602160
 Root     77 :    13.249723715720660
 Root     78 :    13.258051001264830
 Root     79 :    13.304561576449770
 Root     80 :    13.461663577065640
 Root     81 :    13.554142135085610
 Root     82 :    13.650499212899100
 Root     83 :    13.669773822928200
 Root     84 :    13.769537637562370
 Root     85 :    13.783679994833520
 Root     86 :    13.883988070418310
 Root     87 :    13.895448687770240
 Root     88 :    13.916585207731230
 Root     89 :    13.995690643160960
 Root     90 :    14.009796523932780
 Root     91 :    14.016843484909730
 Root     92 :    14.139277686025310
 Root     93 :    14.172225100608300
 Root     94 :    14.213307931275240
 Root     95 :    14.260174480318440
 Root     96 :    14.284566621917810
 Root     97 :    14.352135317193130
 Root     98 :    14.378973483071300
 Root     99 :    14.384155846705680
 Root    100 :    14.421877609256110
 Root    101 :    14.485949804086840
 Root    102 :    14.518952053848390
 Root    103 :    14.630757835837220
 Root    104 :    14.650178098006700
 Root    105 :    14.820042177063640
 Root    106 :    14.841409149092750
 Root    107 :    14.926305990771180
 Root    108 :    14.989458182611050
 Root    109 :    15.024219700084280
 Root    110 :    15.062596550853950
 Root    111 :    15.180465380702850
 Root    112 :    15.210599057645040
 Root    113 :    15.264751043098220
 Root    114 :    15.318674672315330
 Root    115 :    15.387214009680450
 Root    116 :    15.393775724571320
 Root    117 :    15.487607658104080
 Root    118 :    15.504964150508190
 Root    119 :    15.604261189922810
 Root    120 :    15.614466624667060
 Root    121 :    15.623356789727230
 Root    122 :    15.629136103234710
 Root    123 :    15.760361728710470
 Root    124 :    15.791975695972170
 Root    125 :    15.797893646552520
 Root    126 :    15.810561570779470
 Root    127 :    15.812023214234090
 Root    128 :    15.837781854044260
 Root    129 :    15.864167388671680
 Root    130 :    15.886964148394200
 Root    131 :    15.919778160502720
 Root    132 :    15.981608022455270
 Root    133 :    15.998074976317780
 Root    134 :    16.039797639652310
 Root    135 :    16.172410105592730
 Root    136 :    16.199247748518510
 Root    137 :    16.208652891413310
 Root    138 :    16.223045760041790
 Root    139 :    16.336548915530950
 Root    140 :    16.343468194872650
 Root    141 :    16.366881087333840
 Root    142 :    16.488979245380130
 Root    143 :    16.616234790381920
 Root    144 :    16.672762872218560
 Root    145 :    16.780200946367530
 Root    146 :    16.788465961816160
 Root    147 :    16.794235976815060
 Root    148 :    16.833061132574480
 Root    149 :    16.842869921723080
 Root    150 :    16.853741753669070
 Root    151 :    16.857606802824550
 Root    152 :    16.956579027611730
 Root    153 :    16.962312024014060
 Root    154 :    16.963625207250330
 Root    155 :    16.980315728971670
 Root    156 :    17.052666187664350
 Root    157 :    17.069666214420040
 Root    158 :    17.076135918921230
 Root    159 :    17.094168270371270
 Root    160 :    17.104226100194770
 Root    161 :    17.120065598910090
 Root    162 :    17.164643775543680
 Root    163 :    17.178903907180790
 Root    164 :    17.195708872422650
 Root    165 :    17.208762690071190
 Root    166 :    17.245757253924890
 Root    167 :    17.272051622588220
 Root    168 :    17.316325491489320
 Root    169 :    17.374357431093130
 Root    170 :    17.383676163404580
 Root    171 :    17.418739278807720
 Root    172 :    17.425150948829130
 Root    173 :    17.446412577833460
 Root    174 :    17.495305708228660
 Root    175 :    17.555279852789130
 Root    176 :    17.588741842522340
 Root    177 :    17.608469393479380
 Root    178 :    17.624814547702660
 Root    179 :    17.681315133348960
 Root    180 :    17.763160998186300
 Root    181 :    17.781984551595500
 Root    182 :    17.787372591405030
 Root    183 :    17.843988850873710
 Root    184 :    17.873594002069420
 Root    185 :    17.905248735030880
 Root    186 :    17.947710623066810
 Root    187 :    18.035897284796440
 Root    188 :    18.071649633024620
 Root    189 :    18.079097983885610
 Root    190 :    18.142989646170770
 Root    191 :    18.190236797272490
 Root    192 :    18.196369562611770
 Root    193 :    18.221480641805350
 Root    194 :    18.286627192808570
 Root    195 :    18.295036693328110
 Root    196 :    18.303398415254070
 Root    197 :    18.328430086039980
 Root    198 :    18.357750710837980
 Root    199 :    18.368309845186910
 Root    200 :    18.385754373975410
 Root    201 :    18.391358093836610
 Root    202 :    18.397091977973150
 Root    203 :    18.449175384245110
 Root    204 :    18.479985730103790
 Root    205 :    18.482342353259650
 Root    206 :    18.517329321740280
 Root    207 :    18.561086071290030
 Root    208 :    18.627860855610690
 Root    209 :    18.669600867473290
 Root    210 :    18.687585355001550
 Root    211 :    18.709908241158390
 Root    212 :    18.711572895042800
 Root    213 :    18.735371700409310
 Root    214 :    18.755681865560890
 Root    215 :    18.769685700184090
 Root    216 :    18.773705401457170
 Root    217 :    18.782191340724470
 Root    218 :    18.849273049575030
 Root    219 :    18.875743075856880
 Root    220 :    18.876009710331130
 Root    221 :    18.908039390167540
 Root    222 :    18.920798337651700
 Root    223 :    19.016116372980740
 Root    224 :    19.063777437256410
 Root    225 :    19.066975236257410
 Root    226 :    19.110796968754720
 Root    227 :    19.132985802457140
 Root    228 :    19.137917452961440
 Root    229 :    19.184623625925930
 Root    230 :    19.231060855894680
 Root    231 :    19.325926391071470
 Root    232 :    19.327760745205040
 Root    233 :    19.334516022111820
 Root    234 :    19.378910006390000
 Root    235 :    19.436340218857620
 Root    236 :    19.456741601095500
 Root    237 :    19.477713439950290
 Root    238 :    19.517268414693750
 Root    239 :    19.531857668873570
 Root    240 :    19.584730068551610
 Root    241 :    19.678429905976800
 Root    242 :    19.678526796879390
 Root    243 :    19.705380015191410
 Root    244 :    19.732706203647300
 Root    245 :    19.768360896846470
 Root    246 :    19.780211997291150
 Root    247 :    19.790068075784670
 Root    248 :    19.806328218371660
 Root    249 :    19.831433073327300
 Root    250 :    19.919740713170760
 Root    251 :    19.927648270262160
 Root    252 :    19.956581575597090
 Root    253 :    19.965583162452490
 Root    254 :    20.036615364378790
 Root    255 :    20.056739801065280
 Root    256 :    20.059825072424770
 Root    257 :    20.185150614707990
 Root    258 :    20.204207138902880
 Root    259 :    20.238316026823080
 Root    260 :    20.252410362249810
 Root    261 :    20.255896887158590
 Root    262 :    20.265487971359770
 Root    263 :    20.302199162564850
 Root    264 :    20.303740035997560
 Root    265 :    20.340063594015150
 Root    266 :    20.353925207314560
 Root    267 :    20.382742229375450
 Root    268 :    20.431258192856210
 Root    269 :    20.460714672833800
 Root    270 :    20.474028624026240
 Root    271 :    20.487196691463430
 Root    272 :    20.513639099518060
 Root    273 :    20.532353821760360
 Root    274 :    20.587790952778190
 Root    275 :    20.617238789663290
 Root    276 :    20.620840407101530
 Root    277 :    20.728196090164390
 Root    278 :    20.732163202167960
 Root    279 :    20.753983873980060
 Root    280 :    20.760728880212030
 Root    281 :    20.765655213965250
 Root    282 :    20.823108824432200
 Root    283 :    20.831740433071000
 Root    284 :    20.848761652473770
 Root    285 :    20.896833634174080
 Root    286 :    20.912950463393120
 Root    287 :    20.972238661099780
 Root    288 :    20.984818590976510
 Root    289 :    20.991982832379740
 Root    290 :    20.997775247265950
 Root    291 :    21.050837770682160
 Root    292 :    21.077880331904350
 Root    293 :    21.097656662094880
 Root    294 :    21.148940552607430
 Root    295 :    21.156459068140680
 Root    296 :    21.172222573117740
 Root    297 :    21.247090384614780
 Root    298 :    21.278607074939740
 Root    299 :    21.300113185844360
 Root    300 :    21.316559168033840
 Root    301 :    21.318094878499150
 Root    302 :    21.328574656166980
 Root    303 :    21.341384468454210
 Root    304 :    21.402759258662510
 Root    305 :    21.406822142415110
 Root    306 :    21.408671596820070
 Root    307 :    21.500172088894170
 Root    308 :    21.519741075042510
 Root    309 :    21.520765099718860
 Root    310 :    21.630183166624800
 Root    311 :    21.712214387591950
 Root    312 :    21.716964099230340
 Root    313 :    21.721441913805460
 Root    314 :    21.759888442732100
 Root    315 :    21.809744047454550
 Root    316 :    21.815042243758410
 Root    317 :    21.839298086984400
 Root    318 :    21.842995671860170
 Root    319 :    21.871827131181580
 Root    320 :    21.889301609349770
 Root    321 :    21.894446876193520
 Root    322 :    21.935870533507660
 Root    323 :    21.957789823651990
 Root    324 :    21.982984887372070
 Root    325 :    22.041217236418000
 Root    326 :    22.075219580561990
 Root    327 :    22.136345798485200
 Root    328 :    22.178920182838970
 Root    329 :    22.238041527156660
 Root    330 :    22.248965074229370
 Root    331 :    22.280366798643120
 Root    332 :    22.350544446931710
 Root    333 :    22.359948505003790
 Root    334 :    22.366025192561780
 Root    335 :    22.399671165856240
 Root    336 :    22.411974551470870
 Root    337 :    22.427647515536680
 Root    338 :    22.468243177468250
 Root    339 :    22.530883108988220
 Root    340 :    22.572867758697870
 Root    341 :    22.607578144333340
 Root    342 :    22.630953656293500
 Root    343 :    22.710609517525570
 Root    344 :    22.724366781424720
 Root    345 :    22.731354721606400
 Root    346 :    22.740158882458360
 Root    347 :    22.747422426541650
 Root    348 :    22.780314998888160
 Root    349 :    22.829211390717270
 Root    350 :    22.832401882100540
 Root    351 :    22.869201859429380
 Root    352 :    22.893496114464800
 Root    353 :    22.895968043825870
 Root    354 :    22.938686852211930
 Root    355 :    23.060270807187070
 Root    356 :    23.069698523001550
 Root    357 :    23.080759770223910
 Root    358 :    23.123482918924100
 Root    359 :    23.179809637015320
 Root    360 :    23.186204765439860
 Root    361 :    23.224008416267760
 Root    362 :    23.239904872472450
 Root    363 :    23.269621967869810
 Root    364 :    23.276208729320570
 Root    365 :    23.294060955211340
 Root    366 :    23.314669778257520
 Root    367 :    23.326190686459660
 Root    368 :    23.327703553830190
 Root    369 :    23.369856339392620
 Root    370 :    23.422993373162970
 Root    371 :    23.443453927322520
 Root    372 :    23.462557790719220
 Root    373 :    23.483817943395280
 Root    374 :    23.569489193331390
 Root    375 :    23.574455787289920
 Root    376 :    23.578087949086890
 Root    377 :    23.627500270493680
 Root    378 :    23.646648726625330
 Root    379 :    23.693591736585300
 Root    380 :    23.820087944650200
 Root    381 :    23.844395227503660
 Root    382 :    23.846296065992790
 Root    383 :    23.856065693548450
 Root    384 :    23.869325822610670
 Root    385 :    23.930178884231200
 Root    386 :    23.951235339550260
 Root    387 :    23.971677333479270
 Root    388 :    23.978909655839100
 Root    389 :    23.981576994962600
 Root    390 :    24.063253293861100
 Root    391 :    24.101884202616300
 Root    392 :    24.152686136072160
 Root    393 :    24.159252061431170
 Root    394 :    24.219510667905610
 Root    395 :    24.265383574143540
 Root    396 :    24.291423629096830
 Root    397 :    24.309800222255070
 Root    398 :    24.320938514089010
 Root    399 :    24.370559395121620
 Root    400 :    24.384635860770770
 Root    401 :    24.400897554628290
 Root    402 :    24.454555597371240
 Root    403 :    24.524209537125730
 Root    404 :    24.545695004206670
 Root    405 :    24.638600036089960
 Root    406 :    24.672959978465230
 Root    407 :    24.674413007088780
 Root    408 :    24.790815113511910
 Root    409 :    24.823374261087310
 Root    410 :    24.834983319029180
 Root    411 :    24.836622895635410
 Root    412 :    24.856044861515200
 Root    413 :    24.875010005690140
 Root    414 :    25.026931660713350
 Root    415 :    25.046210453236000
 Root    416 :    25.193619123997700
 Root    417 :    25.235095435646190
 Root    418 :    25.248478816770850
 Root    419 :    25.256988391174350
 Root    420 :    25.286148922424030
 Root    421 :    25.342999884697840
 Root    422 :    25.367602912465720
 Root    423 :    25.398539749629260
 Root    424 :    25.431478998353930
 Root    425 :    25.483363801610360
 Root    426 :    25.501062818961670
 Root    427 :    25.582750405657410
 Root    428 :    25.627573278682240
 Root    429 :    25.631522346759830
 Root    430 :    25.721312535802630
 Root    431 :    25.763765734466290
 Root    432 :    25.802692389595030
 Root    433 :    25.820240508216870
 Root    434 :    25.821200883521580
 Root    435 :    25.922173407246210
 Root    436 :    26.008745958174040
 Root    437 :    26.113340470212720
 Root    438 :    26.299602747532380
 Root    439 :    26.318873103978640
 Root    440 :    26.331416979103920
 Root    441 :    26.356471136832410
 Root    442 :    26.422724932100290
 Root    443 :    26.456023244844760
 Root    444 :    26.498806982865540
 Root    445 :    26.538957590634820
 Root    446 :    26.764081816145800
 Root    447 :    26.774135636983420
 Root    448 :    26.796248076663160
 Root    449 :    26.866318081221010
 Root    450 :    26.886502547233830
 Root    451 :    26.918536926173100
 Root    452 :    26.930885558478890
 Root    453 :    27.021686728983790
 Root    454 :    27.051302851602670
 Root    455 :    27.168168569212220
 Root    456 :    27.190731029545890
 Root    457 :    27.208689434403990
 Root    458 :    27.249708922904360
 Root    459 :    27.283822690338910
 Root    460 :    27.317089025707510
 Root    461 :    27.426207067833950
 Root    462 :    27.524480644177250
 Root    463 :    27.532094726554330
 Root    464 :    27.677442847818810
 Root    465 :    27.917080969993970
 Root    466 :    28.009404110436220
 Root    467 :    28.174713172012590
 Root    468 :    28.199191938687370
 Root    469 :    28.261898848587500
 Root    470 :    28.320687440887170
 Root    471 :    28.358177448525870
 Root    472 :    28.457932888411470
 Root    473 :    28.498873398065040
 Root    474 :    28.645350401986760
 Root    475 :    28.752295425668180
 Root    476 :    28.774201690478850
 Root    477 :    28.804373743217990
 Root    478 :    28.924154684801060
 Root    479 :    29.050106447586090
 Root    480 :    29.110238282252710
 Root    481 :    29.242079871996970
 Root    482 :    29.261555224950130
 Root    483 :    29.268244105676150
 Root    484 :    29.305810156534070
 Root    485 :    29.368456217687400
 Root    486 :    29.416456774679110
 Root    487 :    29.512304408363960
 Root    488 :    29.542424457766990
 Root    489 :    29.586778170909240
 Root    490 :    29.725022746461160
 Root    491 :    29.802034218177660
 Root    492 :    29.811606779623130
 Root    493 :    29.833098255646340
 Root    494 :    29.847413184967190
 Root    495 :    29.888527896688000
 Root    496 :    29.931043035642960
 Root    497 :    30.031134533848450
 Root    498 :    30.037080548729730
 Root    499 :    30.479992126229860
 Root    500 :    30.492534307610990
 Root    501 :    30.531788882745640
 Root    502 :    30.701606552672130
 Root    503 :    30.791199999356080
 Root    504 :    30.826417773466380
 Root    505 :    30.899535427342400
 Root    506 :    30.923775858480460
 Root    507 :    30.958904606861920
 Root    508 :    31.202793864789630
 Root    509 :    31.234848451576300
 Root    510 :    31.268472121187490
 Root    511 :    31.306075946959560
 Root    512 :    31.357128635055290
 Root    513 :    31.475835534082960
 Root    514 :    31.495353297681850
 Root    515 :    31.548713484359660
 Root    516 :    31.608162782852160
 Root    517 :    31.634596910605070
 Root    518 :    31.667157524550260
 Root    519 :    31.722069557623330
 Root    520 :    31.856921255289460
 Root    521 :    31.899612645677990
 Root    522 :    32.009163831709060
 Root    523 :    32.069369215803630
 Root    524 :    32.076538098091280
 Root    525 :    32.155506779069250
 Root    526 :    32.182244144695640
 Root    527 :    32.196528578344190
 Root    528 :    32.298607228055740
 Root    529 :    32.319388904259030
 Root    530 :    32.404110314617250
 Root    531 :    32.435112738890340
 Root    532 :    32.547788800363370
 Root    533 :    32.550326558250190
 Root    534 :    32.550483431626430
 Root    535 :    32.667916658618000
 Root    536 :    32.711058393975260
 Root    537 :    32.924140067866610
 Root    538 :    33.031509931377320
 Root    539 :    33.082531835548340
 Root    540 :    33.205690183699500
 Root    541 :    33.293844940572590
 Root    542 :    33.398043727114370
 Root    543 :    33.435284628371490
 Root    544 :    33.492181840561790
 Root    545 :    33.593028961839700
 Root    546 :    33.759865718008730
 Root    547 :    33.772619247017400
 Root    548 :    33.800016352337510
 Root    549 :    33.855199016797880
 Root    550 :    33.974291319977700
 Root    551 :    34.025479870982710
 Root    552 :    34.138988897730930
 Root    553 :    34.211638315468940
 Root    554 :    34.259888789476440
 Root    555 :    34.295029463995110
 Root    556 :    34.305834522946480
 Root    557 :    34.372213570348470
 Root    558 :    34.372741031919520
[...]
     16   0.000000D+00  0.000000D+00  0.000000D+00  0.000000D+00  0.000000D+00
              1041          1042          1043          1044          1045 
      1  -0.115760D+03 -0.115758D+03 -0.115742D+03 -0.115734D+03 -0.115734D+03
      2   0.000000D+00 -0.647197D-01  0.000000D+00  0.000000D+00 -0.729185D-01
      3   0.000000D+00  0.000000D+00  0.000000D+00 -0.386322D-02  0.000000D+00
      4   0.373770D-01  0.000000D+00  0.538933D-01  0.000000D+00  0.000000D+00
      5   0.000000D+00  0.167175D+00  0.000000D+00  0.000000D+00  0.192250D+00
      6   0.000000D+00  0.000000D+00  0.000000D+00  0.198437D-01  0.000000D+00
      7  -0.117282D+00  0.000000D+00 -0.166081D+00  0.000000D+00  0.000000D+00
      8   0.000000D+00  0.000000D+00  0.000000D+00 -0.738981D+00  0.000000D+00
      9   0.000000D+00 -0.285597D-01  0.000000D+00  0.000000D+00  0.249935D+00
     10   0.000000D+00  0.000000D+00  0.000000D+00  0.000000D+00  0.000000D+00
     11  -0.264852D-01  0.000000D+00  0.432158D-01  0.000000D+00  0.000000D+00
     12   0.523945D+00  0.000000D+00  0.144410D+01  0.000000D+00  0.000000D+00
     13   0.417794D-01  0.000000D+00 -0.625207D+00  0.000000D+00  0.000000D+00
     14   0.000000D+00  0.000000D+00  0.000000D+00  0.000000D+00  0.000000D+00
     15   0.000000D+00  0.634736D-01  0.000000D+00  0.000000D+00  0.901959D-01
     16   0.000000D+00  0.000000D+00  0.000000D+00 -0.655315D+00  0.000000D+00
              1046          1047          1048          1049          1050 
      1  -0.115719D+03 -0.115718D+03 -0.115718D+03 -0.115718D+03 -0.115708D+03
      2   0.000000D+00  0.000000D+00  0.000000D+00  0.000000D+00  0.000000D+00
      3   0.000000D+00  0.000000D+00  0.841317D-02  0.000000D+00  0.629913D-01
      4   0.872335D-02  0.886787D-02  0.000000D+00  0.000000D+00  0.000000D+00
      5   0.000000D+00  0.000000D+00  0.000000D+00  0.000000D+00  0.000000D+00
      6   0.000000D+00  0.000000D+00 -0.195705D-01  0.000000D+00 -0.190864D+00
      7  -0.211166D-01 -0.419554D-01  0.000000D+00  0.000000D+00  0.000000D+00
      8   0.000000D+00  0.000000D+00 -0.429188D+00  0.000000D+00  0.733501D+00
      9   0.000000D+00  0.000000D+00  0.000000D+00  0.000000D+00  0.000000D+00
     10   0.000000D+00  0.000000D+00  0.000000D+00  0.684490D+00  0.000000D+00
     11   0.197106D-01  0.557682D-01  0.000000D+00  0.000000D+00  0.000000D+00
     12  -0.619049D-01  0.690727D+00  0.000000D+00  0.000000D+00  0.000000D+00
     13  -0.797833D-01  0.487530D+00  0.000000D+00  0.000000D+00  0.000000D+00
     14   0.000000D+00  0.000000D+00  0.000000D+00 -0.702221D+00  0.000000D+00
     15   0.000000D+00  0.000000D+00  0.000000D+00  0.000000D+00  0.000000D+00
     16   0.000000D+00  0.000000D+00  0.787866D-01  0.000000D+00  0.386367D+00
              1051          1052          1053          1054          1055 
      1  -0.115694D+03 -0.115692D+03 -0.115690D+03 -0.115681D+03 -0.115681D+03
      2   0.000000D+00  0.000000D+00  0.000000D+00  0.785580D-01  0.000000D+00
      3   0.000000D+00  0.942610D-02  0.000000D+00  0.000000D+00  0.000000D+00
      4   0.000000D+00  0.000000D+00  0.000000D+00  0.000000D+00  0.000000D+00
      5   0.000000D+00  0.000000D+00  0.000000D+00 -0.202481D+00  0.000000D+00
      6   0.000000D+00 -0.413558D-01  0.000000D+00  0.000000D+00  0.000000D+00
      7   0.000000D+00  0.000000D+00  0.000000D+00  0.000000D+00  0.000000D+00
      8   0.000000D+00 -0.605176D-02  0.000000D+00  0.000000D+00  0.000000D+00
      9   0.000000D+00  0.000000D+00  0.000000D+00 -0.111588D+00  0.000000D+00
     10  -0.414061D+00  0.000000D+00  0.284229D+00  0.000000D+00  0.640702D-01
     11   0.000000D+00  0.000000D+00  0.000000D+00  0.000000D+00  0.000000D+00
     12   0.000000D+00  0.000000D+00  0.000000D+00  0.000000D+00  0.000000D+00
     13   0.000000D+00  0.000000D+00  0.000000D+00  0.000000D+00  0.000000D+00
     14   0.640703D+00  0.000000D+00 -0.118905D+00  0.000000D+00 -0.270477D+00
     15   0.000000D+00  0.000000D+00  0.000000D+00 -0.850904D-01  0.000000D+00
     16   0.000000D+00 -0.790182D-02  0.000000D+00  0.000000D+00  0.000000D+00
              1056          1057          1058          1059          1060 
      1  -0.115679D+03 -0.115674D+03 -0.115671D+03 -0.115663D+03 -0.115660D+03
      2   0.000000D+00  0.000000D+00  0.000000D+00  0.000000D+00  0.000000D+00
      3  -0.677213D-01  0.000000D+00  0.344484D-01  0.000000D+00  0.000000D+00
      4   0.000000D+00  0.113272D+00  0.000000D+00  0.000000D+00  0.126410D+00
      5   0.000000D+00  0.000000D+00  0.000000D+00  0.000000D+00  0.000000D+00
      6   0.200873D+00  0.000000D+00 -0.970008D-01  0.000000D+00  0.000000D+00
      7   0.000000D+00 -0.320961D+00  0.000000D+00  0.000000D+00 -0.338824D+00
      8  -0.228184D+00  0.000000D+00  0.147318D+00  0.000000D+00  0.000000D+00
      9   0.000000D+00  0.000000D+00  0.000000D+00  0.000000D+00  0.000000D+00
     10   0.000000D+00  0.000000D+00  0.000000D+00 -0.104057D+00  0.000000D+00
     11   0.000000D+00 -0.190649D+00  0.000000D+00  0.000000D+00  0.249074D-01
     12   0.000000D+00 -0.126317D+01  0.000000D+00  0.000000D+00  0.389514D-01
     13   0.000000D+00  0.203475D+00  0.000000D+00  0.000000D+00 -0.361278D-01
     14   0.000000D+00  0.000000D+00  0.000000D+00 -0.555361D-01  0.000000D+00
     15   0.000000D+00  0.000000D+00  0.000000D+00  0.000000D+00  0.000000D+00
     16  -0.316453D+00  0.000000D+00  0.295632D+00  0.000000D+00  0.000000D+00
              1061          1062          1063          1064          1065 
      1  -0.115658D+03 -0.115640D+03 -0.115630D+03 -0.115625D+03 -0.115621D+03
      2   0.000000D+00 -0.910438D-01  0.000000D+00  0.000000D+00  0.000000D+00
      3   0.152386D+00  0.000000D+00 -0.488589D-02  0.000000D+00  0.000000D+00
      4   0.000000D+00  0.000000D+00  0.000000D+00  0.378280D-01  0.000000D+00
      5   0.000000D+00  0.254066D+00  0.000000D+00  0.000000D+00  0.000000D+00
      6  -0.449956D+00  0.000000D+00  0.246716D-01  0.000000D+00  0.000000D+00
      7   0.000000D+00  0.000000D+00  0.000000D+00 -0.110451D+00  0.000000D+00
      8   0.420360D+00  0.000000D+00  0.486631D+00  0.000000D+00  0.000000D+00
      9   0.000000D+00 -0.125122D+00  0.000000D+00  0.000000D+00  0.000000D+00
     10   0.000000D+00  0.000000D+00  0.000000D+00  0.000000D+00 -0.779481D+00
     11   0.000000D+00  0.000000D+00  0.000000D+00 -0.142503D+00  0.000000D+00
     12   0.000000D+00  0.000000D+00  0.000000D+00 -0.204794D+00  0.000000D+00
     13   0.000000D+00  0.000000D+00  0.000000D+00  0.517296D+00  0.000000D+00
     14   0.000000D+00  0.000000D+00  0.000000D+00  0.000000D+00  0.726987D+00
     15   0.000000D+00 -0.530633D-01  0.000000D+00  0.000000D+00  0.000000D+00
     16   0.211147D+00  0.000000D+00  0.440679D+00  0.000000D+00  0.000000D+00
              1066          1067          1068          1069          1070 
      1  -0.115620D+03 -0.115620D+03 -0.115619D+03 -0.115608D+03 -0.115606D+03
      2  -0.327389D-01  0.000000D+00  0.849809D-01 -0.516130D-01  0.000000D+00
      3   0.000000D+00  0.000000D+00  0.000000D+00  0.000000D+00  0.000000D+00
      4   0.000000D+00  0.273412D-02  0.000000D+00  0.000000D+00  0.156216D-01
      5   0.785019D-01  0.000000D+00 -0.255276D+00  0.129180D+00  0.000000D+00
      6   0.000000D+00  0.000000D+00  0.000000D+00  0.000000D+00  0.000000D+00
      7   0.000000D+00 -0.128892D-01  0.000000D+00  0.000000D+00 -0.234049D-01
      8   0.000000D+00  0.000000D+00  0.000000D+00  0.000000D+00  0.000000D+00
      9  -0.578282D-01  0.000000D+00 -0.918845D-02  0.161891D+00  0.000000D+00
     10   0.000000D+00  0.000000D+00  0.000000D+00  0.000000D+00  0.000000D+00
     11   0.000000D+00  0.834779D-02  0.000000D+00  0.000000D+00 -0.740173D-01
     12   0.000000D+00 -0.120585D+01  0.000000D+00  0.000000D+00 -0.716305D-01
     13   0.000000D+00 -0.883158D-01  0.000000D+00  0.000000D+00  0.277107D+00
     14   0.000000D+00  0.000000D+00  0.000000D+00  0.000000D+00  0.000000D+00
     15  -0.292293D-01  0.000000D+00 -0.932713D-01  0.183649D+00  0.000000D+00
     16   0.000000D+00  0.000000D+00  0.000000D+00  0.000000D+00  0.000000D+00
              1071          1072          1073          1074          1075 
      1  -0.115605D+03 -0.115584D+03 -0.115582D+03 -0.115580D+03 -0.115579D+03
      2   0.000000D+00  0.000000D+00  0.000000D+00  0.000000D+00  0.000000D+00
      3   0.136194D+00  0.000000D+00  0.828029D-01  0.000000D+00 -0.140601D-02
      4   0.000000D+00 -0.735481D-01  0.000000D+00  0.125714D+00  0.000000D+00
      5   0.000000D+00  0.000000D+00  0.000000D+00  0.000000D+00  0.000000D+00
      6  -0.406474D+00  0.000000D+00 -0.219964D+00  0.000000D+00  0.201742D-01
      7   0.000000D+00  0.220748D+00  0.000000D+00 -0.366295D+00  0.000000D+00
      8  -0.420535D+00  0.000000D+00 -0.512612D+00  0.000000D+00 -0.224740D+00
      9   0.000000D+00  0.000000D+00  0.000000D+00  0.000000D+00  0.000000D+00
     10   0.000000D+00  0.000000D+00  0.000000D+00  0.000000D+00  0.000000D+00
     11   0.000000D+00  0.445480D-02  0.000000D+00 -0.321690D-01  0.000000D+00
     12   0.000000D+00  0.277610D+00  0.000000D+00  0.407672D+00  0.000000D+00
     13   0.000000D+00  0.417665D+00  0.000000D+00  0.100656D+00  0.000000D+00
     14   0.000000D+00  0.000000D+00  0.000000D+00  0.000000D+00  0.000000D+00
     15   0.000000D+00  0.000000D+00  0.000000D+00  0.000000D+00  0.000000D+00
     16  -0.288209D+00  0.000000D+00 -0.439614D-01  0.000000D+00 -0.799932D+00
              1076          1077          1078          1079          1080 
      1  -0.115575D+03 -0.115575D+03 -0.115574D+03 -0.115569D+03 -0.115565D+03
      2  -0.140510D+00  0.000000D+00  0.000000D+00  0.000000D+00  0.000000D+00
      3   0.000000D+00  0.000000D+00  0.000000D+00  0.000000D+00  0.000000D+00
      4   0.000000D+00  0.693482D-01  0.000000D+00  0.000000D+00  0.000000D+00
      5   0.418046D+00  0.000000D+00  0.000000D+00  0.000000D+00  0.000000D+00
      6   0.000000D+00  0.000000D+00  0.000000D+00  0.000000D+00  0.000000D+00
      7   0.000000D+00 -0.205310D+00  0.000000D+00  0.000000D+00  0.000000D+00
      8   0.000000D+00  0.000000D+00  0.000000D+00  0.000000D+00  0.000000D+00
      9   0.120854D+00  0.000000D+00  0.000000D+00  0.000000D+00  0.000000D+00
     10   0.000000D+00  0.000000D+00 -0.122362D+00 -0.733678D+00 -0.777605D-01
     11   0.000000D+00  0.167246D+00  0.000000D+00  0.000000D+00  0.000000D+00
     12   0.000000D+00  0.153986D+00  0.000000D+00  0.000000D+00  0.000000D+00
     13   0.000000D+00  0.148125D+00  0.000000D+00  0.000000D+00  0.000000D+00
     14   0.000000D+00  0.000000D+00  0.768536D-01  0.678919D+00  0.348494D-01
     15   0.109533D+00  0.000000D+00  0.000000D+00  0.000000D+00  0.000000D+00
     16   0.000000D+00  0.000000D+00  0.000000D+00  0.000000D+00  0.000000D+00
              1081          1082          1083          1084          1085 
      1  -0.115563D+03 -0.115554D+03 -0.115548D+03 -0.115533D+03 -0.115527D+03
      2   0.688743D-01 -0.522860D-01  0.000000D+00  0.000000D+00  0.000000D+00
      3   0.000000D+00  0.000000D+00  0.160855D-01  0.214657D-02  0.000000D+00
      4   0.000000D+00  0.000000D+00  0.000000D+00  0.000000D+00  0.000000D+00
      5  -0.199006D+00  0.148637D+00  0.000000D+00  0.000000D+00  0.000000D+00
      6   0.000000D+00  0.000000D+00 -0.474414D-01 -0.143993D-01  0.000000D+00
      7   0.000000D+00  0.000000D+00  0.000000D+00  0.000000D+00  0.000000D+00
      8   0.000000D+00  0.000000D+00 -0.842361D-01 -0.398244D+00  0.000000D+00
      9   0.198057D+00 -0.871208D-02  0.000000D+00  0.000000D+00  0.000000D+00
     10   0.000000D+00  0.000000D+00  0.000000D+00  0.000000D+00  0.289405D+00
     11   0.000000D+00  0.000000D+00  0.000000D+00  0.000000D+00  0.000000D+00
     12   0.000000D+00  0.000000D+00  0.000000D+00  0.000000D+00  0.000000D+00
     13   0.000000D+00  0.000000D+00  0.000000D+00  0.000000D+00  0.000000D+00
     14   0.000000D+00  0.000000D+00  0.000000D+00  0.000000D+00 -0.152771D+00
     15   0.208128D+00  0.566444D-01  0.000000D+00  0.000000D+00  0.000000D+00
     16   0.000000D+00  0.000000D+00  0.167371D+00 -0.493221D+00  0.000000D+00
              1086          1087          1088          1089          1090 
      1  -0.115516D+03 -0.115513D+03 -0.115506D+03 -0.115496D+03 -0.115495D+03
      2   0.000000D+00  0.000000D+00  0.000000D+00  0.000000D+00 -0.366301D-01
      3   0.000000D+00  0.000000D+00 -0.250439D-01  0.000000D+00  0.000000D+00
      4   0.000000D+00  0.160496D-01  0.000000D+00  0.269330D-01  0.000000D+00
      5   0.000000D+00  0.000000D+00  0.000000D+00  0.000000D+00  0.103587D+00
      6   0.000000D+00  0.000000D+00  0.808226D-01  0.000000D+00  0.000000D+00
      7   0.000000D+00 -0.304135D-01  0.000000D+00 -0.617008D-01  0.000000D+00
      8   0.000000D+00  0.000000D+00 -0.559245D+00  0.000000D+00  0.000000D+00
      9   0.000000D+00  0.000000D+00  0.000000D+00  0.000000D+00 -0.134658D+00
     10   0.284464D+00  0.000000D+00  0.000000D+00  0.000000D+00  0.000000D+00
     11   0.000000D+00  0.465712D-01  0.000000D+00  0.259486D-01  0.000000D+00
     12   0.000000D+00 -0.140563D+01  0.000000D+00 -0.658731D+00  0.000000D+00
     13   0.000000D+00 -0.506353D-01  0.000000D+00 -0.104304D+00  0.000000D+00
     14  -0.295161D+00  0.000000D+00  0.000000D+00  0.000000D+00  0.000000D+00
     15   0.000000D+00  0.000000D+00  0.000000D+00  0.000000D+00 -0.200974D+00
     16   0.000000D+00  0.000000D+00 -0.612900D+00  0.000000D+00  0.000000D+00
              1091          1092          1093          1094          1095 
      1  -0.115491D+03 -0.115479D+03 -0.115464D+03 -0.115460D+03 -0.115456D+03
      2   0.000000D+00 -0.275407D-01  0.000000D+00  0.000000D+00  0.000000D+00
      3   0.000000D+00  0.000000D+00  0.000000D+00  0.000000D+00  0.361962D-01
      4  -0.423485D-01  0.000000D+00  0.000000D+00 -0.267375D-01  0.000000D+00
      5   0.000000D+00  0.689503D-01  0.000000D+00  0.000000D+00  0.000000D+00
      6   0.000000D+00  0.000000D+00  0.000000D+00  0.000000D+00 -0.906431D-01
      7   0.105139D+00  0.000000D+00  0.000000D+00  0.754164D-01  0.000000D+00
      8   0.000000D+00  0.000000D+00  0.000000D+00  0.000000D+00 -0.285693D+00
      9   0.000000D+00  0.270638D+00  0.000000D+00  0.000000D+00  0.000000D+00
     10   0.000000D+00  0.000000D+00  0.657040D+00  0.000000D+00  0.000000D+00
     11   0.236132D+00  0.000000D+00  0.000000D+00  0.862664D-01  0.000000D+00
     12  -0.106753D+01  0.000000D+00  0.000000D+00  0.295292D-02  0.000000D+00
     13  -0.443542D+00  0.000000D+00  0.000000D+00  0.536713D+00  0.000000D+00
     14   0.000000D+00  0.000000D+00 -0.717020D+00  0.000000D+00  0.000000D+00
     15   0.000000D+00  0.299731D+00  0.000000D+00  0.000000D+00  0.000000D+00
     16   0.000000D+00  0.000000D+00  0.000000D+00  0.000000D+00  0.668277D-01
              1096          1097          1098          1099          1100 
      1  -0.115407D+03 -0.115399D+03 -0.115398D+03 -0.115385D+03 -0.115368D+03
      2   0.000000D+00  0.000000D+00  0.000000D+00  0.000000D+00  0.468183D-01
      3  -0.277714D-01  0.531267D-01  0.000000D+00  0.000000D+00  0.000000D+00
      4   0.000000D+00  0.000000D+00  0.000000D+00  0.215691D-01  0.000000D+00
      5   0.000000D+00  0.000000D+00  0.000000D+00  0.000000D+00 -0.133694D+00
      6   0.604898D-01 -0.113063D+00  0.000000D+00  0.000000D+00  0.000000D+00
      7   0.000000D+00  0.000000D+00  0.000000D+00 -0.541432D-01  0.000000D+00
      8   0.167090D+00  0.278075D+00  0.000000D+00  0.000000D+00  0.000000D+00
      9   0.000000D+00  0.000000D+00  0.000000D+00  0.000000D+00  0.224293D+00
     10   0.000000D+00  0.000000D+00 -0.106341D+00  0.000000D+00  0.000000D+00
     11   0.000000D+00  0.000000D+00  0.000000D+00 -0.712527D-01  0.000000D+00
     12   0.000000D+00  0.000000D+00  0.000000D+00  0.353395D-01  0.000000D+00
     13   0.000000D+00  0.000000D+00  0.000000D+00  0.121451D+00  0.000000D+00
     14   0.000000D+00  0.000000D+00 -0.388498D-02  0.000000D+00  0.000000D+00
     15   0.000000D+00  0.000000D+00  0.000000D+00  0.000000D+00 -0.391662D-01
     16  -0.325942D+00  0.190522D+00  0.000000D+00  0.000000D+00  0.000000D+00
              1101          1102          1103          1104          1105 
      1  -0.115367D+03 -0.115353D+03 -0.115313D+03 -0.115309D+03 -0.115296D+03
      2   0.000000D+00  0.145164D-01  0.000000D+00  0.852328D-01  0.000000D+00
      3   0.000000D+00  0.000000D+00  0.000000D+00  0.000000D+00 -0.309663D-01
      4  -0.701507D-01  0.000000D+00  0.366176D-01  0.000000D+00  0.000000D+00
      5   0.000000D+00 -0.363796D-01  0.000000D+00 -0.248327D+00  0.000000D+00
      6   0.000000D+00  0.000000D+00  0.000000D+00  0.000000D+00  0.107863D+00
      7   0.210532D+00  0.000000D+00 -0.881530D-01  0.000000D+00  0.000000D+00
      8   0.000000D+00  0.000000D+00  0.000000D+00  0.000000D+00  0.566019D+00
      9   0.000000D+00 -0.110435D+00  0.000000D+00  0.151657D+00  0.000000D+00
     10   0.000000D+00  0.000000D+00  0.000000D+00  0.000000D+00  0.000000D+00
     11   0.177029D+00  0.000000D+00  0.178201D+00  0.000000D+00  0.000000D+00
     12   0.678374D+00  0.000000D+00  0.443397D+00  0.000000D+00  0.000000D+00
     13  -0.114120D+00  0.000000D+00 -0.416092D+00  0.000000D+00  0.000000D+00
     14   0.000000D+00  0.000000D+00  0.000000D+00  0.000000D+00  0.000000D+00
     15   0.000000D+00  0.524429D-01  0.000000D+00 -0.451212D-01  0.000000D+00
     16   0.000000D+00  0.000000D+00  0.000000D+00  0.000000D+00  0.502933D+00
              1106          1107          1108          1109          1110 
      1  -0.115271D+03 -0.115262D+03 -0.115213D+03 -0.115201D+03 -0.115168D+03
      2   0.000000D+00  0.000000D+00  0.000000D+00  0.000000D+00  0.103775D+00
      3  -0.620513D-01  0.000000D+00  0.000000D+00  0.000000D+00  0.000000D+00
      4   0.000000D+00  0.000000D+00  0.000000D+00 -0.874219D-01  0.000000D+00
      5   0.000000D+00  0.000000D+00  0.000000D+00  0.000000D+00 -0.308323D+00
      6   0.169125D+00  0.000000D+00  0.000000D+00  0.000000D+00  0.000000D+00
      7   0.000000D+00  0.000000D+00  0.000000D+00  0.251033D+00  0.000000D+00
      8   0.474665D+00  0.000000D+00  0.000000D+00  0.000000D+00  0.000000D+00
      9   0.000000D+00  0.000000D+00  0.000000D+00  0.000000D+00 -0.143795D+00
     10   0.000000D+00  0.382841D+00  0.525403D+00  0.000000D+00  0.000000D+00
     11   0.000000D+00  0.000000D+00  0.000000D+00  0.104637D+00  0.000000D+00
     12   0.000000D+00  0.000000D+00  0.000000D+00  0.428055D+00  0.000000D+00
     13   0.000000D+00  0.000000D+00  0.000000D+00 -0.117482D+00  0.000000D+00
     14   0.000000D+00 -0.298894D+00 -0.582667D+00  0.000000D+00  0.000000D+00
     15   0.000000D+00  0.000000D+00  0.000000D+00  0.000000D+00 -0.936034D-01
     16   0.273657D+00  0.000000D+00  0.000000D+00  0.000000D+00  0.000000D+00
 Unable to Open any file for archive entry.
 1\1\GINC-HEL13\SP\RPW91PW91 TD-FC\Gen\C3H8\SABYASACHI\21-Mar-2022\0\\#
 P TD(Nstates=10000) pw91pw91/Gen SCF(maxcycles=100) Int(Grid=ultrafine
 )\\xGDB7_00001_tier4.com\\0,1\C,0,0.,1.267731,-0.259082\C,0,0.,0.,0.58
 5552\C,0,0.,-1.267731,-0.259082\H,0,0.,2.164308,0.363087\H,0,-0.881453
 ,1.307675,-0.903652\H,0,0.881453,1.307675,-0.903652\H,0,-0.874532,0.,1
 .242055\H,0,0.874532,0.,1.242055\H,0,-0.881453,-1.307675,-0.903652\H,0
 ,0.,-2.164308,0.363087\H,0,0.881453,-1.307675,-0.903652\\Version=EM64L
 -G16RevC.01\State=1-A1\HF=-118.9924065\RMSD=2.247e-09\PG=C02V [C2(C1),
 SGV(C2H2),SGV'(H2),X(H4)]\\@
 The archive entry for this job was punched.


 WE HAVE LEFT UNDONE THOSE THINGS WHICH WE OUGHT TO HAVE DONE,
 AND WE HAVE DONE THOSE THINGS WHICH WE OUGHT NOT TO HAVE DONE.
                   BOOK OF COMMON PRAYER                      
 Job cpu time:       0 days  0 hours 10 minutes 40.5 seconds.
 Elapsed time:       0 days  0 hours  1 minutes 20.3 seconds.
 File lengths (MBytes):  RWF=    620 Int=      0 D2E=      0 Chk=    404 Scr=      1
 Normal termination of Gaussian 16 at Mon Mar 21 04:17:38 2022.
