 Entering Gaussian System, Link 0=g16
 Input=000001.com
 Output=000001.log
 Initial command:
 /home/sabyasachi/g16/l1.exe "/scratch/sabyasachi/PBS_7976498.helios/Gau-159907.inp" -scrdir="/scratch/sabyasachi/PBS_7976498.helios/"
 Entering Link 1 = /home/sabyasachi/g16/l1.exe PID=    159908.
  
 Copyright (c) 1988-2019, Gaussian, Inc.  All Rights Reserved.
  
 This is part of the Gaussian(R) 16 program.  It is based on
 the Gaussian(R) 09 system (copyright 2009, Gaussian, Inc.),
 the Gaussian(R) 03 system (copyright 2003, Gaussian, Inc.),
 the Gaussian(R) 98 system (copyright 1998, Gaussian, Inc.),
 the Gaussian(R) 94 system (copyright 1995, Gaussian, Inc.),
 the Gaussian 92(TM) system (copyright 1992, Gaussian, Inc.),
 the Gaussian 90(TM) system (copyright 1990, Gaussian, Inc.),
 the Gaussian 88(TM) system (copyright 1988, Gaussian, Inc.),
 the Gaussian 86(TM) system (copyright 1986, Carnegie Mellon
 University), and the Gaussian 82(TM) system (copyright 1983,
 Carnegie Mellon University). Gaussian is a federally registered
 trademark of Gaussian, Inc.
  
 This software contains proprietary and confidential information,
 including trade secrets, belonging to Gaussian, Inc.
  
 This software is provided under written license and may be
 used, copied, transmitted, or stored only in accord with that
 written license.
  
 The following legend is applicable only to US Government
 contracts under FAR:
  
                    RESTRICTED RIGHTS LEGEND
  
 Use, reproduction and disclosure by the US Government is
 subject to restrictions as set forth in subparagraphs (a)
 and (c) of the Commercial Computer Software - Restricted
 Rights clause in FAR 52.227-19.
  
 Gaussian, Inc.
 340 Quinnipiac St., Bldg. 40, Wallingford CT 06492
  
  
 ---------------------------------------------------------------
 Warning -- This program may not be used in any manner that
 competes with the business of Gaussian, Inc. or will provide
 assistance to any competitor of Gaussian, Inc.  The licensee
 of this program is prohibited from giving any competitor of
 Gaussian, Inc. access to this program.  By using this program,
 the user acknowledges that Gaussian, Inc. is engaged in the
 business of creating and licensing software in the field of
 computational chemistry and represents and warrants to the
 licensee that it is not a competitor of Gaussian, Inc. and that
 it will not use this program in any manner prohibited above.
 ---------------------------------------------------------------
  

 Cite this work as:
 Gaussian 16, Revision C.01,
 M. J. Frisch, G. W. Trucks, H. B. Schlegel, G. E. Scuseria, 
 M. A. Robb, J. R. Cheeseman, G. Scalmani, V. Barone, 
 G. A. Petersson, H. Nakatsuji, X. Li, M. Caricato, A. V. Marenich, 
 J. Bloino, B. G. Janesko, R. Gomperts, B. Mennucci, H. P. Hratchian, 
 J. V. Ortiz, A. F. Izmaylov, J. L. Sonnenberg, D. Williams-Young, 
 F. Ding, F. Lipparini, F. Egidi, J. Goings, B. Peng, A. Petrone, 
 T. Henderson, D. Ranasinghe, V. G. Zakrzewski, J. Gao, N. Rega, 
 G. Zheng, W. Liang, M. Hada, M. Ehara, K. Toyota, R. Fukuda, 
 J. Hasegawa, M. Ishida, T. Nakajima, Y. Honda, O. Kitao, H. Nakai, 
 T. Vreven, K. Throssell, J. A. Montgomery, Jr., J. E. Peralta, 
 F. Ogliaro, M. J. Bearpark, J. J. Heyd, E. N. Brothers, K. N. Kudin, 
 V. N. Staroverov, T. A. Keith, R. Kobayashi, J. Normand, 
 K. Raghavachari, A. P. Rendell, J. C. Burant, S. S. Iyengar, 
 J. Tomasi, M. Cossi, J. M. Millam, M. Klene, C. Adamo, R. Cammi, 
 J. W. Ochterski, R. L. Martin, K. Morokuma, O. Farkas, 
 J. B. Foresman, and D. J. Fox, Gaussian, Inc., Wallingford CT, 2019.
 
 ******************************************
 Gaussian 16:  EM64L-G16RevC.01  3-Jul-2019
                21-Mar-2022 
 ******************************************
 %mem=64gb
 %nproc=8
 Will use up to    8 processors via shared memory.
 ----------------------------------------------------------------------
 #P TD(Nstates=10000) pw91pw91/Gen SCF(maxcycles=100) Int(Grid=ultrafin
 e)
 ----------------------------------------------------------------------
 1/38=1,172=1/1;
 2/12=2,17=6,18=5,40=1/2;
 3/5=7,11=9,25=1,30=1,74=608,75=-5/1,2,3,8;
 4//1;
 5/5=2,7=100,38=5/2;
 8/6=1,10=1,108=10000/1;
 9/41=10000,42=1,70=2/14;
 6/7=2,8=2,9=2,10=2/1;
 99/5=1,9=1/99;
 Leave Link    1 at Mon Mar 21 20:21:42 2022, MaxMem=  8589934592 cpu:               0.4 elap:               0.1
 (Enter /home/sabyasachi/g16/l101.exe)
 ---------------------
 xGDB7_00001_tier4.com
 ---------------------
 Symbolic Z-matrix:
 Charge =  0 Multiplicity = 1
 6                     0.        0.00001   0. 
 1                     0.98523   0.46299  -0.02804 
 1                    -0.05618  -0.68294   0.84631 
 1                    -0.16813  -0.55191  -0.92354 
 1                    -0.76094   0.77183   0.10527 
 
 ITRead=  0  0  0  0  0
 MicOpt= -1 -1 -1 -1 -1
 NAtoms=      5 NQM=        5 NQMF=       0 NMMI=      0 NMMIF=      0
                NMic=       0 NMicF=      0.
                    Isotopes and Nuclear Properties:
 (Nuclear quadrupole moments (NQMom) in fm**2, nuclear magnetic moments (NMagM)
  in nuclear magnetons)

  Atom         1           2           3           4           5
 IAtWgt=          12           1           1           1           1
 AtmWgt=  12.0000000   1.0078250   1.0078250   1.0078250   1.0078250
 NucSpn=           0           1           1           1           1
 AtZEff=  -0.0000000  -0.0000000  -0.0000000  -0.0000000  -0.0000000
 NQMom=    0.0000000   0.0000000   0.0000000   0.0000000   0.0000000
 NMagM=    0.0000000   2.7928460   2.7928460   2.7928460   2.7928460
 AtZNuc=   6.0000000   1.0000000   1.0000000   1.0000000   1.0000000
 Leave Link  101 at Mon Mar 21 20:21:42 2022, MaxMem=  8589934592 cpu:               0.6 elap:               0.1
 (Enter /home/sabyasachi/g16/l202.exe)
                          Input orientation:                          
 ---------------------------------------------------------------------
 Center     Atomic      Atomic             Coordinates (Angstroms)
 Number     Number       Type             X           Y           Z
 ---------------------------------------------------------------------
      1          6           0        0.000001    0.000006    0.000000
      2          1           0        0.985233    0.462990   -0.028035
      3          1           0       -0.056180   -0.682943    0.846305
      4          1           0       -0.168125   -0.551911   -0.923536
      5          1           0       -0.760937    0.771825    0.105269
 ---------------------------------------------------------------------
                    Distance matrix (angstroms):
                    1          2          3          4          5
     1  C    0.000000
     2  H    1.088955   0.000000
     3  H    1.088948   1.778250   0.000000
     4  H    1.088943   1.778252   1.778212   0.000000
     5  H    1.088950   1.778274   1.778248   1.778241   0.000000
 Stoichiometry    CH4
 Framework group  C1[X(CH4)]
 Deg. of freedom     9
 Full point group                 C1      NOp   1
 Largest Abelian subgroup         C1      NOp   1
 Largest concise Abelian subgroup C1      NOp   1
                         Standard orientation:                         
 ---------------------------------------------------------------------
 Center     Atomic      Atomic             Coordinates (Angstroms)
 Number     Number       Type             X           Y           Z
 ---------------------------------------------------------------------
      1          6           0       -0.000001    0.000006    0.000000
      2          1           0       -0.991926    0.448073    0.033817
      3          1           0        0.066172   -0.671147   -0.854975
      4          1           0        0.176250   -0.561167    0.916416
      5          1           0        0.749514    0.784204   -0.095260
 ---------------------------------------------------------------------
 Rotational constants (GHZ):         158.5824917         158.5804390         158.5768253
 Leave Link  202 at Mon Mar 21 20:21:42 2022, MaxMem=  8589934592 cpu:               0.1 elap:               0.0
 (Enter /home/sabyasachi/g16/l301.exe)
 General basis read from cards:  (5D, 7F)
 Centers:       2      3      4      5
 S 3 1.00
     Exponent=  1.3010701000D+01 Coefficients=  1.9682158000D-02
     Exponent=  1.9622572000D+00 Coefficients=  1.3796524000D-01
     Exponent=  4.4453796000D-01 Coefficients=  4.7831935000D-01
 S 1 1.00
     Exponent=  1.2194962000D-01 Coefficients=  1.0000000000D+00
 P 1 1.00
     Exponent=  8.0000000000D-01 Coefficients=  1.0000000000D+00
 P 1 1.00
     Exponent=  1.1704099050D-01 Coefficients=  1.0000000000D+00
 ****
 Centers:       1
 S 5 1.00
     Exponent=  1.2384016938D+03 Coefficients=  5.4568832082D-03
     Exponent=  1.8629004992D+02 Coefficients=  4.0638409211D-02
     Exponent=  4.2251176346D+01 Coefficients=  1.8025593888D-01
     Exponent=  1.1676557932D+01 Coefficients=  4.6315121755D-01
     Exponent=  3.5930506482D+00 Coefficients=  4.4087173314D-01
 S 1 1.00
     Exponent=  4.0245147363D-01 Coefficients=  1.0000000000D+00
 S 1 1.00
     Exponent=  1.3090182668D-01 Coefficients=  1.0000000000D+00
 S 1 1.00
     Exponent=  6.7053540256D-02 Coefficients=  1.0000000000D+00
 P 3 1.00
     Exponent=  9.4680970621D+00 Coefficients=  3.8387871728D-02
     Exponent=  2.0103545142D+00 Coefficients=  2.1117025112D-01
     Exponent=  5.4771004707D-01 Coefficients=  5.1328172114D-01
 P 1 1.00
     Exponent=  1.5268613795D-01 Coefficients=  1.0000000000D+00
 D 1 1.00
     Exponent=  8.0000000000D-01 Coefficients=  1.0000000000D+00
 D 1 1.00
     Exponent=  1.1713185140D-01 Coefficients=  1.0000000000D+00
 ****
 Ernie: Thresh=  0.10000D-02 Tol=  0.10000D-05 Strict=F.
 There are    54 symmetry adapted cartesian basis functions of A   symmetry.
 There are    52 symmetry adapted basis functions of A   symmetry.
    52 basis functions,    72 primitive gaussians,    54 cartesian basis functions
     5 alpha electrons        5 beta electrons
       nuclear repulsion energy        13.4483556150 Hartrees.
 IExCor=  608 DFT=T Ex=PW91 Corr=PW91 ExCW=0 ScaHFX=  0.000000
 ScaDFX=  1.000000  1.000000  1.000000  1.000000 ScalE2=  1.000000  1.000000
 IRadAn=      5 IRanWt=     -1 IRanGd=            0 ICorTp=0 IEmpDi=  4
 NAtoms=    5 NActive=    5 NUniq=    5 SFac= 1.00D+00 NAtFMM=   60 NAOKFM=F Big=F
 Integral buffers will be    131072 words long.
 Regular integral format.
 Two-electron integral symmetry is turned on.
 Leave Link  301 at Mon Mar 21 20:21:42 2022, MaxMem=  8589934592 cpu:               0.5 elap:               0.1
 (Enter /home/sabyasachi/g16/l302.exe)
 NPDir=0 NMtPBC=     1 NCelOv=     1 NCel=       1 NClECP=     1 NCelD=      1
         NCelK=      1 NCelE2=     1 NClLst=     1 CellRange=     0.0.
 One-electron integrals computed using PRISM.
 One-electron integral symmetry used in STVInt
 NBasis=    52 RedAO= T EigKep=  6.60D-04  NBF=    52
 NBsUse=    52 1.00D-06 EigRej= -1.00D+00 NBFU=    52
 Precomputing XC quadrature grid using
 IXCGrd= 4 IRadAn=           5 IRanWt=          -1 IRanGd=           0 AccXCQ= 0.00D+00.
 Generated NRdTot=       0 NPtTot=           0 NUsed=           0 NTot=          32
 NSgBfM=    54    54    54    54    54 MxSgAt=     5 MxSgA2=     5.
 Leave Link  302 at Mon Mar 21 20:21:42 2022, MaxMem=  8589934592 cpu:               0.9 elap:               0.1
 (Enter /home/sabyasachi/g16/l303.exe)
 DipDrv:  MaxL=1.
 Leave Link  303 at Mon Mar 21 20:21:42 2022, MaxMem=  8589934592 cpu:               0.2 elap:               0.0
 (Enter /home/sabyasachi/g16/l308.exe)
 Leave Link  308 at Mon Mar 21 20:21:42 2022, MaxMem=  8589934592 cpu:               0.2 elap:               0.0
 (Enter /home/sabyasachi/g16/l401.exe)
 ExpMin= 6.71D-02 ExpMax= 1.24D+03 ExpMxC= 1.86D+02 IAcc=3 IRadAn=         5 AccDes= 0.00D+00
 Harris functional with IExCor=  608 and IRadAn=       5 diagonalized for initial guess.
 HarFok:  IExCor=  608 AccDes= 0.00D+00 IRadAn=         5 IDoV= 1 UseB2=F ITyADJ=14
 ICtDFT=  3500011 ScaDFX=  1.000000  1.000000  1.000000  1.000000
 FoFCou: FMM=F IPFlag=           0 FMFlag=      100000 FMFlg1=           0
         NFxFlg=           0 DoJE=T BraDBF=F KetDBF=T FulRan=T
         wScrn=  0.000000 ICntrl=       500 IOpCl=  0 I1Cent=   200000004 NGrid=           0
         NMat0=    1 NMatS0=      1 NMatT0=    0 NMatD0=    1 NMtDS0=    0 NMtDT0=    0
 Petite list used in FoFCou.
 Harris En= -40.5301220355681    
 JPrj=0 DoOrth=F DoCkMO=F.
 Leave Link  401 at Mon Mar 21 20:21:42 2022, MaxMem=  8589934592 cpu:               1.6 elap:               0.2
 (Enter /home/sabyasachi/g16/l502.exe)
 Keep J ints in memory in canonical form, NReq=7965847.
 FoFCou: FMM=F IPFlag=           0 FMFlag=           0 FMFlg1=           0
         NFxFlg=           0 DoJE=F BraDBF=F KetDBF=F FulRan=T
         wScrn=  0.000000 ICntrl=       600 IOpCl=  0 I1Cent=           0 NGrid=           0
         NMat0=    1 NMatS0=   1378 NMatT0=    0 NMatD0=    1 NMtDS0=    0 NMtDT0=    0
 Symmetry not used in FoFCou.
 Two-electron integral symmetry not used.
 Closed shell SCF:
 Using DIIS extrapolation, IDIIS=  1040.
 NGot=  8589934592 LenX=  8588977361 LenY=  8588974004
 Requested convergence on RMS density matrix=1.00D-08 within 100 cycles.
 Requested convergence on MAX density matrix=1.00D-06.
 Requested convergence on             energy=1.00D-06.
 No special actions if energy rises.
 Integral accuracy reduced to 1.0D-05 until final iterations.

 Cycle   1  Pass 0  IDiag  1:
 E= -40.3763037122189    
 DIIS: error= 4.39D-02 at cycle   1 NSaved=   1.
 NSaved= 1 IEnMin= 1 EnMin= -40.3763037122189     IErMin= 1 ErrMin= 4.39D-02
 ErrMax= 4.39D-02  0.00D+00 EMaxC= 1.00D-01 BMatC= 7.38D-02 BMatP= 7.38D-02
 IDIUse=3 WtCom= 5.61D-01 WtEn= 4.39D-01
 Coeff-Com:  0.100D+01
 Coeff-En:   0.100D+01
 Coeff:      0.100D+01
 Gap=     0.256 Goal=   None    Shift=    0.000
 GapD=    0.256 DampG=1.000 DampE=0.500 DampFc=0.5000 IDamp=-1.
 Damping current iteration by 5.00D-01
 RMSDP=1.09D-02 MaxDP=1.95D-01              OVMax= 2.26D-01

 Cycle   2  Pass 0  IDiag  1:
 E= -40.4021321776461     Delta-E=       -0.025828465427 Rises=F Damp=T
 DIIS: error= 1.04D-02 at cycle   2 NSaved=   2.
 NSaved= 2 IEnMin= 2 EnMin= -40.4021321776461     IErMin= 2 ErrMin= 1.04D-02
 ErrMax= 1.04D-02  0.00D+00 EMaxC= 1.00D-01 BMatC= 4.72D-03 BMatP= 7.38D-02
 IDIUse=3 WtCom= 8.96D-01 WtEn= 1.04D-01
 Coeff-Com:  0.194D+00 0.806D+00
 Coeff-En:   0.330D+00 0.670D+00
 Coeff:      0.209D+00 0.791D+00
 Gap=     0.347 Goal=   None    Shift=    0.000
 RMSDP=1.25D-03 MaxDP=1.43D-02 DE=-2.58D-02 OVMax= 1.34D-01

 Cycle   3  Pass 0  IDiag  1:
 E= -40.4587407139524     Delta-E=       -0.056608536306 Rises=F Damp=F
 DIIS: error= 7.11D-04 at cycle   3 NSaved=   3.
 NSaved= 3 IEnMin= 3 EnMin= -40.4587407139524     IErMin= 3 ErrMin= 7.11D-04
 ErrMax= 7.11D-04  0.00D+00 EMaxC= 1.00D-01 BMatC= 1.88D-05 BMatP= 4.72D-03
 IDIUse=3 WtCom= 9.93D-01 WtEn= 7.11D-03
 Coeff-Com:  0.117D-01-0.115D-01 0.100D+01
 Coeff-En:   0.000D+00 0.000D+00 0.100D+01
 Coeff:      0.116D-01-0.115D-01 0.100D+01
 Gap=     0.355 Goal=   None    Shift=    0.000
 RMSDP=1.42D-04 MaxDP=1.91D-03 DE=-5.66D-02 OVMax= 9.20D-04

 Cycle   4  Pass 0  IDiag  1:
 E= -40.4587557863248     Delta-E=       -0.000015072372 Rises=F Damp=F
 DIIS: error= 1.59D-04 at cycle   4 NSaved=   4.
 NSaved= 4 IEnMin= 4 EnMin= -40.4587557863248     IErMin= 4 ErrMin= 1.59D-04
 ErrMax= 1.59D-04  0.00D+00 EMaxC= 1.00D-01 BMatC= 7.23D-07 BMatP= 1.88D-05
 IDIUse=3 WtCom= 9.98D-01 WtEn= 1.59D-03
 Coeff-Com:  0.384D-02-0.989D-03 0.943D-01 0.903D+00
 Coeff-En:   0.000D+00 0.000D+00 0.000D+00 0.100D+01
 Coeff:      0.384D-02-0.988D-03 0.942D-01 0.903D+00
 Gap=     0.355 Goal=   None    Shift=    0.000
 RMSDP=2.72D-05 MaxDP=2.67D-04 DE=-1.51D-05 OVMax= 3.56D-04

 Cycle   5  Pass 0  IDiag  1:
 E= -40.4587567533919     Delta-E=       -0.000000967067 Rises=F Damp=F
 DIIS: error= 3.89D-06 at cycle   5 NSaved=   5.
 NSaved= 5 IEnMin= 5 EnMin= -40.4587567533919     IErMin= 5 ErrMin= 3.89D-06
 ErrMax= 3.89D-06  0.00D+00 EMaxC= 1.00D-01 BMatC= 3.57D-10 BMatP= 7.23D-07
 IDIUse=1 WtCom= 1.00D+00 WtEn= 0.00D+00
 Coeff-Com: -0.182D-04 0.116D-04-0.631D-02 0.168D-01 0.990D+00
 Coeff:     -0.182D-04 0.116D-04-0.631D-02 0.168D-01 0.990D+00
 Gap=     0.355 Goal=   None    Shift=    0.000
 RMSDP=2.95D-06 MaxDP=2.88D-05 DE=-9.67D-07 OVMax= 9.10D-06

 Initial convergence to 1.0D-05 achieved.  Increase integral accuracy.
 Cycle   6  Pass 1  IDiag  1:
 E= -40.4587567693558     Delta-E=       -0.000000015964 Rises=F Damp=F
 DIIS: error= 1.22D-06 at cycle   1 NSaved=   1.
 NSaved= 1 IEnMin= 1 EnMin= -40.4587567693558     IErMin= 1 ErrMin= 1.22D-06
 ErrMax= 1.22D-06  0.00D+00 EMaxC= 1.00D-01 BMatC= 1.06D-10 BMatP= 1.06D-10
 IDIUse=1 WtCom= 1.00D+00 WtEn= 0.00D+00
 Coeff-Com:  0.100D+01
 Coeff:      0.100D+01
 Gap=     0.355 Goal=   None    Shift=    0.000
 RMSDP=2.95D-06 MaxDP=2.88D-05 DE=-1.60D-08 OVMax= 4.90D-06

 Cycle   7  Pass 1  IDiag  1:
 E= -40.4587567694774     Delta-E=       -0.000000000122 Rises=F Damp=F
 DIIS: error= 4.02D-07 at cycle   2 NSaved=   2.
 NSaved= 2 IEnMin= 2 EnMin= -40.4587567694774     IErMin= 2 ErrMin= 4.02D-07
 ErrMax= 4.02D-07  0.00D+00 EMaxC= 1.00D-01 BMatC= 8.02D-12 BMatP= 1.06D-10
 IDIUse=1 WtCom= 1.00D+00 WtEn= 0.00D+00
 Coeff-Com:  0.136D+00 0.864D+00
 Coeff:      0.136D+00 0.864D+00
 Gap=     0.355 Goal=   None    Shift=    0.000
 RMSDP=1.15D-07 MaxDP=1.75D-06 DE=-1.22D-10 OVMax= 1.87D-06

 Cycle   8  Pass 1  IDiag  1:
 E= -40.4587567694770     Delta-E=        0.000000000000 Rises=F Damp=F
 DIIS: error= 4.52D-07 at cycle   3 NSaved=   3.
 NSaved= 3 IEnMin= 2 EnMin= -40.4587567694774     IErMin= 2 ErrMin= 4.02D-07
 ErrMax= 4.52D-07  0.00D+00 EMaxC= 1.00D-01 BMatC= 8.68D-12 BMatP= 8.02D-12
 IDIUse=1 WtCom= 1.00D+00 WtEn= 0.00D+00
 Coeff-Com:  0.230D-01 0.511D+00 0.466D+00
 Coeff:      0.230D-01 0.511D+00 0.466D+00
 Gap=     0.355 Goal=   None    Shift=    0.000
 RMSDP=5.25D-08 MaxDP=9.99D-07 DE= 4.76D-13 OVMax= 9.91D-07

 Cycle   9  Pass 1  IDiag  1:
 E= -40.4587567694862     Delta-E=       -0.000000000009 Rises=F Damp=F
 DIIS: error= 2.81D-08 at cycle   4 NSaved=   4.
 NSaved= 4 IEnMin= 4 EnMin= -40.4587567694862     IErMin= 4 ErrMin= 2.81D-08
 ErrMax= 2.81D-08  0.00D+00 EMaxC= 1.00D-01 BMatC= 6.90D-14 BMatP= 8.02D-12
 IDIUse=1 WtCom= 1.00D+00 WtEn= 0.00D+00
 Coeff-Com:  0.136D-02 0.141D+00 0.160D+00 0.698D+00
 Coeff:      0.136D-02 0.141D+00 0.160D+00 0.698D+00
 Gap=     0.355 Goal=   None    Shift=    0.000
 RMSDP=6.63D-09 MaxDP=6.02D-08 DE=-9.19D-12 OVMax= 1.04D-07

 SCF Done:  E(RPW91-PW91) =  -40.4587567695     A.U. after    9 cycles
            NFock=  9  Conv=0.66D-08     -V/T= 2.0146
 KE= 3.987698038465D+01 PE=-1.196608042036D+02 EE= 2.587671143443D+01
 Leave Link  502 at Mon Mar 21 20:21:43 2022, MaxMem=  8589934592 cpu:               4.9 elap:               0.6
 (Enter /home/sabyasachi/g16/l801.exe)
 DoSCS=F DFT=T ScalE2(SS,OS)=  1.000000  1.000000
 ExpMin= 6.71D-02 ExpMax= 1.24D+03 ExpMxC= 1.86D+02 IAcc=3 IRadAn=         5 AccDes= 0.00D+00
 HarFok:  IExCor=  205 AccDes= 0.00D+00 IRadAn=         5 IDoV=-2 UseB2=F ITyADJ=14
 ICtDFT= 12500011 ScaDFX=  1.000000  1.000000  1.000000  1.000000
 Largest valence mixing into a core orbital is  6.56D-05
 Largest core mixing into a valence orbital is  1.08D-05
 Range of M.O.s used for correlation:     2    52
 NBasis=    52 NAE=     5 NBE=     5 NFC=     1 NFV=     0
 NROrb=     51 NOA=     4 NOB=     4 NVA=    47 NVB=    47

 **** Warning!!: The largest alpha MO coefficient is  0.26529913D+02

 Leave Link  801 at Mon Mar 21 20:21:43 2022, MaxMem=  8589934592 cpu:               0.4 elap:               0.1
 (Enter /home/sabyasachi/g16/l914.exe)
 RHF ground state
 Keep J ints in memory in canonical form, NReq=64059843.
 FoFCou: FMM=F IPFlag=           0 FMFlag=           0 FMFlg1=           0
         NFxFlg=           0 DoJE=F BraDBF=F KetDBF=F FulRan=T
         wScrn=  0.000000 ICntrl=       600 IOpCl=  0 I1Cent=           0 NGrid=           0
         NMat0=    1 NMatS0=   1378 NMatT0=    0 NMatD0=    1 NMtDS0=    0 NMtDT0=    0
 Symmetry not used in FoFCou.
 Two-electron integral symmetry not used.
 MDV=  8589934592 DFT=T DoStab=F Mixed=F DoRPA=T DoScal=T NonHer=F
 Making orbital integer symmetry assigments:
 Orbital symmetries:
       Occupied  (A) (A) (A) (A) (A)
       Virtual   (A) (A) (A) (A) (A) (A) (A) (A) (A) (A) (A) (A)
                 (A) (A) (A) (A) (A) (A) (A) (A) (A) (A) (A) (A)
                 (A) (A) (A) (A) (A) (A) (A) (A) (A) (A) (A) (A)
                 (A) (A) (A) (A) (A) (A) (A) (A) (A) (A) (A)
   188 initial guesses have been made.
 Convergence on wavefunction:    0.001000000000000
 Davidson Disk Diagonalization:  ConvIn= 1.00D-03 SkipCon=T Conv= 1.00D-03.
 Max sub-space:   752 roots to seek:   376 dimension of matrix:          376
 *** WARNING: Number of orthogonal guesses is          188
 Iteration     1 Dimension   188 NMult     0 NNew    188
 CISAX will form   188 AO SS matrices at one time.
 NMat=   188 NSing=   188 JSym2X= 0.
 New state      4 was old state      9
 New state      5 was old state      4
 New state      6 was old state      7
 New state      7 was old state     12
 New state      9 was old state      5
 New state     10 was old state      6
 New state     12 was old state     15
 New state     13 was old state     20
 New state     14 was old state     21
 New state     15 was old state     18
 New state     16 was old state     13
 New state     18 was old state     27
 New state     19 was old state     24
 New state     20 was old state     23
 New state     21 was old state     22
 New state     22 was old state     26
 New state     23 was old state     25
 New state     24 was old state     10
 New state     25 was old state     16
 New state     26 was old state     19
 New state     27 was old state     14
 New state     35 was old state     36
 New state     36 was old state     35
 New state     37 was old state     41
 New state     38 was old state     43
 New state     39 was old state     37
 New state     40 was old state     39
 New state     41 was old state     38
 New state     42 was old state     40
 New state     43 was old state     42
 New state     44 was old state     47
 New state     45 was old state     48
 New state     46 was old state     52
 New state     47 was old state     46
 New state     48 was old state     50
 New state     49 was old state     44
 New state     50 was old state     51
 New state     51 was old state     49
 New state     52 was old state     64
 New state     53 was old state     54
 New state     54 was old state     55
 New state     55 was old state     53
 New state     56 was old state     57
 New state     57 was old state     60
 New state     58 was old state     63
 New state     59 was old state     58
 New state     60 was old state     56
 New state     61 was old state     62
 New state     62 was old state     59
 New state     63 was old state     61
 New state     64 was old state     65
 New state     65 was old state     66
 New state     66 was old state     67
 New state     67 was old state     68
 New state     68 was old state     69
 New state     69 was old state     76
 New state     71 was old state     74
 New state     72 was old state     73
 New state     73 was old state     71
 New state     74 was old state     75
 New state     75 was old state     72
 New state     76 was old state     77
 New state     77 was old state     78
 New state     78 was old state     79
 New state     79 was old state     80
 New state     80 was old state    104
 New state     89 was old state     90
 New state     90 was old state     92
 New state     91 was old state     95
 New state     92 was old state     93
 New state     93 was old state     94
 New state     94 was old state     89
 New state     95 was old state     91
 New state     96 was old state     97
 New state     97 was old state     96
 New state     98 was old state    100
 New state    100 was old state     98
 New state    102 was old state    105
 New state    103 was old state    107
 New state    104 was old state    108
 New state    105 was old state    102
 New state    107 was old state    103
 New state    108 was old state    109
 New state    109 was old state    116
 New state    116 was old state    117
 New state    117 was old state    118
 New state    118 was old state    119
 New state    119 was old state    120
 No map to state    120
 New state    121 was old state    122
 New state    122 was old state    123
 New state    123 was old state    126
 New state    124 was old state    121
 New state    125 was old state    124
 New state    126 was old state    125
 New state    129 was old state    135
 New state    130 was old state    134
 New state    131 was old state    133
 New state    132 was old state    131
 New state    133 was old state    129
 New state    134 was old state    130
 New state    135 was old state    132
 New state    139 was old state    142
 New state    141 was old state    143
 New state    142 was old state    146
 New state    143 was old state    141
 New state    144 was old state    139
 New state    145 was old state    144
 New state    146 was old state    145
 New state    153 was old state    154
 New state    154 was old state    155
 New state    155 was old state    160
 New state    156 was old state    157
 New state    157 was old state    159
 New state    158 was old state    153
 New state    159 was old state    156
 New state    160 was old state    161
 New state    161 was old state    158
 New state    165 was old state    168
 New state    167 was old state    170
 New state    168 was old state    165
 New state    169 was old state    167
 New state    170 was old state    169
 New state    177 was old state    182
 New state    178 was old state    177
 New state    179 was old state    180
 New state    180 was old state    181
 New state    181 was old state    185
 New state    182 was old state    178
 New state    185 was old state    179
 Excitation Energies [eV] at current iteration:
 Root      1 :     9.843095233220101
 Root      2 :     9.843217354673971
 Root      3 :     9.843261891309430
 Root      4 :    12.151267000908140
 Root      5 :    12.151284369159350
 Root      6 :    12.151342909514660
 Root      7 :    12.264266528109540
 Root      8 :    12.264295178984420
 Root      9 :    12.429369030251540
 Root     10 :    12.429393667711170
 Root     11 :    12.429441078982180
 Root     12 :    13.112049316789820
 Root     13 :    13.112065202168300
 Root     14 :    13.112133448720120
 Root     15 :    13.116888656467980
 Root     16 :    13.188299118707540
 Root     17 :    13.188344814798030
 Root     18 :    13.592801464921930
 Root     19 :    13.592824498116070
 Root     20 :    13.592863745279680
 Root     21 :    13.809550061412860
 Root     22 :    13.809638802783670
 Root     23 :    13.809652616935540
 Root     24 :    14.218857519608640
 Root     25 :    14.503797769947480
 Root     26 :    14.503823553160060
 Root     27 :    14.503845766925780
 Root     28 :    16.891832495222990
 Root     29 :    16.891946306849130
 Root     30 :    16.891991006450990
 Root     31 :    17.498641261959810
 Root     32 :    18.312478494510540
 Root     33 :    18.312591983415870
 Root     34 :    18.312630902728430
 Root     35 :    18.501375403262910
 Root     36 :    18.501419581396980
 Root     37 :    18.501495434719490
 Root     38 :    18.529639663840790
 Root     39 :    18.539439087374760
 Root     40 :    18.539467892240350
 Root     41 :    18.566665863732880
 Root     42 :    18.566696526314190
 Root     43 :    18.566755903138030
 Root     44 :    18.883577492738370
 Root     45 :    18.883606771779630
 Root     46 :    18.883693697564870
 Root     47 :    18.941830434455120
 Root     48 :    18.941878298819120
 Root     49 :    19.543711997404870
 Root     50 :    19.543744856185180
 Root     51 :    19.543808621451330
 Root     52 :    19.647387472751050
 Root     53 :    20.055540247546660
 Root     54 :    20.055549247560940
 Root     55 :    20.055556159914210
 Root     56 :    20.455144176613780
 Root     57 :    20.455220539189880
 Root     58 :    20.455309651315820
 Root     59 :    20.541412101428190
 Root     60 :    20.541485882074410
 Root     61 :    20.541571032663730
 Root     62 :    20.548054449862680
 Root     63 :    20.548062805341570
 Root     64 :    20.841627335882540
 Root     65 :    20.841641705435730
 Root     66 :    20.841659037697290
 Root     67 :    21.386049677430660
 Root     68 :    21.386071768721020
 Root     69 :    21.771264756814240
 Root     70 :    22.105276456860270
 Root     71 :    22.105365501604790
 Root     72 :    22.105377841382510
 Root     73 :    22.831867500630440
 Root     74 :    22.831913525604660
 Root     75 :    22.831921843670950
 Root     76 :    24.660640783073220
 Root     77 :    25.966679850487910
 Root     78 :    25.966710904093370
 Root     79 :    25.966748233435680
 Root     80 :    26.401220996870600
 Root     81 :    26.763236843726790
 Root     82 :    26.763283031675310
 Root     83 :    26.763295815740140
 Root     84 :    28.055596018857660
 Root     85 :    28.055666370128560
 Root     86 :    28.055764303834050
 Root     87 :    29.742765763937400
 Root     88 :    29.742768788769950
 Root     89 :    30.052264274459990
 Root     90 :    30.052305786090990
 Root     91 :    30.052437845796730
 Root     92 :    30.275830617325590
 Root     93 :    30.275904168953060
 Root     94 :    30.901851957244260
 Root     95 :    31.403136453089260
 Root     96 :    31.403290769228290
 Root     97 :    31.403516949983760
 Root     98 :    32.988774146786630
 Root     99 :    32.988831557450000
 Root    100 :    32.988866167230730
 Root    101 :    33.485397286253310
 Root    102 :    33.485408132819510
 Root    103 :    33.544218883195010
 Root    104 :    33.544242761512520
 Root    105 :    33.544256120370410
 Root    106 :    33.943035581070120
 Root    107 :    33.943077406983560
 Root    108 :    33.943119670115650
 Root    109 :    37.235637127126250
 Root    110 :    38.015661038121870
 Root    111 :    38.015807431679730
 Root    112 :    38.015850347424950
 Root    113 :    38.894540837514300
 Root    114 :    38.894640185728610
 Root    115 :    38.894654862095730
 Root    116 :    41.345777525892910
 Root    117 :    41.345867476360970
 Root    118 :    41.346001233635750
 Root    119 :    41.777485237418770
 Root    120 :    47.325987721218480
 Root    121 :    49.368943672524880
 Root    122 :    49.369070012423320
 Root    123 :    49.369098763257260
 Root    124 :    50.339537228990420
 Root    125 :    50.339623790697520
 Root    126 :    50.339646266604820
 Root    127 :    53.101314049267050
 Root    128 :    53.102279020032720
 Root    129 :    53.102442236171430
 Root    130 :    53.102527532292000
 Root    131 :    53.459991775585850
 Root    132 :    53.459996512349520
 Root    133 :    53.715038588378640
 Root    134 :    53.715178262259500
 Root    135 :    53.715335604235110
 Root    136 :    57.463396979697760
 Root    137 :    57.463459370873860
 Root    138 :    58.630090030424290
 Root    139 :    58.630156243618210
 Root    140 :    58.780175103700640
 Root    141 :    58.908544073616400
 Root    142 :    58.908599917832400
 Root    143 :    58.908847649023740
 Root    144 :    59.670065981485880
 Root    145 :    59.670181930658430
 Root    146 :    59.670317245950200
 Root    147 :    60.746391572197770
 Root    148 :    60.746524598443010
 Root    149 :    60.746763880412540
 Root    150 :    66.497498647266430
 Root    151 :    66.497879209875480
 Root    152 :    66.498180034678070
 Root    153 :    68.723501309201510
 Root    154 :    68.723858562145030
 Root    155 :    68.724200971619230
 Root    156 :    68.932544033153280
 Root    157 :    68.932553361620760
 Root    158 :    69.005218313352090
 Root    159 :    69.310553213191340
 Root    160 :    69.310913584520930
 Root    161 :    69.311266895366490
 Root    162 :    76.409621830070040
 Root    163 :    76.410174914336470
 Root    164 :    76.410840572997290
 Root    165 :    78.031987277026970
 Root    166 :    78.032041466258110
 Root    167 :    78.032171294795550
 Root    168 :    78.572282181778390
 Root    169 :    78.572447898512850
 Root    170 :    78.572496099435090
 Root    171 :    80.521039874950230
 Root    172 :    80.521149269871120
 Root    173 :    80.521195634889840
 Root    174 :    85.703853136695710
 Root    175 :    85.704020989949340
 Root    176 :    88.112826971545730
 Root    177 :    89.287258785735890
 Root    178 :    89.287493417985290
 Root    179 :    89.287740974696420
 Root    180 :    89.410333572109350
 Root    181 :    89.410389199891410
 Root    182 :    89.533581112498980
 Root    183 :    89.533806763760820
 Root    184 :    89.533961837239810
 Root    185 :    90.076350063575250
 Root    186 :    96.894806028619060
 Root    187 :    96.895269584638090
 Root    188 :    96.895849987575330
 Convergence achieved for final wavefunctions.
 ***********************************************************************
 Excited states from <AA,BB:AA,BB> singles matrix:
 ***********************************************************************
 
 1PDM for each excited state written to RWF  633
 Ground to excited state transition densities written to RWF  633
 Ground to excited state transition electric dipole moments (Au):
       state          X           Y           Z        Dip. S.      Osc.
         1         0.0400     -0.1000     -0.6476      0.4310      0.1039
         2         0.1071     -0.6391      0.1055      0.4310      0.1039
         3        -0.6465     -0.1121     -0.0225      0.4310      0.1039
         4        -0.0001     -0.0001      0.0002      0.0000      0.0000
         5        -0.0000     -0.0001      0.0001      0.0000      0.0000
         6        -0.0000     -0.0002      0.0000      0.0000      0.0000
         7        -0.0000     -0.0000     -0.0000      0.0000      0.0000
         8         0.0001     -0.0002      0.0001      0.0000      0.0000
         9         0.0463      0.2372      0.6000      0.4185      0.1274
        10         0.1831     -0.5817      0.2158      0.4185      0.1274
        11        -0.6187     -0.1545      0.1089      0.4185      0.1274
        12        -0.0001     -0.0001     -0.0001      0.0000      0.0000
        13        -0.0001     -0.0000      0.0001      0.0000      0.0000
        14        -0.0000     -0.0001     -0.0003      0.0000      0.0000
        15         0.0000     -0.0001     -0.0000      0.0000      0.0000
        16        -0.0000     -0.0000      0.0000      0.0000      0.0000
        17        -0.0000      0.0001     -0.0000      0.0000      0.0000
        18        -0.0178     -0.0489     -0.1865      0.0375      0.0125
        19         0.0095      0.1869     -0.0499      0.0375      0.0125
        20        -0.1925      0.0138      0.0147      0.0375      0.0125
        21        -0.0000      0.0001      0.0001      0.0000      0.0000
        22        -0.0001     -0.0001     -0.0001      0.0000      0.0000
        23        -0.0000     -0.0001     -0.0001      0.0000      0.0000
        24         0.0000      0.0000      0.0000      0.0000      0.0000
        25         1.3357      0.1718     -0.1633      1.8404      0.6540
        26         0.1605     -1.3433     -0.1004      1.8403      0.6539
        27         0.1744     -0.0796      1.3430      1.8403      0.6539
        28        -0.0392      0.0932      0.5202      0.2809      0.1162
        29        -0.1395      0.5013     -0.1003      0.2808      0.1162
        30         0.5097      0.1443      0.0125      0.2808      0.1162
        31         0.0000     -0.0000     -0.0000      0.0000      0.0000
        32        -0.0124      0.0307      0.2005      0.0413      0.0185
        33        -0.0285      0.1986     -0.0322      0.0413      0.0185
        34         0.2008      0.0301      0.0078      0.0413      0.0185
        35        -0.0001     -0.0001     -0.0001      0.0000      0.0000
        36        -0.0002     -0.0001      0.0001      0.0000      0.0000
        37        -0.0002      0.0000     -0.0000      0.0000      0.0000
        38         0.0001     -0.0000     -0.0000      0.0000      0.0000
        39         0.0001     -0.0004      0.0001      0.0000      0.0000
        40        -0.0000     -0.0001      0.0000      0.0000      0.0000
        41        -0.2207     -0.0076      0.0002      0.0488      0.0222
        42         0.0076     -0.2198      0.0203      0.0488      0.0222
        43        -0.0005      0.0203      0.2198      0.0487      0.0222
        44        -0.0000     -0.0000      0.0001      0.0000      0.0000
        45        -0.0000      0.0000     -0.0000      0.0000      0.0000
        46         0.0000     -0.0000     -0.0000      0.0000      0.0000
        47         0.0000      0.0000      0.0000      0.0000      0.0000
        48        -0.0000     -0.0001      0.0001      0.0000      0.0000
        49        -0.0564     -0.2446     -0.6591      0.4974      0.2382
        50         0.2073     -0.6376      0.2188      0.4974      0.2382
        51        -0.6717     -0.1762      0.1229      0.4974      0.2382
        52        -0.0001      0.0006      0.0000      0.0000      0.0000
        53        -0.0134      0.0434      0.0324      0.0031      0.0015
        54        -0.0423      0.0124     -0.0340      0.0031      0.0015
        55         0.0337      0.0327     -0.0300      0.0031      0.0015
        56         0.0000     -0.0001     -0.0001      0.0000      0.0000
        57         0.0000     -0.0002     -0.0001      0.0000      0.0000
        58         0.0000     -0.0000      0.0001      0.0000      0.0000
        59        -0.0103     -0.0814     -0.2008      0.0470      0.0237
        60         0.0093      0.2007     -0.0818      0.0471      0.0237
        61         0.2165     -0.0125     -0.0061      0.0471      0.0237
        62        -0.0004     -0.0010      0.0003      0.0000      0.0000
        63         0.0007     -0.0028      0.0004      0.0000      0.0000
        64         0.1460      0.0747     -0.0544      0.0298      0.0152
        65         0.0074     -0.1109     -0.1323      0.0298      0.0152
        66         0.0921     -0.1094      0.0969      0.0298      0.0152
        67        -0.0000      0.0000     -0.0000      0.0000      0.0000
        68         0.0000      0.0000      0.0000      0.0000      0.0000
        69         0.0000     -0.0001     -0.0000      0.0000      0.0000
        70        -0.0001      0.0000     -0.0001      0.0000      0.0000
        71         0.0001     -0.0000      0.0000      0.0000      0.0000
        72         0.0000      0.0000      0.0000      0.0000      0.0000
        73        -0.7486     -0.1709      0.3174      0.6903      0.3861
        74        -0.3597      0.3044     -0.6843      0.6903      0.3861
        75        -0.0244      0.7539      0.3482      0.6903      0.3861
        76        -0.0000      0.0000     -0.0000      0.0000      0.0000
        77        -0.0000      0.0001     -0.0000      0.0000      0.0000
        78         0.0000     -0.0000     -0.0001      0.0000      0.0000
        79         0.0000      0.0001     -0.0000      0.0000      0.0000
        80        -0.0000      0.0000     -0.0000      0.0000      0.0000
        81        -0.0055      0.0112      0.0385      0.0016      0.0011
        82         0.0198     -0.0330      0.0124      0.0016      0.0011
        83        -0.0348     -0.0205      0.0010      0.0016      0.0011
        84         0.0163      0.0652      0.1299      0.0214      0.0147
        85        -0.0031      0.1309     -0.0653      0.0214      0.0147
        86         0.1454     -0.0045     -0.0157      0.0214      0.0147
        87        -0.0000      0.0000      0.0000      0.0000      0.0000
        88        -0.0000     -0.0000      0.0000      0.0000      0.0000
        89         0.0000     -0.0000      0.0000      0.0000      0.0000
        90        -0.0000     -0.0000      0.0000      0.0000      0.0000
        91        -0.0000      0.0000     -0.0000      0.0000      0.0000
        92         0.0000      0.0000      0.0000      0.0000      0.0000
        93         0.0000      0.0001     -0.0000      0.0000      0.0000
        94         0.0000     -0.0001     -0.0000      0.0000      0.0000
        95        -0.0315     -0.0567     -0.3384      0.1187      0.0913
        96         0.0378     -0.3383      0.0531      0.1187      0.0913
        97        -0.3410     -0.0322      0.0371      0.1187      0.0913
        98        -0.3247     -0.0562      0.0446      0.1106      0.0894
        99         0.0598     -0.3262      0.0245      0.1106      0.0894
       100        -0.0396     -0.0320     -0.3286      0.1106      0.0894
       101         0.0000      0.0001      0.0000      0.0000      0.0000
       102        -0.0000      0.0001     -0.0000      0.0000      0.0000
       103         0.0000      0.0000      0.0000      0.0000      0.0000
       104        -0.0000      0.0000      0.0001      0.0000      0.0000
       105         0.0000      0.0000      0.0001      0.0000      0.0000
       106         0.1644     -0.1768     -0.1460      0.0796      0.0662
       107        -0.2230     -0.0814     -0.1526      0.0796      0.0662
       108        -0.0534     -0.2043      0.1872      0.0796      0.0662
       109         0.0000     -0.0001      0.0000      0.0000      0.0000
       110         0.0093     -0.0056     -0.0950      0.0091      0.0085
       111        -0.0182     -0.0938      0.0038      0.0091      0.0085
       112         0.0934     -0.0177      0.0101      0.0091      0.0085
       113         0.0064     -0.0092     -0.0515      0.0028      0.0026
       114         0.0036     -0.0517      0.0096      0.0028      0.0026
       115        -0.0522     -0.0047     -0.0056      0.0028      0.0026
       116        -0.3372      0.0022      0.0098      0.1138      0.1153
       117        -0.0031     -0.3357     -0.0338      0.1138      0.1153
       118         0.0096     -0.0340      0.3355      0.1138      0.1153
       119        -0.0000      0.0000     -0.0000      0.0000      0.0000
       120        -0.0000      0.0000     -0.0000      0.0000      0.0000
       121         0.0000      0.0000      0.0000      0.0000      0.0000
       122         0.0000     -0.0000     -0.0001      0.0000      0.0000
       123        -0.0001      0.0000     -0.0000      0.0000      0.0000
       124         0.3758      0.0116     -0.2409      0.1994      0.2459
       125         0.2391     -0.0766      0.3693      0.1994      0.2460
       126        -0.0317     -0.4398     -0.0707      0.1994      0.2459
       127         0.0000      0.0000     -0.0000      0.0000      0.0000
       128         0.0000      0.0000      0.0001      0.0000      0.0000
       129         0.0000     -0.0000     -0.0001      0.0000      0.0000
       130        -0.0000     -0.0000     -0.0000      0.0000      0.0000
       131         0.0001      0.0001     -0.0000      0.0000      0.0000
       132         0.0000      0.0001     -0.0000      0.0000      0.0000
       133        -0.3286      0.0020      0.0119      0.1082      0.1423
       134        -0.0017     -0.3287      0.0101      0.1082      0.1423
       135         0.0119      0.0101      0.3285      0.1082      0.1424
       136         0.0000      0.0000     -0.0000      0.0000      0.0000
       137        -0.0000     -0.0000     -0.0000      0.0000      0.0000
       138         0.0000     -0.0001     -0.0000      0.0000      0.0000
       139         0.0000      0.0000      0.0000      0.0000      0.0000
       140         0.0000     -0.0000      0.0000      0.0000      0.0000
       141         0.0000      0.0001      0.0000      0.0000      0.0000
       142         0.0001     -0.0000     -0.0001      0.0000      0.0000
       143        -0.0000     -0.0000      0.0001      0.0000      0.0000
       144        -0.2207      0.0457      0.0134      0.0510      0.0745
       145        -0.0475     -0.2154     -0.0479      0.0510      0.0745
       146        -0.0031      0.0496     -0.2202      0.0510      0.0745
       147         0.0000      0.0000     -0.0000      0.0000      0.0000
       148         0.0000      0.0000      0.0000      0.0000      0.0000
       149         0.0000     -0.0000     -0.0000      0.0000      0.0000
       150         0.0651     -0.0035     -0.0070      0.0043      0.0070
       151         0.0046      0.0647      0.0100      0.0043      0.0070
       152        -0.0064      0.0104     -0.0645      0.0043      0.0070
       153        -0.0001      0.0000     -0.0000      0.0000      0.0000
       154        -0.0000     -0.0001     -0.0001      0.0000      0.0000
       155        -0.0000     -0.0000     -0.0001      0.0000      0.0000
       156        -0.0001     -0.0000     -0.0000      0.0000      0.0000
       157         0.0000      0.0000      0.0001      0.0000      0.0000
       158         0.0000      0.0001     -0.0000      0.0000      0.0000
       159        -0.0009     -0.0016     -0.0162      0.0003      0.0005
       160         0.0017     -0.0162      0.0014      0.0003      0.0005
       161         0.0162      0.0017     -0.0010      0.0003      0.0005
       162         0.0061      0.0069      0.0790      0.0063      0.0118
       163         0.0075     -0.0789      0.0064      0.0063      0.0118
       164         0.0789      0.0070     -0.0067      0.0063      0.0118
       165         0.0000     -0.0000      0.0000      0.0000      0.0000
       166         0.0000      0.0000      0.0000      0.0000      0.0000
       167         0.0001      0.0000     -0.0000      0.0000      0.0000
       168        -0.0741     -0.0090      0.0430      0.0074      0.0143
       169        -0.0439      0.0095     -0.0736      0.0074      0.0143
       170        -0.0029      0.0852      0.0127      0.0074      0.0143
       171         0.0010     -0.0037     -0.0166      0.0003      0.0006
       172         0.0044     -0.0160      0.0038      0.0003      0.0006
       173        -0.0164     -0.0046      0.0000      0.0003      0.0006
       174        -0.0000     -0.0000     -0.0000      0.0000      0.0000
       175         0.0000      0.0000      0.0000      0.0000      0.0000
       176         0.0000      0.0000      0.0000      0.0000      0.0000
       177        -0.0001     -0.0000      0.0001      0.0000      0.0000
       178         0.0001     -0.0000     -0.0002      0.0000      0.0000
       179        -0.0000     -0.0000     -0.0002      0.0000      0.0000
       180        -0.0000     -0.0003     -0.0001      0.0000      0.0000
       181         0.0000     -0.0001      0.0001      0.0000      0.0000
       182        -0.1727      0.0090      0.0175      0.0302      0.0663
       183        -0.0107     -0.1727     -0.0171      0.0302      0.0663
       184        -0.0165      0.0180     -0.1721      0.0302      0.0663
       185        -0.0001      0.0001     -0.0000      0.0000      0.0000
       186         0.1146     -0.0091     -0.0044      0.0132      0.0314
       187        -0.0093     -0.1144     -0.0073      0.0132      0.0314
       188        -0.0038      0.0076     -0.1147      0.0132      0.0314
 Ground to excited state transition velocity dipole moments (Au):
       state          X           Y           Z        Dip. S.      Osc.
         1        -0.0149      0.0373      0.2415      0.0600      0.1105
         2        -0.0399      0.2384     -0.0394      0.0600      0.1105
         3         0.2411      0.0418      0.0084      0.0600      0.1105
         4         0.0000      0.0000     -0.0001      0.0000      0.0000
         5         0.0000      0.0000     -0.0000      0.0000      0.0000
         6         0.0000      0.0001     -0.0000      0.0000      0.0000
         7         0.0000      0.0000      0.0000      0.0000      0.0000
         8        -0.0000      0.0001     -0.0000      0.0000      0.0000
         9        -0.0216     -0.1109     -0.2807      0.0915      0.1336
        10        -0.0856      0.2721     -0.1009      0.0915      0.1336
        11         0.2894      0.0723     -0.0509      0.0916      0.1336
        12         0.0001      0.0000      0.0000      0.0000      0.0000
        13         0.0001      0.0000     -0.0001      0.0000      0.0000
        14         0.0000      0.0000      0.0001      0.0000      0.0000
        15        -0.0000      0.0000      0.0000      0.0000      0.0000
        16         0.0000      0.0000     -0.0000      0.0000      0.0000
        17         0.0000     -0.0000      0.0000      0.0000      0.0000
        18         0.0074      0.0204      0.0777      0.0065      0.0087
        19        -0.0040     -0.0779      0.0208      0.0065      0.0087
        20         0.0802     -0.0057     -0.0061      0.0065      0.0087
        21         0.0000     -0.0001     -0.0001      0.0000      0.0000
        22         0.0001      0.0000      0.0001      0.0000      0.0000
        23         0.0000      0.0000      0.0000      0.0000      0.0000
        24        -0.0000      0.0000     -0.0000      0.0000      0.0000
        25        -0.6991     -0.0899      0.0855      0.5041      0.6305
        26        -0.0840      0.7031      0.0526      0.5041      0.6305
        27        -0.0913      0.0416     -0.7029      0.5041      0.6305
        28         0.0241     -0.0573     -0.3198      0.1061      0.1140
        29         0.0858     -0.3081      0.0617      0.1061      0.1140
        30        -0.3133     -0.0887     -0.0077      0.1061      0.1139
        31        -0.0000      0.0000      0.0000      0.0000      0.0000
        32         0.0082     -0.0203     -0.1325      0.0180      0.0179
        33         0.0188     -0.1312      0.0213      0.0180      0.0179
        34        -0.1327     -0.0199     -0.0052      0.0180      0.0179
        35         0.0001      0.0001      0.0001      0.0000      0.0000
        36         0.0001      0.0001     -0.0001      0.0000      0.0000
        37         0.0001     -0.0000      0.0000      0.0000      0.0000
        38        -0.0001      0.0000      0.0000      0.0000      0.0000
        39        -0.0001      0.0004     -0.0001      0.0000      0.0000
        40         0.0000      0.0001     -0.0000      0.0000      0.0000
        41         0.1962      0.0068     -0.0002      0.0385      0.0376
        42        -0.0068      0.1953     -0.0180      0.0385      0.0376
        43         0.0004     -0.0180     -0.1954      0.0385      0.0376
        44         0.0000     -0.0000     -0.0001      0.0000      0.0000
        45         0.0000     -0.0000     -0.0000      0.0000      0.0000
        46        -0.0000      0.0000      0.0000      0.0000      0.0000
        47        -0.0000     -0.0000     -0.0000      0.0000      0.0000
        48         0.0000      0.0000     -0.0000      0.0000      0.0000
        49         0.0407      0.1766      0.4760      0.2594      0.2408
        50        -0.1497      0.4605     -0.1580      0.2594      0.2408
        51         0.4851      0.1273     -0.0887      0.2594      0.2408
        52         0.0001     -0.0005     -0.0000      0.0000      0.0000
        53         0.0086     -0.0280     -0.0209      0.0013      0.0012
        54         0.0274     -0.0080      0.0220      0.0013      0.0012
        55        -0.0218     -0.0212      0.0194      0.0013      0.0012
        56        -0.0000      0.0001      0.0000      0.0000      0.0000
        57        -0.0000      0.0001      0.0001      0.0000      0.0000
        58         0.0000      0.0000     -0.0001      0.0000      0.0000
        59         0.0079      0.0624      0.1540      0.0277      0.0244
        60        -0.0071     -0.1539      0.0627      0.0277      0.0244
        61        -0.1660      0.0096      0.0046      0.0277      0.0244
        62         0.0003      0.0007     -0.0002      0.0000      0.0000
        63        -0.0005      0.0021     -0.0003      0.0000      0.0000
        64        -0.1081     -0.0553      0.0403      0.0164      0.0142
        65        -0.0055      0.0821      0.0980      0.0164      0.0143
        66        -0.0682      0.0810     -0.0718      0.0164      0.0142
        67         0.0000     -0.0000      0.0000      0.0000      0.0000
        68        -0.0000     -0.0000     -0.0000      0.0000      0.0000
        69        -0.0000      0.0001      0.0000      0.0000      0.0000
        70         0.0001     -0.0000      0.0001      0.0000      0.0000
        71        -0.0001      0.0000     -0.0000      0.0000      0.0000
        72        -0.0000      0.0000     -0.0000      0.0000      0.0000
        73         0.6542      0.1494     -0.2774      0.5272      0.4189
        74         0.3143     -0.2660      0.5980      0.5272      0.4189
        75         0.0214     -0.6589     -0.3043      0.5272      0.4189
        76         0.0000     -0.0000      0.0000      0.0000      0.0000
        77         0.0000     -0.0001      0.0000      0.0000      0.0000
        78        -0.0000      0.0000      0.0000      0.0000      0.0000
        79        -0.0000     -0.0001      0.0000      0.0000      0.0000
        80         0.0000     -0.0000      0.0000      0.0000      0.0000
        81        -0.0006      0.0013      0.0044      0.0000      0.0000
        82         0.0023     -0.0038      0.0014      0.0000      0.0000
        83        -0.0040     -0.0024      0.0002      0.0000      0.0000
        84        -0.0138     -0.0553     -0.1101      0.0154      0.0099
        85         0.0026     -0.1109      0.0553      0.0154      0.0099
        86        -0.1232      0.0038      0.0133      0.0154      0.0099
        87         0.0000     -0.0001     -0.0000      0.0000      0.0000
        88         0.0000      0.0000     -0.0000      0.0000      0.0000
        89        -0.0000      0.0000     -0.0000      0.0000      0.0000
        90        -0.0000      0.0000     -0.0000      0.0000      0.0000
        91         0.0000     -0.0000      0.0000      0.0000      0.0000
        92        -0.0000     -0.0000     -0.0000      0.0000      0.0000
        93        -0.0000     -0.0001      0.0000      0.0000      0.0000
        94        -0.0000      0.0001      0.0000      0.0000      0.0000
        95         0.0364      0.0655      0.3910      0.1585      0.0916
        96        -0.0437      0.3910     -0.0614      0.1585      0.0916
        97         0.3941      0.0373     -0.0428      0.1586      0.0916
        98         0.4249      0.0736     -0.0583      0.1894      0.1041
        99        -0.0783      0.4268     -0.0320      0.1894      0.1041
       100         0.0518      0.0418      0.4301      0.1894      0.1041
       101        -0.0000     -0.0001     -0.0000      0.0000      0.0000
       102         0.0000     -0.0001      0.0000      0.0000      0.0000
       103        -0.0000     -0.0000     -0.0000      0.0000      0.0000
       104         0.0000     -0.0000     -0.0001      0.0000      0.0000
       105        -0.0000     -0.0000     -0.0001      0.0000      0.0000
       106        -0.1815      0.1951      0.1612      0.0970      0.0518
       107         0.2461      0.0898      0.1684      0.0970      0.0518
       108         0.0590      0.2255     -0.2066      0.0970      0.0518
       109        -0.0001      0.0001     -0.0000      0.0000      0.0000
       110        -0.0126      0.0076      0.1296      0.0170      0.0081
       111         0.0249      0.1279     -0.0051      0.0170      0.0081
       112        -0.1274      0.0242     -0.0138      0.0170      0.0081
       113        -0.0151      0.0218      0.1226      0.0157      0.0073
       114        -0.0085      0.1230     -0.0229      0.0157      0.0073
       115         0.1242      0.0111      0.0133      0.0157      0.0073
       116         0.5664     -0.0036     -0.0164      0.3211      0.1409
       117         0.0052      0.5637      0.0568      0.3211      0.1409
       118        -0.0160      0.0570     -0.5635      0.3211      0.1409
       119         0.0000     -0.0001      0.0000      0.0000      0.0000
       120         0.0000     -0.0000      0.0000      0.0000      0.0000
       121        -0.0001     -0.0001     -0.0000      0.0000      0.0000
       122        -0.0001      0.0000      0.0001      0.0000      0.0000
       123         0.0001     -0.0000      0.0000      0.0000      0.0000
       124        -0.5789     -0.0179      0.3711      0.4731      0.1705
       125        -0.3683      0.1180     -0.5688      0.4731      0.1705
       126         0.0488      0.6774      0.1088      0.4731      0.1705
       127        -0.0001     -0.0000      0.0001      0.0000      0.0000
       128        -0.0000     -0.0001     -0.0001      0.0000      0.0000
       129         0.0000      0.0000      0.0002      0.0000      0.0000
       130         0.0000      0.0000      0.0000      0.0000      0.0000
       131        -0.0001     -0.0002      0.0001      0.0000      0.0000
       132        -0.0001     -0.0002      0.0000      0.0000      0.0000
       133         0.5390     -0.0034     -0.0196      0.2909      0.0982
       134         0.0029      0.5391     -0.0166      0.2909      0.0982
       135        -0.0195     -0.0165     -0.5388      0.2909      0.0983
       136        -0.0000     -0.0000      0.0000      0.0000      0.0000
       137         0.0000      0.0000      0.0000      0.0000      0.0000
       138        -0.0000      0.0001      0.0000      0.0000      0.0000
       139        -0.0000     -0.0000     -0.0000      0.0000      0.0000
       140        -0.0000      0.0001     -0.0000      0.0000      0.0000
       141        -0.0000     -0.0002      0.0000      0.0000      0.0000
       142        -0.0001      0.0000      0.0001      0.0000      0.0000
       143         0.0000      0.0000     -0.0001      0.0000      0.0000
       144         0.4116     -0.0852     -0.0250      0.1773      0.0539
       145         0.0885      0.4018      0.0893      0.1772      0.0539
       146         0.0057     -0.0926      0.4107      0.1773      0.0539
       147        -0.0000     -0.0000      0.0000      0.0000      0.0000
       148         0.0000     -0.0000     -0.0000      0.0000      0.0000
       149        -0.0000      0.0000      0.0000      0.0000      0.0000
       150        -0.0863      0.0044      0.0092      0.0075      0.0021
       151        -0.0059     -0.0857     -0.0132      0.0076      0.0021
       152         0.0085     -0.0137      0.0854      0.0076      0.0021
       153         0.0003     -0.0001      0.0000      0.0000      0.0000
       154         0.0001      0.0002      0.0002      0.0000      0.0000
       155         0.0000      0.0000      0.0002      0.0000      0.0000
       156         0.0003      0.0001      0.0001      0.0000      0.0000
       157        -0.0001     -0.0000     -0.0002      0.0000      0.0000
       158        -0.0000     -0.0003      0.0001      0.0000      0.0000
       159         0.0043      0.0078      0.0800      0.0065      0.0017
       160        -0.0085      0.0796     -0.0073      0.0065      0.0017
       161        -0.0798     -0.0083      0.0049      0.0065      0.0017
       162        -0.0125     -0.0141     -0.1609      0.0263      0.0062
       163        -0.0152      0.1608     -0.0130      0.0263      0.0062
       164        -0.1608     -0.0142      0.0138      0.0263      0.0062
       165        -0.0000      0.0001     -0.0000      0.0000      0.0000
       166        -0.0001     -0.0000     -0.0000      0.0000      0.0000
       167        -0.0002     -0.0000      0.0001      0.0000      0.0000
       168         0.2164      0.0262     -0.1256      0.0633      0.0146
       169         0.1281     -0.0277      0.2148      0.0633      0.0146
       170         0.0086     -0.2487     -0.0371      0.0633      0.0146
       171         0.0007     -0.0026     -0.0114      0.0001      0.0000
       172         0.0031     -0.0110      0.0027      0.0001      0.0000
       173        -0.0113     -0.0031      0.0001      0.0001      0.0000
       174         0.0000      0.0000      0.0000      0.0000      0.0000
       175        -0.0000     -0.0000     -0.0000      0.0000      0.0000
       176        -0.0000     -0.0000     -0.0000      0.0000      0.0000
       177         0.0004      0.0000     -0.0002      0.0000      0.0000
       178        -0.0004      0.0000      0.0006      0.0000      0.0000
       179         0.0000      0.0001      0.0006      0.0000      0.0000
       180         0.0001      0.0008      0.0003      0.0000      0.0000
       181        -0.0001      0.0002     -0.0002      0.0000      0.0000
       182         0.4688     -0.0245     -0.0475      0.2226      0.0451
       183         0.0290      0.4685      0.0465      0.2225      0.0451
       184         0.0446     -0.0488      0.4671      0.2225      0.0451
       185         0.0002     -0.0003      0.0001      0.0000      0.0000
       186        -0.3214      0.0256      0.0123      0.1041      0.0195
       187         0.0262      0.3209      0.0205      0.1041      0.0195
       188         0.0106     -0.0214      0.3217      0.1041      0.0195
 Ground to excited state transition magnetic dipole moments (Au):
       state          X           Y           Z
         1         0.0000     -0.0000      0.0000
         2         0.0000     -0.0000      0.0000
         3        -0.0000      0.0000     -0.0000
         4         0.4292      0.1909      0.0007
         5         0.1852     -0.4166      0.1131
         6        -0.0465      0.1030      0.4559
         7        -0.0001      0.0004     -0.0000
         8        -0.0000     -0.0002      0.0000
         9        -0.0001      0.0000      0.0000
        10        -0.0000     -0.0001      0.0000
        11         0.0000      0.0001     -0.0001
        12        -0.7584     -0.0532     -0.0691
        13         0.0429     -0.7542      0.1101
        14        -0.0759      0.1055      0.7523
        15         0.0000      0.0002     -0.0001
        16        -0.0002      0.0008     -0.0001
        17         0.0001      0.0003     -0.0000
        18         0.0002      0.0001     -0.0000
        19         0.0001      0.0000      0.0001
        20         0.0000      0.0001     -0.0002
        21         0.4733      0.0930     -0.1560
        22         0.1810     -0.2065      0.4260
        23        -0.0145      0.4535      0.2260
        24         0.0000     -0.0000     -0.0000
        25        -0.0000      0.0000      0.0000
        26         0.0000     -0.0000      0.0000
        27        -0.0000     -0.0000      0.0000
        28         0.0000     -0.0000     -0.0000
        29        -0.0000      0.0000     -0.0000
        30        -0.0000      0.0000     -0.0000
        31         0.0000      0.0000     -0.0000
        32        -0.0000     -0.0001      0.0000
        33         0.0001      0.0000     -0.0000
        34         0.0000      0.0001      0.0000
        35         0.0227      0.0429      0.2051
        36         0.0242     -0.2055      0.0404
        37         0.2081      0.0192     -0.0272
        38        -0.0001      0.0007      0.0001
        39         0.0000     -0.0001      0.0001
        40        -0.0000      0.0003     -0.0000
        41        -0.0001      0.0000     -0.0001
        42        -0.0000      0.0001     -0.0000
        43        -0.0001      0.0002     -0.0000
        44         0.3970      0.1920      0.0016
        45         0.1874     -0.3881      0.0937
        46         0.0423     -0.0837     -0.4310
        47         0.0001     -0.0004     -0.0001
        48        -0.0000     -0.0002      0.0000
        49         0.0000      0.0000     -0.0001
        50        -0.0000      0.0001     -0.0000
        51         0.0000      0.0001     -0.0000
        52         0.0000      0.0000     -0.0001
        53         0.0000     -0.0000     -0.0000
        54         0.0000     -0.0000     -0.0000
        55        -0.0000     -0.0001     -0.0000
        56        -0.1843     -0.0144      0.0074
        57        -0.0158      0.1794     -0.0425
        58        -0.0038     -0.0430     -0.1800
        59         0.0001     -0.0001     -0.0000
        60        -0.0000     -0.0000      0.0000
        61        -0.0001     -0.0001     -0.0000
        62        -0.0001     -0.0000     -0.0000
        63         0.0001     -0.0001      0.0001
        64         0.0000      0.0000     -0.0000
        65        -0.0000      0.0000      0.0000
        66         0.0000     -0.0000     -0.0000
        67         0.0000      0.0000      0.0000
        68         0.0000      0.0000      0.0000
        69         0.0000     -0.0000      0.0001
        70        -0.4290     -0.0923      0.1447
        71        -0.1710      0.1987     -0.3803
        72         0.0137     -0.4067     -0.2186
        73        -0.0001      0.0000     -0.0000
        74        -0.0000     -0.0000     -0.0001
        75        -0.0002      0.0001      0.0001
        76         0.0000     -0.0000      0.0000
        77        -0.0207     -0.0044     -0.1909
        78         0.0003      0.1920     -0.0045
        79        -0.1909      0.0008      0.0207
        80         0.0000     -0.0000      0.0000
        81         0.0000     -0.0000     -0.0000
        82        -0.0000      0.0000      0.0000
        83         0.0000     -0.0000      0.0000
        84         0.0000     -0.0000      0.0000
        85         0.0000     -0.0000      0.0000
        86        -0.0000     -0.0000      0.0000
        87        -0.0000     -0.0000     -0.0000
        88        -0.0000     -0.0000      0.0001
        89         0.4486      0.2343      0.0183
        90         0.2301     -0.4458      0.0691
        91        -0.0482      0.0528      0.5013
        92         0.0001     -0.0001     -0.0001
        93        -0.0001     -0.0000      0.0000
        94        -0.0001      0.0001     -0.0001
        95        -0.0000     -0.0000     -0.0002
        96        -0.0001      0.0001     -0.0000
        97         0.0001      0.0000     -0.0000
        98         0.0000      0.0000     -0.0000
        99         0.0000      0.0000      0.0001
       100        -0.0000      0.0000     -0.0001
       101        -0.0000      0.0005     -0.0001
       102         0.0001     -0.0003     -0.0000
       103         0.0198     -0.1259      0.1452
       104        -0.1054     -0.1291     -0.0976
       105        -0.1607      0.0692      0.0819
       106        -0.0001     -0.0000     -0.0002
       107        -0.0000     -0.0001      0.0000
       108        -0.0001      0.0000     -0.0000
       109        -0.0002     -0.0001      0.0001
       110         0.0000     -0.0000      0.0000
       111        -0.0001      0.0000      0.0000
       112         0.0000     -0.0000     -0.0000
       113         0.0000      0.0000      0.0000
       114         0.0000      0.0000      0.0000
       115        -0.0000     -0.0000     -0.0000
       116         0.0000     -0.0000      0.0000
       117         0.0000      0.0000     -0.0000
       118        -0.0000      0.0000     -0.0000
       119         0.0001      0.0001     -0.0001
       120         0.0001      0.0000     -0.0000
       121         0.3752      0.3531     -0.0605
       122        -0.3478      0.3378     -0.1845
       123        -0.0861      0.1741      0.4810
       124         0.0001     -0.0000      0.0001
       125         0.0000      0.0000      0.0001
       126         0.0001     -0.0000     -0.0001
       127         0.0258     -0.0954     -0.0002
       128        -0.0299     -0.0378     -0.4805
       129         0.0629      0.4684     -0.0419
       130         0.4771     -0.0588     -0.0245
       131        -0.0003      0.0002     -0.0005
       132         0.0001      0.0005      0.0001
       133         0.0000      0.0002     -0.0001
       134        -0.0003     -0.0002     -0.0002
       135         0.0000     -0.0000      0.0002
       136        -0.0000      0.0001      0.0000
       137         0.0000     -0.0001      0.0001
       138         0.0003     -0.0006     -0.0000
       139        -0.0002     -0.0001     -0.0002
       140         0.0001      0.0000     -0.0002
       141         0.0233      0.2189     -0.2862
       142        -0.1319     -0.2618     -0.2111
       143         0.3354     -0.1182     -0.0630
       144        -0.0002     -0.0001     -0.0001
       145         0.0000     -0.0000     -0.0003
       146         0.0002     -0.0003     -0.0000
       147        -0.0567     -0.0157     -0.5708
       148         0.0413      0.5720     -0.0198
       149        -0.5695      0.0431      0.0554
       150        -0.0000     -0.0000     -0.0000
       151         0.0000      0.0000     -0.0000
       152        -0.0000     -0.0000     -0.0000
       153        -0.4842     -0.0501      0.0340
       154        -0.0532      0.4831     -0.0433
       155         0.0290      0.0468      0.4849
       156        -0.0002      0.0002      0.0002
       157         0.0002     -0.0013     -0.0000
       158        -0.0003     -0.0007      0.0004
       159         0.0002      0.0001     -0.0001
       160         0.0002      0.0001      0.0001
       161         0.0000     -0.0000      0.0003
       162        -0.0000      0.0000      0.0000
       163         0.0000     -0.0000      0.0000
       164         0.0000      0.0000      0.0000
       165         0.1783      0.2040      0.0098
       166        -0.2000      0.1771     -0.0456
       167        -0.0408      0.0227      0.2668
       168         0.0002      0.0002      0.0003
       169         0.0001      0.0001      0.0004
       170         0.0000     -0.0003     -0.0001
       171        -0.0000     -0.0000     -0.0000
       172        -0.0000     -0.0000     -0.0000
       173        -0.0000     -0.0000     -0.0000
       174        -0.0000      0.0000      0.0000
       175        -0.0000      0.0000     -0.0000
       176        -0.0001     -0.0001      0.0001
       177         0.0006     -0.0010      0.0086
       178        -0.0013     -0.0086     -0.0009
       179        -0.0086      0.0013      0.0008
       180         0.0000      0.0000      0.0002
       181        -0.0002     -0.0000      0.0002
       182         0.0002     -0.0000      0.0001
       183        -0.0002     -0.0001     -0.0002
       184         0.0001     -0.0001     -0.0000
       185         0.0003      0.0002     -0.0003
       186        -0.0000     -0.0000     -0.0000
       187        -0.0000     -0.0000     -0.0000
       188         0.0000     -0.0000     -0.0000
 Ground to excited state transition velocity quadrupole moments (Au):
       state          XX          YY          ZZ          XY          XZ          YZ
         1         0.0326     -0.0296     -0.0031     -0.0235      0.0347     -0.1843
         2         0.1786      0.0112     -0.1898      0.0419     -0.0295      0.0056
         3        -0.0759      0.0679      0.0080      0.1739     -0.0019     -0.0347
         4         0.0001      0.0000      0.0001     -0.0002     -0.0000      0.0003
         5         0.0001     -0.0001      0.0001     -0.0000      0.0002     -0.0000
         6         0.0001     -0.0002      0.0002      0.0001      0.0001     -0.0001
         7        -0.0133      0.0826     -0.0693     -0.0095      0.1893      0.0296
         8        -0.1078      0.2087     -0.1009     -0.0686     -0.0667     -0.0292
         9        -0.2544      0.0713      0.1832     -0.0672     -0.1291      0.8601
        10         0.8418      0.0318     -0.8735      0.0993     -0.1631      0.1995
        11        -0.2905      0.3438     -0.0534      0.8408     -0.0538      0.0061
        12        -0.0001      0.0001      0.0001     -0.0001      0.0001     -0.0000
        13        -0.0001     -0.0002      0.0001     -0.0002     -0.0010     -0.0002
        14         0.0001      0.0000      0.0000      0.0000      0.0000      0.0001
        15        -0.3157     -0.3161     -0.3155      0.0001     -0.0002     -0.0000
        16         0.0543     -0.3593      0.3053      0.0390     -0.8535     -0.1347
        17        -0.4862      0.9417     -0.4558     -0.3085     -0.2888     -0.1299
        18        -0.0009      0.0006      0.0004     -0.0003     -0.0008      0.0049
        19         0.0041      0.0006     -0.0048      0.0021     -0.0008      0.0004
        20         0.0031     -0.0019     -0.0013     -0.0042     -0.0000      0.0003
        21         0.0001     -0.0000     -0.0001      0.0001      0.0000      0.0001
        22        -0.0000      0.0000      0.0001      0.0000      0.0000      0.0000
        23         0.0000      0.0000     -0.0001      0.0000     -0.0001      0.0000
        24         1.1124      1.1123      1.1123     -0.0000      0.0000      0.0000
        25        -0.0653      0.0562      0.0092      0.1369     -0.0054     -0.0039
        26        -0.1386     -0.0059      0.1447     -0.0352      0.0162      0.0306
        27        -0.0176     -0.0163      0.0339     -0.0048      0.0314     -0.1438
        28        -0.1479      0.1164      0.0314      0.0932     -0.1325      0.7171
        29        -0.7206     -0.0189      0.7392     -0.0939      0.1175     -0.0550
        30         0.2206     -0.2675      0.0469     -0.6917      0.0185      0.1367
        31         0.7812      0.7812      0.7811     -0.0000      0.0000      0.0000
        32         0.0206     -0.0189     -0.0018     -0.0149      0.0221     -0.1169
        33         0.1121      0.0080     -0.1200      0.0291     -0.0187      0.0029
        34        -0.0507      0.0428      0.0078      0.1094     -0.0007     -0.0221
        35         0.0004     -0.0002     -0.0002     -0.0007      0.0002      0.0002
        36        -0.0005     -0.0001      0.0006     -0.0003     -0.0019     -0.0005
        37        -0.0000     -0.0003      0.0003     -0.0001     -0.0001     -0.0001
        38        -0.0010      0.0015     -0.0005     -0.0007     -0.0021     -0.0006
        39         0.6081     -1.2206      0.6125      0.3878      0.2298      0.1404
        40        -0.0059     -0.3038      0.3098      0.0015     -1.1006     -0.1864
        41         0.5986     -0.4044     -0.1943     -1.0062      0.0005      0.1470
        42        -1.0105     -0.1067      1.1173     -0.3776      0.1633      0.0644
        43         0.0968     -0.1608      0.0640     -0.1073      0.2189     -1.1111
        44        -0.0001      0.0001     -0.0001     -0.0000     -0.0002     -0.0001
        45         0.0002      0.0002     -0.0002      0.0000      0.0006      0.0002
        46        -0.0001      0.0001     -0.0001     -0.0000     -0.0000     -0.0001
        47         0.0427     -0.2684      0.2258      0.0304     -0.6212     -0.0975
        48        -0.3544      0.6852     -0.3308     -0.2250     -0.2163     -0.0956
        49         0.0000     -0.0002     -0.0000     -0.0001     -0.0001      0.0001
        50        -0.0002     -0.0003     -0.0000     -0.0000      0.0000     -0.0000
        51        -0.0000     -0.0000      0.0001     -0.0000     -0.0001     -0.0001
        52        -0.2469     -0.2467     -0.2467      0.0000     -0.0000      0.0001
        53         0.6145     -0.0738     -0.5408     -0.0060      0.0154     -0.4891
        54         0.4631     -0.1164     -0.3467     -0.3832     -0.1180      0.4924
        55         0.1309      0.2633     -0.3942      0.6047     -0.1365      0.2686
        56         0.0000     -0.0001      0.0000      0.0002      0.0003     -0.0003
        57         0.0003      0.0000     -0.0003      0.0002      0.0000     -0.0002
        58        -0.0001      0.0003     -0.0001      0.0002     -0.0000     -0.0002
        59         0.2094     -0.0620     -0.1476      0.0402      0.0972     -0.6510
        60        -0.5366     -0.0967      0.6336     -0.2826      0.1318     -0.1512
        61         0.4136     -0.2406     -0.1731     -0.5796     -0.0022      0.0616
        62        -0.0176      0.2738     -0.2562     -0.0147      0.8095      0.1335
        63        -0.4461      0.8965     -0.4504     -0.2872     -0.2145     -0.1117
        64        -0.1057      0.4309     -0.3252      1.0387     -0.1283      0.1491
        65        -0.6569      0.0779      0.5792     -0.1030     -0.0852      0.9297
        66        -0.9469      0.0485      0.8984      0.1922      0.2200     -0.5749
        67        -0.6016      1.1953     -0.5937     -0.3824     -0.2551     -0.1435
        68         0.0100     -0.3314      0.3212      0.0120     -1.0790     -0.1800
        69        -0.7762     -0.7761     -0.7759     -0.0000     -0.0000      0.0000
        70        -0.0000      0.0000     -0.0000     -0.0000     -0.0000      0.0000
        71        -0.0001      0.0000     -0.0000     -0.0001     -0.0001     -0.0000
        72         0.0001     -0.0000      0.0000      0.0000     -0.0000     -0.0000
        73         0.0357     -0.0435      0.0078     -0.1000      0.0110     -0.0249
        74         0.0614      0.0007     -0.0621     -0.0160     -0.0238      0.0878
        75         0.0893      0.0013     -0.0908      0.0266     -0.0030     -0.0593
        76        -0.6311     -0.6310     -0.6310     -0.0000     -0.0001     -0.0000
        77         0.0000      0.0001     -0.0001      0.0000     -0.0001      0.0000
        78        -0.0001     -0.0000     -0.0001     -0.0001      0.0000      0.0001
        79         0.0000      0.0001     -0.0001      0.0000     -0.0000      0.0000
        80        -0.8790     -0.8789     -0.8788     -0.0000     -0.0000     -0.0000
        81        -0.1953      0.1000      0.0953      0.0848     -0.0972      0.5757
        82         0.5991     -0.0300     -0.5692     -0.0618     -0.1019      0.1432
        83        -0.0227      0.2161     -0.1934      0.5687     -0.0395     -0.0970
        84        -0.0119      0.0020      0.0099     -0.0052     -0.0046      0.0340
        85        -0.0287     -0.0050      0.0337     -0.0128      0.0075     -0.0107
        86         0.0211     -0.0131     -0.0080     -0.0314      0.0005      0.0006
        87         0.2248     -0.5072      0.2823      0.1441     -0.1146      0.0182
        88         0.1128     -0.1089     -0.0040      0.0697      0.4492      0.0945
        89        -0.0001     -0.0002      0.0002      0.0000      0.0000     -0.0000
        90         0.0002     -0.0001      0.0001     -0.0002      0.0001      0.0000
        91        -0.0000     -0.0003      0.0002      0.0000     -0.0001      0.0001
        92        -0.0674      0.4516     -0.3843     -0.0486      1.0778      0.1703
        93        -0.6136      1.1892     -0.5757     -0.3894     -0.3627     -0.1636
        94         0.8033      0.8035      0.8034     -0.0000      0.0001     -0.0000
        95         0.0092     -0.0096      0.0003      0.0014      0.0170     -0.0929
        96         0.0863      0.0071     -0.0940      0.0254     -0.0145      0.0015
        97        -0.0443      0.0353      0.0092      0.0859     -0.0027     -0.0032
        98        -0.1167      0.1121      0.0047      0.2745     -0.0130     -0.0054
        99         0.2824      0.0119     -0.2946      0.0583     -0.0410     -0.0159
       100         0.0065     -0.0288      0.0223      0.0042      0.0565     -0.2912
       101        -0.0454      0.2397     -0.1942     -0.0317      0.5006      0.0768
[...]
      8  -0.215145D-04 -0.405907D-04  0.752399D-05 -0.116854D-03 -0.554564D-04
      9  -0.140297D-04  0.328218D-04  0.218948D-04  0.474967D-04  0.328813D-04
     10  -0.208641D-04  0.352013D-04  0.168454D-04  0.693039D-04  0.000000D+00
     11   0.582560D-01 -0.943526D-01 -0.112036D-01  0.814691D+00  0.974016D+00
     12  -0.353709D-01 -0.727992D-02 -0.184227D-01  0.814752D+00  0.974054D+00
     13  -0.228877D-01  0.101564D+00  0.296823D-01  0.814833D+00  0.974023D+00
     14   0.957900D-01  0.360134D-01  0.144854D-01  0.413376D-04  0.279291D-05
     15   0.142622D-02  0.120544D-01  0.221208D-01 -0.120349D-03 -0.484621D-04
     16  -0.105190D-01 -0.280671D-01  0.102437D+00  0.983433D-04  0.499263D-04
               121           122           123           124           125 
      1  -0.386445D+02 -0.386445D+02 -0.386445D+02 -0.386088D+02 -0.386088D+02
      2  -0.402461D-04 -0.331150D-04  0.511270D-04 -0.375923D+00 -0.238018D+00
      3   0.387808D-04 -0.489078D-05  0.328979D-04  0.301648D-02 -0.753663D-01
      4  -0.237233D-04  0.615581D-04  0.270422D-04  0.241031D+00 -0.370277D+00
      5   0.726807D-04  0.502370D-04 -0.682002D-04  0.579021D+00  0.366607D+00
      6  -0.772140D-04  0.424013D-05 -0.440518D-04 -0.464791D-02  0.116084D+00
      7   0.298129D-04 -0.104316D-03 -0.436697D-04 -0.371242D+00  0.570325D+00
      8  -0.380344D+00  0.342815D+00  0.834175D-01 -0.626891D-04 -0.241552D-05
      9   0.346740D+00  0.340525D+00  0.181461D+00 -0.277384D-04  0.415725D-04
     10   0.649853D-01  0.188791D+00 -0.478735D+00 -0.657208D-04 -0.909098D-04
     11  -0.591111D-04  0.150978D-03 -0.239270D-03 -0.799723D-02 -0.797076D-02
     12   0.447671D-04 -0.100471D-03 -0.461020D-04  0.679306D-02  0.334341D-03
     13   0.281128D-04 -0.113021D-04  0.273837D-03  0.121792D-02  0.765725D-02
     14   0.144669D-03  0.605661D-04  0.237714D-03 -0.154025D-01 -0.582050D-02
     15  -0.247578D-04 -0.309610D-04  0.216227D-04 -0.212218D-02  0.327448D-02
     16  -0.262410D-03 -0.122180D-03 -0.150720D-03 -0.754821D-02  0.157519D-01
               126           127           128           129           130 
      1  -0.386088D+02 -0.385073D+02 -0.385073D+02 -0.385073D+02 -0.385073D+02
      2   0.381544D-01 -0.378724D-04 -0.104847D-04 -0.286960D-05  0.388211D-05
      3  -0.440145D+00  0.000000D+00  0.436471D-04 -0.150371D-04 -0.272416D-04
      4   0.650284D-01  0.456207D-04 -0.625912D-04  0.760507D-04  0.845765D-05
      5  -0.587524D-01  0.725028D-04  0.167324D-04 -0.543771D-05 -0.817851D-05
      6   0.677930D+00 -0.607693D-05 -0.812686D-04  0.338714D-04  0.461654D-04
      7  -0.100152D+00 -0.100577D-03  0.105680D-03 -0.150661D-03 -0.667721D-05
      8  -0.544017D-04 -0.244207D-01  0.305045D-01 -0.697824D-01 -0.476157D+00
      9  -0.161224D-04 -0.957761D-01 -0.435557D-01  0.466820D+00 -0.660615D-01
     10   0.570918D-04 -0.975448D-03  0.480013D+00  0.479197D-01  0.237215D-01
     11  -0.155396D-01 -0.839530D-04 -0.140461D-03  0.423767D-03 -0.436181D-04
     12  -0.150678D-02  0.325232D-05 -0.592730D-04 -0.220308D-03 -0.209725D-03
     13   0.170889D-01  0.425558D-04  0.295275D-03 -0.196239D-03  0.331289D-03
     14   0.707576D-02 -0.176577D-03  0.451651D-04  0.150191D-03  0.233773D-03
     15   0.194422D-02 -0.976047D-04 -0.397248D-03  0.620492D-03 -0.146720D-03
     16  -0.572671D-02  0.168160D-03 -0.204197D-03  0.500196D-04 -0.226951D-03
               131           132           133           134           135 
      1  -0.384941D+02 -0.384941D+02 -0.384848D+02 -0.384848D+02 -0.384848D+02
      2  -0.714665D-04 -0.366765D-04  0.328581D+00  0.653744D-02 -0.121004D-01
      3   0.100701D-03  0.107801D-03  0.700404D-02 -0.328505D+00  0.141178D-01
      4   0.293156D-04  0.251554D-04 -0.118683D-01 -0.143418D-01 -0.328368D+00
      5   0.129892D-03  0.689805D-04 -0.538869D+00 -0.107690D-01  0.198639D-01
      6  -0.160025D-03 -0.192412D-03 -0.115208D-01  0.538748D+00 -0.231438D-01
      7  -0.691510D-04 -0.220349D-04  0.194999D-01  0.234955D-01  0.538520D+00
      8   0.306369D-03 -0.131842D-03 -0.323445D-05  0.265037D-03 -0.234936D-04
      9   0.192760D-03  0.467387D-03  0.201571D-03 -0.196994D-03 -0.216173D-04
     10   0.547175D-03 -0.510596D-04  0.123752D-03  0.186273D-03 -0.229143D-03
     11   0.744718D+00  0.112096D+00  0.662190D+00 -0.108669D+01  0.111783D-01
     12  -0.140970D+01 -0.604237D+00 -0.405615D+00 -0.108365D+00 -0.193941D+00
     13   0.665003D+00  0.492121D+00 -0.256576D+00  0.119503D+01  0.182718D+00
     14  -0.438656D+00 -0.499867D-01  0.109653D+01  0.428336D+00  0.102162D+00
     15   0.483271D+00 -0.127627D+01  0.179356D-01  0.170650D+00  0.231443D+00
     16  -0.223252D+00  0.162973D+00 -0.112720D+00 -0.163624D+00  0.120424D+01
               136           137           138           139           140 
      1  -0.383470D+02 -0.383470D+02 -0.383041D+02 -0.383041D+02 -0.382986D+02
      2  -0.413727D-05  0.792258D-05 -0.754943D-05 -0.177207D-04 -0.261780D-04
      3   0.235548D-04 -0.261396D-04 -0.596558D-04  0.181013D-04 -0.418676D-04
      4   0.215001D-04  0.606667D-05  0.997402D-05 -0.114712D-04 -0.938056D-05
      5   0.808823D-05 -0.142220D-04  0.129728D-04  0.427839D-04  0.482010D-04
      6  -0.466616D-04  0.456195D-04  0.133559D-03 -0.315473D-04  0.738299D-04
      7  -0.363179D-04 -0.695520D-05 -0.185042D-04  0.171020D-04  0.162573D-04
      8   0.184650D-04 -0.370936D-04 -0.307495D-03  0.221705D-03 -0.116781D-03
      9   0.109259D-03 -0.665575D-04 -0.639721D-03 -0.119287D-03  0.421083D-04
     10   0.000000D+00 -0.749898D-04  0.114794D-05  0.214965D-03  0.181012D-03
     11   0.645111D-01 -0.452961D+00  0.240616D-01  0.203504D+00 -0.489497D+00
     12  -0.360679D+00  0.859637D+00 -0.152271D+00 -0.388181D+00 -0.489570D+00
     13   0.296141D+00 -0.406679D+00  0.128886D+00  0.184757D+00 -0.489416D+00
     14  -0.283170D-01  0.266788D+00 -0.101774D-01 -0.119802D+00  0.714110D-04
     15  -0.777936D+00 -0.287804D+00 -0.350888D+00  0.120509D+00 -0.917072D-04
     16   0.100243D+00  0.134959D+00  0.462310D-01 -0.596760D-01 -0.221502D-03
               141           142           143           144           145 
      1  -0.382939D+02 -0.382939D+02 -0.382939D+02 -0.382659D+02 -0.382659D+02
      2  -0.270014D-04 -0.643208D-04  0.123968D-04  0.220001D+00  0.506212D-01
      3   0.933093D-04 -0.152444D-04 -0.831811D-05  0.490768D-01 -0.215304D+00
      4  -0.402183D-05  0.575690D-04 -0.576835D-04 -0.127892D-01  0.451423D-01
      5   0.405341D-04  0.130541D-03 -0.371186D-04 -0.410288D+00 -0.944170D-01
      6  -0.193515D-03  0.304306D-04  0.257137D-04 -0.915514D-01  0.401523D+00
      7  -0.381320D-05 -0.107432D-03  0.108562D-03  0.238487D-01 -0.841970D-01
      8  -0.264249D-01  0.135755D+00 -0.333651D+00  0.203376D-03 -0.453515D-04
      9   0.214900D+00 -0.262519D+00 -0.123882D+00 -0.116026D-03 -0.128524D-04
     10   0.288978D+00  0.207697D+00  0.614645D-01  0.679147D-04  0.307089D-03
     11   0.145812D-03 -0.350545D-04  0.124553D-03  0.634120D+00 -0.664396D+00
     12   0.228796D-03 -0.110380D-03 -0.715322D-04 -0.281529D+00 -0.983545D-01
     13  -0.404814D-03 -0.246221D-03 -0.209848D-03 -0.352881D+00  0.762906D+00
     14   0.100658D-03 -0.501938D-03 -0.199642D-03  0.731288D+00  0.438822D+00
     15   0.100249D-03  0.454120D-03  0.714957D-03 -0.630453D-02  0.791842D-01
     16   0.756603D-04 -0.317857D-03  0.105999D-03 -0.308197D-01 -0.350820D+00
               146           147           148           149           150 
      1  -0.382659D+02 -0.382264D+02 -0.382264D+02 -0.382264D+02 -0.380150D+02
      2   0.235449D-02 -0.643355D-05  0.000000D+00 -0.168595D-05 -0.650578D-01
      3   0.468460D-01  0.100697D-04  0.102691D-04 -0.732930D-05 -0.454574D-02
      4   0.220829D+00  0.444442D-05 -0.156697D-04  0.700059D-05  0.696004D-02
      5  -0.436916D-02  0.152826D-04  0.000000D+00  0.327254D-05  0.862091D-01
      6  -0.873625D-01 -0.209983D-04 -0.210576D-04  0.167147D-04  0.582181D-02
      7  -0.411839D+00 -0.121736D-04  0.295413D-04 -0.189314D-04 -0.911539D-02
      8  -0.162826D-03  0.569796D-01 -0.496850D-01  0.568808D+00  0.266006D-05
      9  -0.327282D-03 -0.221539D-01  0.571002D+00  0.521560D-01 -0.732483D-05
     10   0.299414D-04  0.570547D+00  0.271656D-01 -0.548191D-01  0.235443D-04
     11   0.181738D+00  0.434143D-04 -0.600649D-05 -0.334304D-04 -0.299182D-01
     12   0.164476D+00 -0.170254D-04  0.607552D-04 -0.648022D-04  0.174089D-01
     13  -0.346292D+00 -0.675175D-04 -0.398896D-04  0.486529D-04  0.125036D-01
     14  -0.167328D+00 -0.387628D-04  0.642348D-04 -0.249926D-04 -0.455463D-01
     15  -0.196966D+00  0.324810D-04 -0.273688D-04 -0.669342D-04 -0.115060D-02
     16  -0.825637D+00 -0.269940D-04  0.201743D-04 -0.129268D-05  0.648066D-03
               151           152           153           154           155 
      1  -0.380150D+02 -0.380150D+02 -0.379332D+02 -0.379332D+02 -0.379332D+02
      2  -0.555547D-02  0.627043D-02  0.116414D-03  0.172907D-04  0.919659D-05
      3   0.647226D-01  0.965991D-02  0.179267D-04 -0.818810D-04 -0.670465D-05
      4  -0.913027D-02  0.645867D-01  0.579696D-05  0.915215D-04  0.969855D-04
      5   0.720740D-02 -0.828347D-02 -0.282050D-03 -0.537483D-04 -0.424770D-04
      6  -0.857764D-01 -0.127480D-01 -0.574655D-04  0.201976D-03  0.682162D-05
      7   0.120552D-01 -0.855951D-01 -0.305823D-04 -0.227591D-03 -0.229497D-03
      8  -0.225393D-04  0.403525D-04  0.484891D+00  0.461124D-01 -0.297921D-01
      9   0.390307D-05 -0.541854D-05 -0.425297D-01  0.483237D+00  0.525403D-01
     10   0.195279D-04  0.485445D-04 -0.345980D-01  0.495240D-01 -0.484312D+00
     11   0.433619D-01  0.989503D-02  0.600092D-03 -0.121879D-02  0.652320D-03
     12   0.392694D-02  0.779810D-02  0.141970D-02 -0.594890D-03  0.427077D-03
     13  -0.473114D-01 -0.176975D-01  0.214807D-03  0.148946D-03 -0.219391D-03
     14  -0.195451D-01 -0.483074D-02  0.479465D-04  0.354352D-03  0.149813D-03
     15  -0.524253D-02 -0.108879D-01  0.273130D-03 -0.292533D-02  0.109475D-03
     16   0.165075D-01 -0.486935D-01 -0.481887D-04  0.807129D-03  0.681407D-04
               156           157           158           159           160 
      1  -0.379255D+02 -0.379255D+02 -0.379229D+02 -0.379116D+02 -0.379116D+02
      2   0.104935D-03 -0.402398D-04 -0.180271D-04  0.931344D-03 -0.145882D-02
      3  -0.387469D-04  0.230970D-04  0.783883D-04 -0.176182D-02 -0.161647D-01
      4   0.395694D-04 -0.877450D-04  0.478857D-04  0.162082D-01 -0.164710D-02
      5  -0.263953D-03  0.120405D-03  0.162897D-04 -0.444205D-02  0.734267D-02
      6   0.143495D-03 -0.453800D-04 -0.261570D-03  0.878879D-02  0.796471D-01
      7  -0.116849D-03  0.238422D-03 -0.115825D-03 -0.798445D-01  0.830123D-02
      8   0.165530D-03 -0.217622D-03  0.261033D-03 -0.199801D-03 -0.238562D-03
      9   0.236162D-03 -0.128911D-02 -0.682998D-03  0.798295D-04  0.102672D-03
     10  -0.152294D-03  0.143514D-04 -0.362492D-03  0.718900D-04 -0.121565D-03
     11  -0.643801D+00 -0.324785D-01 -0.323226D+00 -0.188614D-01 -0.287025D+00
     12   0.128459D+01 -0.266863D+00 -0.323854D+00  0.452421D-01 -0.204774D-01
     13  -0.640950D+00  0.299380D+00 -0.324356D+00 -0.265643D-01  0.305782D+00
     14   0.375825D+00  0.325040D-01  0.243278D-03 -0.139379D-01  0.770573D-01
     15  -0.188333D+00 -0.115217D+01  0.105398D-03 -0.544999D-01  0.456861D-01
     16   0.159681D+00  0.174700D+00  0.379530D-04 -0.302954D+00 -0.179984D-01
               161           162           163           164           165 
      1  -0.379116D+02 -0.376508D+02 -0.376507D+02 -0.376507D+02 -0.375911D+02
      2  -0.162055D-01 -0.622533D-02 -0.631763D-02 -0.790320D-01 -0.432268D-05
      3   0.143134D-02  0.786239D-02 -0.789446D-01  0.572128D-02 -0.256923D-04
      4   0.990007D-03 -0.789005D-01 -0.738591D-02  0.682090D-02 -0.835522D-05
      5   0.799215D-01  0.127299D-01  0.128836D-01  0.161014D+00  0.208370D-04
      6  -0.702885D-02 -0.160066D-01  0.160852D+00 -0.116792D-01  0.696700D-04
      7  -0.495867D-02  0.160756D+00  0.150507D-01 -0.139750D-01  0.201263D-04
      8  -0.124620D-04  0.443142D-05 -0.175528D-04 -0.166602D-04 -0.181300D+00
      9  -0.312638D-04  0.582127D-05 -0.275278D-04  0.209923D-04  0.201466D+00
     10  -0.262501D-03 -0.273687D-04 -0.149979D-05 -0.416188D-04 -0.715430D-02
     11  -0.134749D+00  0.108468D-01 -0.274824D+00 -0.133668D+00  0.349597D-04
     12   0.103908D+00 -0.411430D-01 -0.186596D-01  0.101394D+00  0.573319D-04
     13   0.298756D-01  0.302924D-01  0.293419D+00  0.322437D-01 -0.141979D-04
     14  -0.284225D+00  0.811592D-02  0.777328D-01 -0.272709D+00 -0.129676D-04
     15  -0.105542D-01  0.530703D-01  0.432107D-01 -0.107237D-01  0.402799D-04
     16   0.253751D-01  0.291779D+00 -0.213549D-01  0.174560D-01 -0.643155D-04
               166           167           168           169           170 
      1  -0.375911D+02 -0.375911D+02 -0.375713D+02 -0.375713D+02 -0.375713D+02
      2  -0.276796D-04 -0.558651D-04  0.742449D-01  0.437410D-01  0.169210D-02
      3   0.825363D-05  0.205090D-04 -0.732924D-02  0.918326D-02  0.853704D-01
      4  -0.101714D-04  0.310893D-04 -0.431343D-01  0.737115D-01 -0.116020D-01
      5   0.899037D-04  0.157778D-03 -0.216723D+00 -0.127689D+00 -0.494995D-02
      6  -0.870025D-05 -0.463158D-04  0.213938D-01 -0.268142D-01 -0.249205D+00
      7   0.327314D-04 -0.969721D-04  0.125916D+00 -0.215165D+00  0.338860D-01
      8   0.197369D+00  0.404524D-01 -0.154332D-03 -0.779810D-04 -0.362770D-04
      9   0.179388D+00  0.266904D-01  0.169971D-03  0.666587D-04 -0.258681D-03
     10   0.478857D-01 -0.266529D+00 -0.273538D-03 -0.356173D-03  0.999920D-04
     11   0.314980D-03  0.402505D-04 -0.106364D+00 -0.107147D+00 -0.259270D+00
     12  -0.516996D-04  0.297143D-04  0.108170D+00  0.255765D-02 -0.125625D-01
     13  -0.264390D-03 -0.102187D-03 -0.176524D-02  0.104619D+00  0.271894D+00
     14   0.121779D-03 -0.729563D-04 -0.250294D+00 -0.887829D-01  0.833570D-01
     15  -0.236730D-05 -0.708046D-04 -0.340482D-01  0.507937D-01  0.296073D-01
     16  -0.132401D-03 -0.233569D-03 -0.103653D+00  0.253577D+00 -0.872868D-01
               171           172           173           174           175 
      1  -0.374997D+02 -0.374997D+02 -0.374997D+02 -0.373092D+02 -0.373092D+02
      2  -0.922814D-03 -0.417509D-02  0.164513D-01  0.165194D-05 -0.575196D-05
      3  -0.390822D-02 -0.159835D-01 -0.431097D-02  0.000000D+00  0.325112D-05
      4   0.165214D-01 -0.401608D-02 -0.651665D-04  0.111390D-05 -0.146733D-04
      5  -0.682069D-03 -0.293215D-02  0.113441D-01 -0.611541D-05  0.165069D-04
      6  -0.275231D-02 -0.109984D-01 -0.290328D-02  0.244574D-05 -0.872010D-05
      7   0.113752D-01 -0.282210D-02 -0.142991D-03 -0.450665D-05  0.387238D-04
      8   0.152348D-04  0.118530D-05  0.142361D-04  0.127451D-04  0.336735D-05
      9  -0.643135D-05 -0.470531D-05 -0.123474D-04  0.259726D-04  0.233841D-05
     10   0.897350D-05  0.000000D+00  0.196804D-04 -0.116824D-05  0.177336D-04
     11   0.346781D-01  0.150006D+00 -0.427732D-01  0.169749D-01 -0.135074D+00
     12  -0.261083D-01  0.464734D-02  0.516637D-01 -0.103125D+00  0.257474D+00
     13  -0.857098D-02 -0.154658D+00 -0.889943D-02  0.861159D-01 -0.122377D+00
     14   0.154716D-01 -0.179407D-01 -0.146502D+00 -0.714871D-02  0.794982D-01
     15   0.246903D-01 -0.256552D-01 -0.685234D-02 -0.232796D+00 -0.818229D-01
     16   0.150414D+00 -0.154152D-01  0.252648D-01  0.304944D-01  0.396782D-01
               176           177           178           179           180 
      1  -0.372207D+02 -0.371775D+02 -0.371775D+02 -0.371775D+02 -0.371730D+02
      2  -0.510002D-05  0.137628D-03 -0.122537D-03  0.201253D-04  0.336869D-04
      3   0.519019D-05 -0.214016D-04 -0.596680D-05 -0.324765D-04 -0.302848D-03
      4  -0.168167D-05 -0.510040D-04  0.198002D-03  0.210794D-03  0.942212D-04
      5   0.181587D-04 -0.358880D-03  0.397322D-03 -0.487040D-04 -0.111723D-03
      6  -0.755294D-05  0.274010D-04  0.222654D-04  0.634723D-04  0.847698D-03
      7   0.971852D-05  0.152670D-03 -0.559470D-03 -0.562862D-03 -0.285202D-03
      8   0.119316D-03 -0.613688D-03  0.140943D-02  0.853956D-02 -0.163789D-04
      9  -0.668783D-04 -0.851968D-03 -0.858358D-02  0.142235D-02  0.343556D-04
     10  -0.977093D-04 -0.856907D-02  0.742994D-03 -0.765740D-03 -0.188396D-03
     11   0.930111D-01  0.167954D-03 -0.104690D-03 -0.319184D-03  0.204057D+00
     12   0.928709D-01 -0.202532D-03  0.428564D-03  0.201344D-04 -0.395842D+00
     13   0.929855D-01 -0.269896D-03 -0.442093D-03 -0.269455D-04  0.191746D+00
     14   0.120664D-03 -0.230165D-03 -0.549294D-03  0.855987D-04 -0.119838D+00
     15  -0.535881D-04  0.383931D-03  0.160667D-02 -0.525907D-03  0.101609D+00
     16   0.308407D-04 -0.674728D-04 -0.218709D-03  0.975507D-04 -0.564593D-01
               181           182           183           184           185 
      1  -0.371730D+02 -0.371685D+02 -0.371684D+02 -0.371684D+02 -0.371485D+02
      2  -0.437301D-04  0.172577D+00  0.132085D-01  0.162106D-01  0.832746D-04
      3  -0.704350D-04  0.117670D-01 -0.172685D+00  0.160288D-01  0.105129D-03
      4  -0.786194D-04 -0.173779D-01  0.149070D-01  0.172330D+00  0.281950D-04
      5   0.905598D-04 -0.468348D+00 -0.358370D-01 -0.439844D-01 -0.236292D-03
      6   0.210593D-03 -0.319672D-01  0.468631D+00 -0.435007D-01 -0.298801D-03
      7   0.213460D-03  0.471724D-01 -0.405129D-01 -0.467673D+00 -0.893931D-04
      8   0.176215D-03 -0.150893D-03  0.204141D-03 -0.847203D-04 -0.347468D-03
      9  -0.101054D-04 -0.222962D-04 -0.616576D-04 -0.128976D-03  0.202430D-03
     10  -0.237390D-03 -0.753294D-04  0.175643D-03  0.467472D-04  0.285950D-03
     11   0.137974D-01  0.153363D-01 -0.229133D-01  0.350820D-02  0.838511D-01
     12  -0.131236D+00 -0.880860D-02 -0.125880D-02  0.403502D-02  0.841658D-01
     13   0.117413D+00 -0.662712D-02  0.243381D-01 -0.760883D-02  0.839189D-01
     14  -0.348718D-02  0.232850D-01  0.102790D-01 -0.243606D-02 -0.395307D-03
     15  -0.356907D+00  0.476413D-03  0.289125D-02 -0.522746D-02  0.132251D-03
     16   0.491816D-01 -0.617322D-03 -0.700859D-02 -0.254821D-01 -0.122986D-03
               186           187           188 
      1  -0.368979D+02 -0.368979D+02 -0.368979D+02
      2  -0.114444D+00  0.110306D-01  0.369744D-02
      3  -0.108595D-01 -0.114350D+00  0.622545D-02
      4   0.426239D-02  0.585512D-02  0.114796D+00
      5   0.320978D+00 -0.309093D-01 -0.103808D-01
      6   0.304401D-01  0.320712D+00 -0.174716D-01
      7  -0.119546D-01 -0.164321D-01 -0.321958D+00
      8   0.760683D-05  0.861296D-05 -0.408287D-05
      9  -0.341428D-05  0.000000D+00 -0.436337D-05
     10   0.000000D+00  0.792868D-05  0.559926D-05
     11  -0.135528D+00 -0.189472D+00  0.167636D-01
     12   0.729441D-01 -0.215674D-01  0.376508D-01
     13   0.625902D-01  0.211046D+00 -0.544188D-01
     14  -0.195135D+00  0.907726D-01 -0.270273D-01
     15  -0.123132D-02  0.272363D-01 -0.453770D-01
     16   0.175564D-01 -0.525913D-01 -0.217016D+00
 Unable to Open any file for archive entry.
 1\1\GINC-HEL24\SP\RPW91PW91 TD-FC\Gen\C1H4\SABYASACHI\21-Mar-2022\0\\#
 P TD(Nstates=10000) pw91pw91/Gen SCF(maxcycles=100) Int(Grid=ultrafine
 )\\xGDB7_00001_tier4.com\\0,1\C,0,0.000001,0.000006,0.\H,0,0.985233,0.
 46299,-0.028035\H,0,-0.05618,-0.682943,0.846305\H,0,-0.168125,-0.55191
 1,-0.923536\H,0,-0.760937,0.771825,0.105269\\Version=EM64L-G16RevC.01\
 State=1-A\HF=-40.4587568\RMSD=6.630e-09\PG=C01 [X(C1H4)]\\@
 The archive entry for this job was punched.


 A great many people think they are thinking when they
 are merely rearranging their prejudices.
                               -- William James
 Job cpu time:       0 days  0 hours  0 minutes 52.4 seconds.
 Elapsed time:       0 days  0 hours  0 minutes  6.8 seconds.
 File lengths (MBytes):  RWF=     21 Int=      0 D2E=      0 Chk=     13 Scr=      1
 Normal termination of Gaussian 16 at Mon Mar 21 20:21:48 2022.
