 Entering Gaussian System, Link 0=g16
 Input=000012.com
 Output=000012.log
 Initial command:
 /home/sabyasachi/g16/l1.exe "/scratch/sabyasachi/PBS_7976509.helios/Gau-111268.inp" -scrdir="/scratch/sabyasachi/PBS_7976509.helios/"
 Entering Link 1 = /home/sabyasachi/g16/l1.exe PID=    111269.
  
 Copyright (c) 1988-2019, Gaussian, Inc.  All Rights Reserved.
  
 This is part of the Gaussian(R) 16 program.  It is based on
 the Gaussian(R) 09 system (copyright 2009, Gaussian, Inc.),
 the Gaussian(R) 03 system (copyright 2003, Gaussian, Inc.),
 the Gaussian(R) 98 system (copyright 1998, Gaussian, Inc.),
 the Gaussian(R) 94 system (copyright 1995, Gaussian, Inc.),
 the Gaussian 92(TM) system (copyright 1992, Gaussian, Inc.),
 the Gaussian 90(TM) system (copyright 1990, Gaussian, Inc.),
 the Gaussian 88(TM) system (copyright 1988, Gaussian, Inc.),
 the Gaussian 86(TM) system (copyright 1986, Carnegie Mellon
 University), and the Gaussian 82(TM) system (copyright 1983,
 Carnegie Mellon University). Gaussian is a federally registered
 trademark of Gaussian, Inc.
  
 This software contains proprietary and confidential information,
 including trade secrets, belonging to Gaussian, Inc.
  
 This software is provided under written license and may be
 used, copied, transmitted, or stored only in accord with that
 written license.
  
 The following legend is applicable only to US Government
 contracts under FAR:
  
                    RESTRICTED RIGHTS LEGEND
  
 Use, reproduction and disclosure by the US Government is
 subject to restrictions as set forth in subparagraphs (a)
 and (c) of the Commercial Computer Software - Restricted
 Rights clause in FAR 52.227-19.
  
 Gaussian, Inc.
 340 Quinnipiac St., Bldg. 40, Wallingford CT 06492
  
  
 ---------------------------------------------------------------
 Warning -- This program may not be used in any manner that
 competes with the business of Gaussian, Inc. or will provide
 assistance to any competitor of Gaussian, Inc.  The licensee
 of this program is prohibited from giving any competitor of
 Gaussian, Inc. access to this program.  By using this program,
 the user acknowledges that Gaussian, Inc. is engaged in the
 business of creating and licensing software in the field of
 computational chemistry and represents and warrants to the
 licensee that it is not a competitor of Gaussian, Inc. and that
 it will not use this program in any manner prohibited above.
 ---------------------------------------------------------------
  

 Cite this work as:
 Gaussian 16, Revision C.01,
 M. J. Frisch, G. W. Trucks, H. B. Schlegel, G. E. Scuseria, 
 M. A. Robb, J. R. Cheeseman, G. Scalmani, V. Barone, 
 G. A. Petersson, H. Nakatsuji, X. Li, M. Caricato, A. V. Marenich, 
 J. Bloino, B. G. Janesko, R. Gomperts, B. Mennucci, H. P. Hratchian, 
 J. V. Ortiz, A. F. Izmaylov, J. L. Sonnenberg, D. Williams-Young, 
 F. Ding, F. Lipparini, F. Egidi, J. Goings, B. Peng, A. Petrone, 
 T. Henderson, D. Ranasinghe, V. G. Zakrzewski, J. Gao, N. Rega, 
 G. Zheng, W. Liang, M. Hada, M. Ehara, K. Toyota, R. Fukuda, 
 J. Hasegawa, M. Ishida, T. Nakajima, Y. Honda, O. Kitao, H. Nakai, 
 T. Vreven, K. Throssell, J. A. Montgomery, Jr., J. E. Peralta, 
 F. Ogliaro, M. J. Bearpark, J. J. Heyd, E. N. Brothers, K. N. Kudin, 
 V. N. Staroverov, T. A. Keith, R. Kobayashi, J. Normand, 
 K. Raghavachari, A. P. Rendell, J. C. Burant, S. S. Iyengar, 
 J. Tomasi, M. Cossi, J. M. Millam, M. Klene, C. Adamo, R. Cammi, 
 J. W. Ochterski, R. L. Martin, K. Morokuma, O. Farkas, 
 J. B. Foresman, and D. J. Fox, Gaussian, Inc., Wallingford CT, 2019.
 
 ******************************************
 Gaussian 16:  EM64L-G16RevC.01  3-Jul-2019
                21-Mar-2022 
 ******************************************
 %mem=64gb
 %nproc=8
 Will use up to    8 processors via shared memory.
 ----------------------------------------------------------------------
 #P TD(Nstates=10000) pw91pw91/Gen SCF(maxcycles=100) Int(Grid=ultrafin
 e)
 ----------------------------------------------------------------------
 1/38=1,172=1/1;
 2/12=2,17=6,18=5,40=1/2;
 3/5=7,11=9,25=1,30=1,74=608,75=-5/1,2,3,8;
 4//1;
 5/5=2,7=100,38=5/2;
 8/6=1,10=1,108=10000/1;
 9/41=10000,42=1,70=2/14;
 6/7=2,8=2,9=2,10=2/1;
 99/5=1,9=1/99;
 Leave Link    1 at Mon Mar 21 04:16:13 2022, MaxMem=  8589934592 cpu:               0.3 elap:               0.1
 (Enter /home/sabyasachi/g16/l101.exe)
 ---------------------
 xGDB7_00001_tier4.com
 ---------------------
 Symbolic Z-matrix:
 Charge =  0 Multiplicity = 1
 8                     0.        0.        0.5969 
 8                     0.        0.       -0.5969 
 
 ITRead=  0  0
 MicOpt= -1 -1
 NAtoms=      2 NQM=        2 NQMF=       0 NMMI=      0 NMMIF=      0
                NMic=       0 NMicF=      0.
                    Isotopes and Nuclear Properties:
 (Nuclear quadrupole moments (NQMom) in fm**2, nuclear magnetic moments (NMagM)
  in nuclear magnetons)

  Atom         1           2
 IAtWgt=          16          16
 AtmWgt=  15.9949146  15.9949146
 NucSpn=           0           0
 AtZEff=  -0.0000000  -0.0000000
 NQMom=    0.0000000   0.0000000
 NMagM=    0.0000000   0.0000000
 AtZNuc=   8.0000000   8.0000000
 Leave Link  101 at Mon Mar 21 04:16:13 2022, MaxMem=  8589934592 cpu:               0.6 elap:               0.1
 (Enter /home/sabyasachi/g16/l202.exe)
                          Input orientation:                          
 ---------------------------------------------------------------------
 Center     Atomic      Atomic             Coordinates (Angstroms)
 Number     Number       Type             X           Y           Z
 ---------------------------------------------------------------------
      1          8           0        0.000000    0.000000    0.596896
      2          8           0        0.000000    0.000000   -0.596896
 ---------------------------------------------------------------------
 Stoichiometry    O2
 Framework group  D*H[C*(O.O)]
 Deg. of freedom     1
 Full point group                 D*H     NOp   8
 Largest Abelian subgroup         D2H     NOp   8
 Largest concise Abelian subgroup C2      NOp   2
                         Standard orientation:                         
 ---------------------------------------------------------------------
 Center     Atomic      Atomic             Coordinates (Angstroms)
 Number     Number       Type             X           Y           Z
 ---------------------------------------------------------------------
      1          8           0        0.000000    0.000000    0.596896
      2          8           0        0.000000    0.000000   -0.596896
 ---------------------------------------------------------------------
 Rotational constants (GHZ):           0.0000000          44.3412508          44.3412508
 Leave Link  202 at Mon Mar 21 04:16:14 2022, MaxMem=  8589934592 cpu:               0.1 elap:               0.0
 (Enter /home/sabyasachi/g16/l301.exe)
 General basis read from cards:  (5D, 7F)
 Centers:       1      2
 S 5 1.00
     Exponent=  2.2661767785D+03 Coefficients= -5.3431809926D-03
     Exponent=  3.4087010191D+02 Coefficients= -3.9890039230D-02
     Exponent=  7.7363135167D+01 Coefficients= -1.7853911985D-01
     Exponent=  2.1479644940D+01 Coefficients= -4.6427684959D-01
     Exponent=  6.6589433124D+00 Coefficients= -4.4309745172D-01
 S 1 1.00
     Exponent=  8.0975975668D-01 Coefficients=  1.0000000000D+00
 S 1 1.00
     Exponent=  2.5530772234D-01 Coefficients=  1.0000000000D+00
 S 1 1.00
     Exponent=  7.6572453250D-02 Coefficients=  1.0000000000D+00
 P 3 1.00
     Exponent=  1.7721504317D+01 Coefficients=  4.3394573193D-02
     Exponent=  3.8635505440D+00 Coefficients=  2.3094120765D-01
     Exponent=  1.0480920883D+00 Coefficients=  5.1375311064D-01
 P 1 1.00
     Exponent=  2.7641544411D-01 Coefficients=  1.0000000000D+00
 P 1 1.00
     Exponent=  6.9002276350D-02 Coefficients=  1.0000000000D+00
 D 1 1.00
     Exponent=  1.2000000000D+00 Coefficients=  1.0000000000D+00
 D 1 1.00
     Exponent=  1.7992024323D-01 Coefficients=  1.0000000000D+00
 ****
 Ernie: Thresh=  0.10000D-02 Tol=  0.10000D-05 Strict=F.
 There are    13 symmetry adapted cartesian basis functions of AG  symmetry.
 There are     2 symmetry adapted cartesian basis functions of B1G symmetry.
 There are     5 symmetry adapted cartesian basis functions of B2G symmetry.
 There are     5 symmetry adapted cartesian basis functions of B3G symmetry.
 There are     2 symmetry adapted cartesian basis functions of AU  symmetry.
 There are    13 symmetry adapted cartesian basis functions of B1U symmetry.
 There are     5 symmetry adapted cartesian basis functions of B2U symmetry.
 There are     5 symmetry adapted cartesian basis functions of B3U symmetry.
 There are    11 symmetry adapted basis functions of AG  symmetry.
 There are     2 symmetry adapted basis functions of B1G symmetry.
 There are     5 symmetry adapted basis functions of B2G symmetry.
 There are     5 symmetry adapted basis functions of B3G symmetry.
 There are     2 symmetry adapted basis functions of AU  symmetry.
 There are    11 symmetry adapted basis functions of B1U symmetry.
 There are     5 symmetry adapted basis functions of B2U symmetry.
 There are     5 symmetry adapted basis functions of B3U symmetry.
    46 basis functions,    70 primitive gaussians,    50 cartesian basis functions
     8 alpha electrons        8 beta electrons
       nuclear repulsion energy        28.3695497196 Hartrees.
 IExCor=  608 DFT=T Ex=PW91 Corr=PW91 ExCW=0 ScaHFX=  0.000000
 ScaDFX=  1.000000  1.000000  1.000000  1.000000 ScalE2=  1.000000  1.000000
 IRadAn=      5 IRanWt=     -1 IRanGd=            0 ICorTp=0 IEmpDi=  4
 NAtoms=    2 NActive=    2 NUniq=    1 SFac= 4.00D+00 NAtFMM=   60 NAOKFM=F Big=F
 Integral buffers will be    131072 words long.
 Regular integral format.
 Two-electron integral symmetry is turned on.
 Leave Link  301 at Mon Mar 21 04:16:14 2022, MaxMem=  8589934592 cpu:               0.5 elap:               0.1
 (Enter /home/sabyasachi/g16/l302.exe)
 NPDir=0 NMtPBC=     1 NCelOv=     1 NCel=       1 NClECP=     1 NCelD=      1
         NCelK=      1 NCelE2=     1 NClLst=     1 CellRange=     0.0.
 One-electron integrals computed using PRISM.
 One-electron integral symmetry used in STVInt
 NBasis=    46 RedAO= T EigKep=  7.94D-04  NBF=    11     2     5     5     2    11     5     5
 NBsUse=    46 1.00D-06 EigRej= -1.00D+00 NBFU=    11     2     5     5     2    11     5     5
 Precomputing XC quadrature grid using
 IXCGrd= 4 IRadAn=           5 IRanWt=          -1 IRanGd=           0 AccXCQ= 0.00D+00.
 Generated NRdTot=       0 NPtTot=           0 NUsed=           0 NTot=          32
 NSgBfM=    50    50    50    50    50 MxSgAt=     2 MxSgA2=     2.
 Leave Link  302 at Mon Mar 21 04:16:14 2022, MaxMem=  8589934592 cpu:               0.9 elap:               0.1
 (Enter /home/sabyasachi/g16/l303.exe)
 DipDrv:  MaxL=1.
 Leave Link  303 at Mon Mar 21 04:16:14 2022, MaxMem=  8589934592 cpu:               0.2 elap:               0.0
 (Enter /home/sabyasachi/g16/l308.exe)
 Leave Link  308 at Mon Mar 21 04:16:14 2022, MaxMem=  8589934592 cpu:               0.2 elap:               0.0
 (Enter /home/sabyasachi/g16/l401.exe)
 ExpMin= 6.90D-02 ExpMax= 2.27D+03 ExpMxC= 3.41D+02 IAcc=3 IRadAn=         5 AccDes= 0.00D+00
 Harris functional with IExCor=  608 and IRadAn=       5 diagonalized for initial guess.
 HarFok:  IExCor=  608 AccDes= 0.00D+00 IRadAn=         5 IDoV= 1 UseB2=F ITyADJ=14
 ICtDFT=  3500011 ScaDFX=  1.000000  1.000000  1.000000  1.000000
 FoFCou: FMM=F IPFlag=           0 FMFlag=      100000 FMFlg1=           0
         NFxFlg=           0 DoJE=T BraDBF=F KetDBF=T FulRan=T
         wScrn=  0.000000 ICntrl=       500 IOpCl=  0 I1Cent=   200000004 NGrid=           0
         NMat0=    1 NMatS0=      1 NMatT0=    0 NMatD0=    1 NMtDS0=    0 NMtDT0=    0
 Petite list used in FoFCou.
 Harris En= -150.135459740531    
 JPrj=0 DoOrth=F DoCkMO=F.
 Initial guess orbital symmetries:
       Occupied  (SGU) (SGG) (SGG) (SGU) (SGG) (PIU) (PIU) (PIG)
       Virtual   (PIG) (SGU) (SGG) (PIU) (PIU) (SGG) (PIG) (PIG)
                 (SGU) (SGU) (DLTG) (DLTG) (SGG) (PIU) (PIU) (DLTU)
                 (DLTU) (PIG) (PIG) (SGU) (PIU) (PIU) (SGG) (SGU)
                 (SGG) (PIG) (PIG) (SGU) (PIU) (PIU) (DLTG) (DLTG)
                 (DLTU) (DLTU) (SGG) (PIG) (PIG) (SGU)
 Leave Link  401 at Mon Mar 21 04:16:14 2022, MaxMem=  8589934592 cpu:               1.1 elap:               0.2
 (Enter /home/sabyasachi/g16/l502.exe)
 Keep J ints in memory in symmetry-blocked form, NReq=7572003.
 FoFCou: FMM=F IPFlag=           0 FMFlag=           0 FMFlg1=           0
         NFxFlg=           0 DoJE=F BraDBF=F KetDBF=F FulRan=T
         wScrn=  0.000000 ICntrl=       600 IOpCl=  0 I1Cent=           0 NGrid=           0
         NMat0=    1 NMatS0=   1081 NMatT0=    0 NMatD0=    1 NMtDS0=    0 NMtDT0=    0
 Petite list used in FoFCou.
 Closed shell SCF:
 Using DIIS extrapolation, IDIIS=  1040.
 NGot=  8589934592 LenX=  8589844957 LenY=  8589842016
 Requested convergence on RMS density matrix=1.00D-08 within 100 cycles.
 Requested convergence on MAX density matrix=1.00D-06.
 Requested convergence on             energy=1.00D-06.
 No special actions if energy rises.
 Integral accuracy reduced to 1.0D-05 until final iterations.

 Cycle   1  Pass 0  IDiag  1:
 E= -150.113698521922    
 DIIS: error= 1.91D-02 at cycle   1 NSaved=   1.
 NSaved= 1 IEnMin= 1 EnMin= -150.113698521922     IErMin= 1 ErrMin= 1.91D-02
 ErrMax= 1.91D-02  0.00D+00 EMaxC= 1.00D-01 BMatC= 1.28D-02 BMatP= 1.28D-02
 IDIUse=3 WtCom= 8.09D-01 WtEn= 1.91D-01
 Coeff-Com:  0.100D+01
 Coeff-En:   0.100D+01
 Coeff:      0.100D+01
 Gap=     0.038 Goal=   None    Shift=    0.000
 GapD=    0.038 DampG=0.250 DampE=0.500 DampFc=0.2500 IDamp=-1.
 Damping current iteration by 2.50D-01
 RMSDP=2.73D-02 MaxDP=3.00D-01              OVMax= 4.60D-02

 Cycle   2  Pass 0  IDiag  1:
 E= -150.130644607877     Delta-E=       -0.016946085955 Rises=F Damp=T
 DIIS: error= 1.12D-02 at cycle   2 NSaved=   2.
 NSaved= 2 IEnMin= 2 EnMin= -150.130644607877     IErMin= 2 ErrMin= 1.12D-02
 ErrMax= 1.12D-02  0.00D+00 EMaxC= 1.00D-01 BMatC= 3.99D-03 BMatP= 1.28D-02
 IDIUse=3 WtCom= 8.88D-01 WtEn= 1.12D-01
 Coeff-Com: -0.104D+01 0.204D+01
 Coeff-En:   0.000D+00 0.100D+01
 Coeff:     -0.923D+00 0.192D+01
 Gap=     0.000 Goal=   None    Shift=    0.000
 RMSDP=2.02D-02 MaxDP=2.10D-01 DE=-1.69D-02 OVMax= 2.42D-02

 Cycle   3  Pass 0  IDiag  1:
 E= -150.120828668748     Delta-E=        0.009815939128 Rises=F Damp=F
 DIIS: error= 1.19D-02 at cycle   3 NSaved=   3.
 NSaved= 3 IEnMin= 2 EnMin= -150.130644607877     IErMin= 2 ErrMin= 1.12D-02
 ErrMax= 1.19D-02  0.00D+00 EMaxC= 1.00D-01 BMatC= 1.87D-03 BMatP= 3.99D-03
 IDIUse=3 WtCom= 8.81D-01 WtEn= 1.19D-01
 EnCoef did   100 forward-backward iterations
 Coeff-Com: -0.348D+00 0.918D+00 0.430D+00
 Coeff-En:   0.442D+00 0.178D-01 0.540D+00
 Coeff:     -0.254D+00 0.811D+00 0.443D+00
 Gap=     0.012 Goal=   None    Shift=    0.000
 RMSDP=2.71D-02 MaxDP=2.84D-01 DE= 9.82D-03 OVMax= 4.89D-03

 Cycle   4  Pass 0  IDiag  1:
 E= -150.119970794206     Delta-E=        0.000857874542 Rises=F Damp=F
 DIIS: error= 1.55D-02 at cycle   4 NSaved=   4.
 NSaved= 4 IEnMin= 2 EnMin= -150.130644607877     IErMin= 2 ErrMin= 1.12D-02
 ErrMax= 1.55D-02  0.00D+00 EMaxC= 1.00D-01 BMatC= 3.08D-03 BMatP= 1.87D-03
 IDIUse=2 WtCom= 0.00D+00 WtEn= 1.00D+00
 Coeff-En:   0.000D+00 0.000D+00 0.505D+00 0.495D+00
 Coeff:      0.000D+00 0.000D+00 0.505D+00 0.495D+00
 Gap=     0.000 Goal=   None    Shift=    0.000
 RMSDP=4.55D-04 MaxDP=3.98D-03 DE= 8.58D-04 OVMax= 7.14D-03

 Cycle   5  Pass 0  IDiag  1:
 E= -150.120965264281     Delta-E=       -0.000994470074 Rises=F Damp=F
 DIIS: error= 1.17D-02 at cycle   5 NSaved=   5.
 NSaved= 5 IEnMin= 2 EnMin= -150.130644607877     IErMin= 2 ErrMin= 1.12D-02
 ErrMax= 1.17D-02  0.00D+00 EMaxC= 1.00D-01 BMatC= 1.71D-03 BMatP= 1.87D-03
 IDIUse=3 WtCom= 8.83D-01 WtEn= 1.17D-01
 Coeff-Com: -0.558D+00 0.773D+00 0.143D+00-0.374D+00 0.102D+01
 Coeff-En:   0.000D+00 0.000D+00 0.499D+00 0.000D+00 0.501D+00
 Coeff:     -0.493D+00 0.683D+00 0.185D+00-0.330D+00 0.956D+00
 Gap=     0.010 Goal=   None    Shift=    0.000
 RMSDP=2.71D-02 MaxDP=2.83D-01 DE=-9.94D-04 OVMax= 5.27D-03

 Cycle   6  Pass 0  IDiag  1:
 E= -150.120212593794     Delta-E=        0.000752670487 Rises=F Damp=F
 DIIS: error= 1.51D-02 at cycle   6 NSaved=   6.
 NSaved= 6 IEnMin= 2 EnMin= -150.130644607877     IErMin= 2 ErrMin= 1.12D-02
 ErrMax= 1.51D-02  0.00D+00 EMaxC= 1.00D-01 BMatC= 2.77D-03 BMatP= 1.71D-03
 IDIUse=2 WtCom= 0.00D+00 WtEn= 1.00D+00
 Rare condition: small coef for last iteration:  0.000D+00
 Coeff-En:   0.000D+00 0.000D+00 0.142D-02 0.000D+00 0.504D+00 0.494D+00
 Coeff:      0.000D+00 0.000D+00 0.142D-02 0.000D+00 0.504D+00 0.494D+00
 Gap=     0.000 Goal=   None    Shift=    0.000
 RMSDP=2.71D-02 MaxDP=2.83D-01 DE= 7.53D-04 OVMax= 3.32D-03

 Cycle   7  Pass 0  IDiag  1:
 E= -150.120971778150     Delta-E=       -0.000759184357 Rises=F Damp=F
 DIIS: error= 1.17D-02 at cycle   7 NSaved=   7.
 NSaved= 7 IEnMin= 2 EnMin= -150.130644607877     IErMin= 2 ErrMin= 1.12D-02
 ErrMax= 1.17D-02  0.00D+00 EMaxC= 1.00D-01 BMatC= 1.67D-03 BMatP= 1.71D-03
 IDIUse=3 WtCom= 8.83D-01 WtEn= 1.17D-01
 EnCoef did   100 forward-backward iterations
 Coeff-Com:  0.154D+00-0.251D+00 0.283D+00-0.179D+01-0.114D+01 0.177D-01
 Coeff-Com:  0.373D+01
 Coeff-En:   0.000D+00 0.000D+00 0.739D-01 0.000D+00 0.725D-03 0.422D+00
 Coeff-En:   0.503D+00
 Coeff:      0.136D+00-0.222D+00 0.259D+00-0.158D+01-0.101D+01 0.650D-01
 Coeff:      0.335D+01
 Gap=     0.017 Goal=   None    Shift=    0.000
 RMSDP=2.71D-02 MaxDP=2.83D-01 DE=-7.59D-04 OVMax= 4.31D-03

 Cycle   8  Pass 0  IDiag  1:
 E= -150.119663366356     Delta-E=        0.001308411795 Rises=F Damp=F
 DIIS: error= 1.71D-02 at cycle   8 NSaved=   8.
 NSaved= 8 IEnMin= 2 EnMin= -150.130644607877     IErMin= 2 ErrMin= 1.12D-02
 ErrMax= 1.71D-02  0.00D+00 EMaxC= 1.00D-01 BMatC= 3.56D-03 BMatP= 1.67D-03
 IDIUse=2 WtCom= 0.00D+00 WtEn= 1.00D+00
 EnCoef did   100 forward-backward iterations
 Rare condition: small coef for last iteration: -0.276D-14
 Coeff-En:   0.000D+00 0.000D+00 0.412D-02 0.000D+00 0.324D-02 0.367D-02
 Coeff-En:   0.503D+00 0.486D+00
 Coeff:      0.000D+00 0.000D+00 0.412D-02 0.000D+00 0.324D-02 0.367D-02
 Coeff:      0.503D+00 0.486D+00
 Gap=     0.000 Goal=   None    Shift=    0.000
 RMSDP=2.71D-02 MaxDP=2.84D-01 DE= 1.31D-03 OVMax= 3.21D-03

 Cycle   9  Pass 0  IDiag  1:
 E= -150.120998962983     Delta-E=       -0.001335596628 Rises=F Damp=F
 DIIS: error= 1.17D-02 at cycle   9 NSaved=   9.
 NSaved= 9 IEnMin= 2 EnMin= -150.130644607877     IErMin= 2 ErrMin= 1.12D-02
 ErrMax= 1.17D-02  0.00D+00 EMaxC= 1.00D-01 BMatC= 1.65D-03 BMatP= 1.67D-03
 IDIUse=3 WtCom= 8.83D-01 WtEn= 1.17D-01
 EnCoef did   100 forward-backward iterations
 Rare condition: small coef for last iteration:  0.000D+00
 Coeff-Com: -0.414D+00 0.560D+00 0.651D-02-0.142D+01-0.979D+00 0.231D+01
 Coeff-Com:  0.187D+01-0.210D+01 0.117D+01
 Coeff-En:   0.000D+00 0.000D+00 0.386D-02 0.000D+00 0.283D-02 0.393D-02
 Coeff-En:   0.368D-03 0.486D+00 0.503D+00
 Coeff:     -0.414D+00 0.560D+00 0.651D-02-0.142D+01-0.979D+00 0.231D+01
 Coeff:      0.187D+01-0.210D+01 0.117D+01
 Gap=     0.011 Goal=   None    Shift=    0.000
 RMSDP=2.71D-02 MaxDP=2.84D-01 DE=-1.34D-03 OVMax= 4.91D-03

 Cycle  10  Pass 0  IDiag  1:
 E= -150.120151125068     Delta-E=        0.000847837915 Rises=F Damp=F
 DIIS: error= 1.52D-02 at cycle  10 NSaved=  10.
 NSaved=10 IEnMin= 2 EnMin= -150.130644607877     IErMin= 2 ErrMin= 1.12D-02
 ErrMax= 1.52D-02  0.00D+00 EMaxC= 1.00D-01 BMatC= 2.84D-03 BMatP= 1.65D-03
 IDIUse=2 WtCom= 0.00D+00 WtEn= 1.00D+00
 EnCoef did   100 forward-backward iterations
 Coeff-En:   0.000D+00 0.000D+00 0.572D-01 0.000D+00 0.445D-03 0.511D-03
 Coeff-En:   0.862D-01 0.000D+00 0.418D+00 0.438D+00
 Coeff:      0.000D+00 0.000D+00 0.572D-01 0.000D+00 0.445D-03 0.511D-03
 Coeff:      0.862D-01 0.000D+00 0.418D+00 0.438D+00
 Gap=     0.000 Goal=   None    Shift=    0.000
 RMSDP=2.71D-02 MaxDP=2.83D-01 DE= 8.48D-04 OVMax= 2.31D-03

 Cycle  11  Pass 0  IDiag  1:
 E= -150.120997251955     Delta-E=       -0.000846126886 Rises=F Damp=F
 DIIS: error= 1.17D-02 at cycle  11 NSaved=  11.
 NSaved=11 IEnMin= 2 EnMin= -150.130644607877     IErMin= 2 ErrMin= 1.12D-02
 ErrMax= 1.17D-02  0.00D+00 EMaxC= 1.00D-01 BMatC= 1.65D-03 BMatP= 1.65D-03
 IDIUse=3 WtCom= 8.83D-01 WtEn= 1.17D-01
 EnCoef did   100 forward-backward iterations
 Coeff-Com: -0.468D+00 0.631D+00-0.103D-01-0.129D+01-0.252D+01 0.238D+01
 Coeff-Com: -0.369D+01-0.204D+01-0.167D+01-0.139D+00 0.981D+01
 Coeff-En:   0.000D+00 0.000D+00 0.592D-01 0.000D+00 0.125D-03 0.710D-03
 Coeff-En:   0.515D-01 0.000D+00 0.000D+00 0.436D+00 0.453D+00
 Coeff:     -0.414D+00 0.558D+00-0.224D-02-0.114D+01-0.223D+01 0.210D+01
 Coeff:     -0.325D+01-0.180D+01-0.148D+01-0.717D-01 0.872D+01
 Gap=     0.010 Goal=   None    Shift=    0.000
 RMSDP=2.71D-02 MaxDP=2.83D-01 DE=-8.46D-04 OVMax= 3.67D-03

 Cycle  12  Pass 0  IDiag  1:
 E= -150.120266552897     Delta-E=        0.000730699058 Rises=F Damp=F
 DIIS: error= 1.48D-02 at cycle  12 NSaved=  12.
 NSaved=12 IEnMin= 2 EnMin= -150.130644607877     IErMin= 2 ErrMin= 1.12D-02
 ErrMax= 1.48D-02  0.00D+00 EMaxC= 1.00D-01 BMatC= 2.68D-03 BMatP= 1.65D-03
 IDIUse=2 WtCom= 0.00D+00 WtEn= 1.00D+00
 EnCoef did   100 forward-backward iterations
 Coeff-En:   0.000D+00 0.000D+00 0.605D-01 0.000D+00 0.000D+00 0.000D+00
 Coeff-En:   0.604D-01 0.000D+00 0.000D+00 0.000D+00 0.444D+00 0.436D+00
 Coeff:      0.000D+00 0.000D+00 0.605D-01 0.000D+00 0.000D+00 0.000D+00
 Coeff:      0.604D-01 0.000D+00 0.000D+00 0.000D+00 0.444D+00 0.436D+00
 Gap=     0.000 Goal=   None    Shift=    0.000
 RMSDP=2.18D-04 MaxDP=2.18D-03 DE= 7.31D-04 OVMax= 3.85D-03

 Cycle  13  Pass 0  IDiag  1:
 E= -150.120993479308     Delta-E=       -0.000726926411 Rises=F Damp=F
 DIIS: error= 1.17D-02 at cycle  13 NSaved=  13.
 NSaved=13 IEnMin= 2 EnMin= -150.130644607877     IErMin= 2 ErrMin= 1.12D-02
 ErrMax= 1.17D-02  0.00D+00 EMaxC= 1.00D-01 BMatC= 1.65D-03 BMatP= 1.65D-03
 IDIUse=3 WtCom= 8.83D-01 WtEn= 1.17D-01
 Large coefficients: NSaved= 13 BigCof=   62.15 CofMax=   10.00 Det=-4.12D-11
 Inversion failed.  Reducing to 12 matrices.
 Large coefficients: NSaved= 12 BigCof=   68.08 CofMax=   10.00 Det=-5.49D-11
 Inversion failed.  Reducing to 11 matrices.
 Large coefficients: NSaved= 11 BigCof=   58.20 CofMax=   10.00 Det=-1.51D-10
 Inversion failed.  Reducing to 10 matrices.
 Large coefficients: NSaved= 10 BigCof=   75.77 CofMax=   10.00 Det=-1.51D-10
 Inversion failed.  Reducing to  9 matrices.
 Large coefficients: NSaved=  9 BigCof=   78.94 CofMax=   10.00 Det=-1.74D-10
 Inversion failed.  Reducing to  8 matrices.
 Large coefficients: NSaved=  8 BigCof=   43.83 CofMax=   10.00 Det=-1.83D-10
 Inversion failed.  Reducing to  7 matrices.
 Large coefficients: NSaved=  7 BigCof=   43.50 CofMax=   10.00 Det=-1.83D-10
 Inversion failed.  Reducing to  6 matrices.
 EnCoef did   100 forward-backward iterations
 Coeff-Com:  0.116D-01 0.439D+00-0.854D-01 0.110D+00-0.215D+00 0.740D+00
 Coeff-En:   0.000D+00 0.245D-01 0.000D+00 0.476D+00 0.000D+00 0.500D+00
 Coeff:      0.103D-01 0.390D+00-0.754D-01 0.153D+00-0.190D+00 0.712D+00
 Gap=     0.002 Goal=   None    Shift=    0.000
 RMSDP=2.71D-02 MaxDP=2.82D-01 DE=-7.27D-04 OVMax= 1.41D-03

 Cycle  14  Pass 0  IDiag  1:
 E= -150.120866359208     Delta-E=        0.000127120099 Rises=F Damp=F
 DIIS: error= 1.22D-02 at cycle  14 NSaved=   7.
 NSaved= 7 IEnMin= 1 EnMin= -150.130644607877     IErMin= 1 ErrMin= 1.12D-02
 ErrMax= 1.22D-02  0.00D+00 EMaxC= 1.00D-01 BMatC= 1.83D-03 BMatP= 1.65D-03
 IDIUse=2 WtCom= 0.00D+00 WtEn= 1.00D+00
 EnCoef did   100 forward-backward iterations
 Coeff-En:   0.000D+00 0.660D-02 0.000D+00 0.000D+00 0.000D+00 0.501D+00
 Coeff-En:   0.493D+00
 Coeff:      0.000D+00 0.660D-02 0.000D+00 0.000D+00 0.000D+00 0.501D+00
 Coeff:      0.493D+00
 Gap=     0.000 Goal=   None    Shift=    0.000
 RMSDP=2.71D-02 MaxDP=2.82D-01 DE= 1.27D-04 OVMax= 5.00D-04

 Cycle  15  Pass 0  IDiag  1:
 E= -150.120989661605     Delta-E=       -0.000123302397 Rises=F Damp=F
 DIIS: error= 1.17D-02 at cycle  15 NSaved=   8.
 NSaved= 8 IEnMin= 1 EnMin= -150.130644607877     IErMin= 1 ErrMin= 1.12D-02
 ErrMax= 1.17D-02  0.00D+00 EMaxC= 1.00D-01 BMatC= 1.65D-03 BMatP= 1.65D-03
 IDIUse=3 WtCom= 8.83D-01 WtEn= 1.17D-01
 Large coefficients: NSaved=  8 BigCof=   12.89 CofMax=   10.00 Det=-4.38D-09
 Inversion failed.  Reducing to  7 matrices.
 Large coefficients: NSaved=  7 BigCof=   15.10 CofMax=   10.00 Det=-1.59D-08
 Inversion failed.  Reducing to  6 matrices.
 Large coefficients: NSaved=  6 BigCof=   17.73 CofMax=   10.00 Det=-1.71D-08
 Inversion failed.  Reducing to  5 matrices.
 Large coefficients: NSaved=  5 BigCof=   17.66 CofMax=   10.00 Det=-1.72D-08
 Inversion failed.  Reducing to  4 matrices.
 Coeff-Com: -0.218D-02 0.337D+00 0.161D+00 0.504D+00
 Coeff-En:   0.000D+00 0.000D+00 0.499D+00 0.501D+00
 Coeff:     -0.192D-02 0.298D+00 0.200D+00 0.504D+00
 Gap=     0.000 Goal=   None    Shift=    0.000
 RMSDP=2.71D-02 MaxDP=2.82D-01 DE=-1.23D-04 OVMax= 2.89D-04

 Cycle  16  Pass 0  IDiag  1:
 E= -150.120969043910     Delta-E=        0.000020617695 Rises=F Damp=F
 DIIS: error= 1.18D-02 at cycle  16 NSaved=   5.
 NSaved= 5 IEnMin= 1 EnMin= -150.130644607877     IErMin= 1 ErrMin= 1.12D-02
 ErrMax= 1.18D-02  0.00D+00 EMaxC= 1.00D-01 BMatC= 1.68D-03 BMatP= 1.65D-03
 IDIUse=3 WtCom= 8.83D-01 WtEn= 1.17D-01
 Large coefficients: NSaved=  5 BigCof=   24.87 CofMax=   10.00 Det=-2.24D-08
 Inversion failed.  Reducing to  4 matrices.
 Coeff-Com: -0.857D-03 0.274D+00 0.501D+00 0.226D+00
 Coeff-En:   0.000D+00 0.000D+00 0.500D+00 0.500D+00
 Coeff:     -0.757D-03 0.242D+00 0.501D+00 0.258D+00
 Gap=     0.000 Goal=   None    Shift=    0.000
 RMSDP=4.09D-06 MaxDP=4.48D-05 DE= 2.06D-05 OVMax= 6.45D-05

 Initial convergence to 1.0D-05 achieved.  Increase integral accuracy.
 Cycle  17  Pass 1  IDiag  1:
 E= -150.120984413470     Delta-E=       -0.000015369561 Rises=F Damp=F
 DIIS: error= 1.17D-02 at cycle   1 NSaved=   1.
 NSaved= 1 IEnMin= 1 EnMin= -150.120984413470     IErMin= 1 ErrMin= 1.17D-02
 ErrMax= 1.17D-02  0.00D+00 EMaxC= 1.00D-01 BMatC= 1.66D-03 BMatP= 1.66D-03
 IDIUse=3 WtCom= 8.83D-01 WtEn= 1.17D-01
 Coeff-Com:  0.100D+01
 Coeff-En:   0.100D+01
 Coeff:      0.100D+01
 Gap=     0.038 Goal=   None    Shift=    0.000
 RMSDP=4.09D-06 MaxDP=4.48D-05 DE=-1.54D-05 OVMax= 9.54D-03

 Cycle  18  Pass 1  IDiag  1:
 E= -150.117292310923     Delta-E=        0.003692102548 Rises=F Damp=F
 DIIS: error= 2.40D-02 at cycle   2 NSaved=   2.
 NSaved= 2 IEnMin= 1 EnMin= -150.120984413470     IErMin= 1 ErrMin= 1.17D-02
 ErrMax= 2.40D-02  0.00D+00 EMaxC= 1.00D-01 BMatC= 7.00D-03 BMatP= 1.66D-03
 IDIUse=2 WtCom= 0.00D+00 WtEn= 1.00D+00
 Coeff-En:   0.523D+00 0.477D+00
 Coeff:      0.523D+00 0.477D+00
 Gap=     0.001 Goal=   None    Shift=    0.000
 RMSDP=6.49D-04 MaxDP=6.46D-03 DE= 3.69D-03 OVMax= 1.04D-02

 Cycle  19  Pass 1  IDiag  1:
 E= -150.120954287392     Delta-E=       -0.003661976469 Rises=F Damp=F
 DIIS: error= 1.19D-02 at cycle   3 NSaved=   3.
 NSaved= 3 IEnMin= 1 EnMin= -150.120984413470     IErMin= 1 ErrMin= 1.17D-02
 ErrMax= 1.19D-02  0.00D+00 EMaxC= 1.00D-01 BMatC= 1.72D-03 BMatP= 1.66D-03
 IDIUse=3 WtCom= 8.81D-01 WtEn= 1.19D-01
 Coeff-Com:  0.464D+00-0.802D-01 0.617D+00
 Coeff-En:   0.500D+00 0.000D+00 0.500D+00
 Coeff:      0.468D+00-0.707D-01 0.603D+00
 Gap=     0.002 Goal=   None    Shift=    0.000
 RMSDP=2.71D-02 MaxDP=2.83D-01 DE=-3.66D-03 OVMax= 2.53D-03

 Cycle  20  Pass 1  IDiag  1:
 E= -150.120822937971     Delta-E=        0.000131349421 Rises=F Damp=F
 DIIS: error= 1.24D-02 at cycle   4 NSaved=   4.
 NSaved= 4 IEnMin= 1 EnMin= -150.120984413470     IErMin= 1 ErrMin= 1.17D-02
 ErrMax= 1.24D-02  0.00D+00 EMaxC= 1.00D-01 BMatC= 1.89D-03 BMatP= 1.66D-03
 IDIUse=2 WtCom= 0.00D+00 WtEn= 1.00D+00
 Rare condition: small coef for last iteration:  0.000D+00
 Coeff-En:   0.806D-04 0.000D+00 0.501D+00 0.499D+00
 Coeff:      0.806D-04 0.000D+00 0.501D+00 0.499D+00
 Gap=     0.000 Goal=   None    Shift=    0.000
 RMSDP=2.71D-02 MaxDP=2.82D-01 DE= 1.31D-04 OVMax= 6.63D-04

 Cycle  21  Pass 1  IDiag  1:
 E= -150.120989190706     Delta-E=       -0.000166252735 Rises=F Damp=F
 DIIS: error= 1.17D-02 at cycle   5 NSaved=   5.
 NSaved= 5 IEnMin= 5 EnMin= -150.120989190706     IErMin= 5 ErrMin= 1.17D-02
 ErrMax= 1.17D-02  0.00D+00 EMaxC= 1.00D-01 BMatC= 1.66D-03 BMatP= 1.66D-03
 IDIUse=3 WtCom= 8.83D-01 WtEn= 1.17D-01
 EnCoef did   100 forward-backward iterations
 Coeff-Com:  0.267D-01-0.908D+00-0.433D+00-0.896D-02 0.232D+01
 Coeff-En:   0.156D-01 0.000D+00 0.000D+00 0.483D+00 0.501D+00
 Coeff:      0.254D-01-0.802D+00-0.383D+00 0.485D-01 0.211D+01
 Gap=     0.031 Goal=   None    Shift=    0.000
 RMSDP=2.71D-02 MaxDP=2.85D-01 DE=-1.66D-04 OVMax= 8.87D-03

 Cycle  22  Pass 1  IDiag  1:
 E= -150.118144725582     Delta-E=        0.002844465123 Rises=F Damp=F
 DIIS: error= 2.16D-02 at cycle   6 NSaved=   6.
 NSaved= 6 IEnMin= 5 EnMin= -150.120989190706     IErMin= 5 ErrMin= 1.17D-02
 ErrMax= 2.16D-02  0.00D+00 EMaxC= 1.00D-01 BMatC= 5.74D-03 BMatP= 1.66D-03
 IDIUse=2 WtCom= 0.00D+00 WtEn= 1.00D+00
 EnCoef did   100 forward-backward iterations
 Rare condition: small coef for last iteration:  0.111D-15
 Coeff-En:   0.196D-01 0.000D+00 0.194D-01 0.194D-01 0.487D+00 0.454D+00
 Coeff:      0.196D-01 0.000D+00 0.194D-01 0.194D-01 0.487D+00 0.454D+00
 Gap=     0.000 Goal=   None    Shift=    0.000
 RMSDP=2.71D-02 MaxDP=2.85D-01 DE= 2.84D-03 OVMax= 6.89D-03

 Cycle  23  Pass 1  IDiag  1:
 E= -150.120983672337     Delta-E=       -0.002838946755 Rises=F Damp=F
 DIIS: error= 1.18D-02 at cycle   7 NSaved=   7.
 NSaved= 7 IEnMin= 5 EnMin= -150.120989190706     IErMin= 5 ErrMin= 1.17D-02
 ErrMax= 1.18D-02  0.00D+00 EMaxC= 1.00D-01 BMatC= 1.68D-03 BMatP= 1.66D-03
 IDIUse=3 WtCom= 8.83D-01 WtEn= 1.17D-01
 EnCoef did   100 forward-backward iterations
 Rare condition: small coef for last iteration:  0.000D+00
 Coeff-Com:  0.318D+00-0.132D+01-0.315D+01-0.137D+01 0.381D+01 0.616D+00
 Coeff-Com:  0.209D+01
 Coeff-En:   0.194D-01 0.000D+00 0.192D-01 0.194D-01 0.287D-03 0.454D+00
 Coeff-En:   0.487D+00
 Coeff:      0.318D+00-0.132D+01-0.315D+01-0.137D+01 0.381D+01 0.616D+00
 Coeff:      0.209D+01
 Gap=     0.068 Goal=   None    Shift=    0.000
 RMSDP=2.72D-02 MaxDP=2.88D-01 DE=-2.84D-03 OVMax= 1.94D-02

 Cycle  24  Pass 1  IDiag  1:
 E= -150.112544096740     Delta-E=        0.008439575597 Rises=F Damp=F
 DIIS: error= 3.36D-02 at cycle   8 NSaved=   8.
 NSaved= 8 IEnMin= 5 EnMin= -150.120989190706     IErMin= 5 ErrMin= 1.17D-02
 ErrMax= 3.36D-02  0.00D+00 EMaxC= 1.00D-01 BMatC= 1.38D-02 BMatP= 1.66D-03
 IDIUse=2 WtCom= 0.00D+00 WtEn= 1.00D+00
 EnCoef did   100 forward-backward iterations
 Rare condition: small coef for last iteration:  0.000D+00
 Coeff-En:   0.679D-01 0.000D+00 0.677D-01 0.678D-01 0.506D-01 0.473D-01
 Coeff-En:   0.384D+00 0.315D+00
 Coeff:      0.679D-01 0.000D+00 0.677D-01 0.678D-01 0.506D-01 0.473D-01
 Coeff:      0.384D+00 0.315D+00
 Gap=     0.001 Goal=   None    Shift=    0.000
 RMSDP=2.72D-02 MaxDP=2.88D-01 DE= 8.44D-03 OVMax= 1.86D-02

 Cycle  25  Pass 1  IDiag  1:
 E= -150.120930441640     Delta-E=       -0.008386344900 Rises=F Damp=F
 DIIS: error= 1.20D-02 at cycle   9 NSaved=   9.
 NSaved= 9 IEnMin= 5 EnMin= -150.120989190706     IErMin= 5 ErrMin= 1.17D-02
 ErrMax= 1.20D-02  0.00D+00 EMaxC= 1.00D-01 BMatC= 1.75D-03 BMatP= 1.66D-03
 IDIUse=3 WtCom= 8.83D-01 WtEn= 1.17D-01
 EnCoef did   100 forward-backward iterations
 Rare condition: small coef for last iteration:  0.000D+00
 Coeff-Com: -0.644D+00-0.487D+00-0.226D+01 0.233D+01 0.229D+01-0.196D+01
 Coeff-Com:  0.514D+01 0.627D+00-0.403D+01
 Coeff-En:   0.680D-01 0.000D+00 0.678D-01 0.679D-01 0.507D-01 0.474D-01
 Coeff-En:   0.760D-04 0.315D+00 0.383D+00
 Coeff:     -0.644D+00-0.487D+00-0.226D+01 0.233D+01 0.229D+01-0.196D+01
 Coeff:      0.514D+01 0.627D+00-0.403D+01
 Gap=     0.011 Goal=   None    Shift=    0.000
 RMSDP=2.71D-02 MaxDP=2.84D-01 DE=-8.39D-03 OVMax= 5.27D-03

 Cycle  26  Pass 1  IDiag  1:
 E= -150.120162129757     Delta-E=        0.000768311883 Rises=F Damp=F
 DIIS: error= 1.52D-02 at cycle  10 NSaved=  10.
 NSaved=10 IEnMin= 5 EnMin= -150.120989190706     IErMin= 5 ErrMin= 1.17D-02
 ErrMax= 1.52D-02  0.00D+00 EMaxC= 1.00D-01 BMatC= 2.82D-03 BMatP= 1.66D-03
 IDIUse=2 WtCom= 0.00D+00 WtEn= 1.00D+00
 EnCoef did   100 forward-backward iterations
 Coeff-En:   0.116D+00 0.000D+00 0.221D+00 0.237D+00 0.164D+00 0.000D+00
 Coeff-En:   0.000D+00 0.000D+00 0.117D+00 0.145D+00
 Coeff:      0.116D+00 0.000D+00 0.221D+00 0.237D+00 0.164D+00 0.000D+00
 Coeff:      0.000D+00 0.000D+00 0.117D+00 0.145D+00
 Gap=     0.000 Goal=   None    Shift=    0.000
 RMSDP=2.71D-02 MaxDP=2.83D-01 DE= 7.68D-04 OVMax= 2.25D-03

 Cycle  27  Pass 1  IDiag  1:
 E= -150.120993506047     Delta-E=       -0.000831376290 Rises=F Damp=F
 DIIS: error= 1.17D-02 at cycle  11 NSaved=  11.
 NSaved=11 IEnMin=11 EnMin= -150.120993506047     IErMin=11 ErrMin= 1.17D-02
 ErrMax= 1.17D-02  0.00D+00 EMaxC= 1.00D-01 BMatC= 1.65D-03 BMatP= 1.66D-03
 IDIUse=3 WtCom= 8.83D-01 WtEn= 1.17D-01
 Large coefficients: NSaved= 11 BigCof=   18.08 CofMax=   10.00 Det=-3.65D-11
 Inversion failed.  Reducing to 10 matrices.
 Large coefficients: NSaved= 10 BigCof=   55.12 CofMax=   10.00 Det=-5.39D-11
 Inversion failed.  Reducing to  9 matrices.
 Large coefficients: NSaved=  9 BigCof=   62.62 CofMax=   10.00 Det=-6.30D-11
 Inversion failed.  Reducing to  8 matrices.
 Large coefficients: NSaved=  8 BigCof=  110.06 CofMax=   10.00 Det=-2.81D-10
 Inversion failed.  Reducing to  7 matrices.
 Large coefficients: NSaved=  7 BigCof=  121.39 CofMax=   10.00 Det=-2.83D-10
 Inversion failed.  Reducing to  6 matrices.
 EnCoef did   100 forward-backward iterations
 Coeff-Com:  0.125D+01-0.320D+01-0.919D-01 0.208D+01-0.673D+00 0.164D+01
 Coeff-En:   0.194D+00 0.142D+00 0.184D-04 0.000D+00 0.304D+00 0.361D+00
 Coeff:      0.113D+01-0.281D+01-0.812D-01 0.184D+01-0.559D+00 0.149D+01
 Gap=     0.005 Goal=   None    Shift=    0.000
 RMSDP=1.08D-04 MaxDP=1.16D-03 DE=-8.31D-04 OVMax= 1.91D-03

 Cycle  28  Pass 1  IDiag  1:
 E= -150.120650962545     Delta-E=        0.000342543502 Rises=F Damp=F
 DIIS: error= 1.32D-02 at cycle  12 NSaved=   7.
 NSaved= 7 IEnMin= 6 EnMin= -150.120993506047     IErMin= 6 ErrMin= 1.17D-02
 ErrMax= 1.32D-02  0.00D+00 EMaxC= 1.00D-01 BMatC= 2.14D-03 BMatP= 1.65D-03
 IDIUse=2 WtCom= 0.00D+00 WtEn= 1.00D+00
 EnCoef did   100 forward-backward iterations
 Rare condition: small coef for last iteration:  0.305D-14
 Coeff-En:   0.373D-02 0.000D+00 0.755D-04 0.632D-03 0.495D+00 0.000D+00
 Coeff-En:   0.501D+00
 Coeff:      0.373D-02 0.000D+00 0.755D-04 0.632D-03 0.495D+00 0.000D+00
 Coeff:      0.501D+00
 Gap=     0.000 Goal=   None    Shift=    0.000
 RMSDP=1.69D-04 MaxDP=1.83D-03 DE= 3.43D-04 OVMax= 3.04D-03

 Cycle  29  Pass 1  IDiag  1:
 E= -150.120996609025     Delta-E=       -0.000345646480 Rises=F Damp=F
 DIIS: error= 1.17D-02 at cycle  13 NSaved=   8.
 NSaved= 8 IEnMin= 8 EnMin= -150.120996609025     IErMin= 6 ErrMin= 1.17D-02
 ErrMax= 1.17D-02  0.00D+00 EMaxC= 1.00D-01 BMatC= 1.66D-03 BMatP= 1.65D-03
 IDIUse=3 WtCom= 8.83D-01 WtEn= 1.17D-01
 Large coefficients: NSaved=  8 BigCof=  345.56 CofMax=   10.00 Det=-1.34D-11
 Inversion failed.  Reducing to  7 matrices.
 Large coefficients: NSaved=  7 BigCof=  345.58 CofMax=   10.00 Det=-1.34D-11
 Inversion failed.  Reducing to  6 matrices.
 Large coefficients: NSaved=  6 BigCof=  232.95 CofMax=   10.00 Det=-2.19D-11
 Inversion failed.  Reducing to  5 matrices.
 Large coefficients: NSaved=  5 BigCof=  162.31 CofMax=   10.00 Det=-4.04D-11
 Inversion failed.  Reducing to  4 matrices.
 Large coefficients: NSaved=  4 BigCof=  177.66 CofMax=   10.00 Det=-4.48D-11
 Inversion failed.  Reducing to  3 matrices.
 Large coefficients: NSaved=  3 BigCof=   13.52 CofMax=   10.00 Det=-5.99D-06
 Inversion failed.  Reducing to  2 matrices.
 Coeff-Com: -0.279D+01 0.379D+01
 Coeff-En:   0.000D+00 0.100D+01
 Coeff:     -0.246D+01 0.346D+01
 Gap=     0.037 Goal=   None    Shift=    0.000
 RMSDP=2.71D-02 MaxDP=2.90D-01 DE=-3.46D-04 OVMax= 1.70D-02

 Cycle  30  Pass 1  IDiag  1:
 E= -150.116633396611     Delta-E=        0.004363212414 Rises=F Damp=F
 DIIS: error= 2.38D-02 at cycle  14 NSaved=   3.
 NSaved= 3 IEnMin= 2 EnMin= -150.120996609025     IErMin= 2 ErrMin= 1.17D-02
 ErrMax= 2.38D-02  0.00D+00 EMaxC= 1.00D-01 BMatC= 7.66D-03 BMatP= 1.66D-03
 IDIUse=2 WtCom= 0.00D+00 WtEn= 1.00D+00
 Coeff-En:   0.000D+00 0.526D+00 0.474D+00
 Coeff:      0.000D+00 0.526D+00 0.474D+00
 Gap=     0.001 Goal=   None    Shift=    0.000
 RMSDP=1.04D-03 MaxDP=1.13D-02 DE= 4.36D-03 OVMax= 1.91D-02

 Cycle  31  Pass 1  IDiag  1:
 E= -150.120874543096     Delta-E=       -0.004241146485 Rises=F Damp=F
 DIIS: error= 1.20D-02 at cycle  15 NSaved=   4.
 NSaved= 4 IEnMin= 2 EnMin= -150.120996609025     IErMin= 2 ErrMin= 1.17D-02
 ErrMax= 1.20D-02  0.00D+00 EMaxC= 1.00D-01 BMatC= 1.84D-03 BMatP= 1.66D-03
 IDIUse=2 WtCom= 0.00D+00 WtEn= 1.00D+00
 EnCoef did   100 forward-backward iterations
 Coeff-En:   0.120D+00 0.381D+00 0.000D+00 0.499D+00
 Coeff:      0.120D+00 0.381D+00 0.000D+00 0.499D+00
 Gap=     0.000 Goal=   None    Shift=    0.000
 RMSDP=3.74D-04 MaxDP=4.83D-03 DE=-4.24D-03 OVMax= 5.79D-03

 Cycle  32  Pass 1  IDiag  1:
 E= -150.120889292841     Delta-E=       -0.000014749744 Rises=F Damp=F
 DIIS: error= 1.17D-02 at cycle  16 NSaved=   5.
 NSaved= 5 IEnMin= 2 EnMin= -150.120996609025     IErMin= 2 ErrMin= 1.17D-02
 ErrMax= 1.17D-02  0.00D+00 EMaxC= 1.00D-01 BMatC= 1.76D-03 BMatP= 1.66D-03
 IDIUse=3 WtCom= 8.83D-01 WtEn= 1.17D-01
 EnCoef did    76 forward-backward iterations
 Coeff-Com:  0.498D-01-0.464D-01-0.953D+00-0.422D+00 0.237D+01
 Coeff-En:   0.133D-03 0.501D+00 0.000D+00 0.342D-03 0.499D+00
 Coeff:      0.440D-01 0.175D-01-0.841D+00-0.372D+00 0.215D+01
 Gap=     0.032 Goal=   None    Shift=    0.000
 RMSDP=2.71D-02 MaxDP=2.84D-01 DE=-1.47D-05 OVMax= 7.01D-03

 Cycle  33  Pass 1  IDiag  1:
 E= -150.118037430948     Delta-E=        0.002851861893 Rises=F Damp=F
 DIIS: error= 2.19D-02 at cycle  17 NSaved=   6.
 NSaved= 6 IEnMin= 2 EnMin= -150.120996609025     IErMin= 2 ErrMin= 1.17D-02
 ErrMax= 2.19D-02  0.00D+00 EMaxC= 1.00D-01 BMatC= 5.89D-03 BMatP= 1.66D-03
 IDIUse=2 WtCom= 0.00D+00 WtEn= 1.00D+00
 Rare condition: small coef for last iteration: -0.133D-14
 Coeff-En:   0.000D+00 0.240D-01 0.000D+00 0.145D-02 0.504D+00 0.470D+00
 Coeff:      0.000D+00 0.240D-01 0.000D+00 0.145D-02 0.504D+00 0.470D+00
 Gap=     0.001 Goal=   None    Shift=    0.000
 RMSDP=2.71D-02 MaxDP=2.86D-01 DE= 2.85D-03 OVMax= 6.28D-03

 Cycle  34  Pass 1  IDiag  1:
 E= -150.120957703836     Delta-E=       -0.002920272888 Rises=F Damp=F
 DIIS: error= 1.18D-02 at cycle  18 NSaved=   7.
 NSaved= 7 IEnMin= 2 EnMin= -150.120996609025     IErMin= 2 ErrMin= 1.17D-02
 ErrMax= 1.18D-02  0.00D+00 EMaxC= 1.00D-01 BMatC= 1.72D-03 BMatP= 1.66D-03
 IDIUse=3 WtCom= 8.83D-01 WtEn= 1.17D-01
 EnCoef did   100 forward-backward iterations
 Coeff-Com:  0.678D+00-0.129D+00-0.744D+00-0.192D+00 0.189D+01-0.333D+00
 Coeff-Com: -0.170D+00
 Coeff-En:   0.498D-01 0.442D+00 0.000D+00 0.122D-02 0.343D+00 0.790D-02
 Coeff-En:   0.155D+00
 Coeff:      0.605D+00-0.620D-01-0.657D+00-0.169D+00 0.171D+01-0.293D+00
 Coeff:     -0.132D+00
 Gap=     0.018 Goal=   None    Shift=    0.000
 RMSDP=2.71D-02 MaxDP=2.85D-01 DE=-2.92D-03 OVMax= 8.15D-03

 Cycle  35  Pass 1  IDiag  1:
 E= -150.119509413490     Delta-E=        0.001448290347 Rises=F Damp=F
 DIIS: error= 1.75D-02 at cycle  19 NSaved=   8.
 NSaved= 8 IEnMin= 2 EnMin= -150.120996609025     IErMin= 2 ErrMin= 1.17D-02
 ErrMax= 1.75D-02  0.00D+00 EMaxC= 1.00D-01 BMatC= 3.77D-03 BMatP= 1.66D-03
 IDIUse=2 WtCom= 0.00D+00 WtEn= 1.00D+00
 EnCoef did   100 forward-backward iterations
 Rare condition: small coef for last iteration:  0.700D-15
 Coeff-En:   0.179D-03 0.791D-02 0.000D+00 0.000D+00 0.157D-02 0.000D+00
 Coeff-En:   0.504D+00 0.486D+00
 Coeff:      0.179D-03 0.791D-02 0.000D+00 0.000D+00 0.157D-02 0.000D+00
 Coeff:      0.504D+00 0.486D+00
 Gap=     0.000 Goal=   None    Shift=    0.000
 RMSDP=2.71D-02 MaxDP=2.84D-01 DE= 1.45D-03 OVMax= 4.64D-03

 Cycle  36  Pass 1  IDiag  1:
 E= -150.120978048370     Delta-E=       -0.001468634881 Rises=F Damp=F
 DIIS: error= 1.17D-02 at cycle  20 NSaved=   9.
 NSaved= 9 IEnMin= 2 EnMin= -150.120996609025     IErMin= 2 ErrMin= 1.17D-02
 ErrMax= 1.17D-02  0.00D+00 EMaxC= 1.00D-01 BMatC= 1.67D-03 BMatP= 1.66D-03
 IDIUse=3 WtCom= 8.83D-01 WtEn= 1.17D-01
 Large coefficients: NSaved=  9 BigCof=   22.61 CofMax=   10.00 Det=-2.43D-09
 Inversion failed.  Reducing to  8 matrices.
 Large coefficients: NSaved=  8 BigCof=   17.01 CofMax=   10.00 Det=-3.15D-09
 Inversion failed.  Reducing to  7 matrices.
 Large coefficients: NSaved=  7 BigCof=   33.79 CofMax=   10.00 Det=-4.43D-09
 Inversion failed.  Reducing to  6 matrices.
 EnCoef did   100 forward-backward iterations
 Coeff-Com:  0.439D+00-0.362D+01-0.257D+00 0.489D+01 0.288D-01-0.481D+00
 Coeff-En:   0.419D+00 0.168D-01 0.167D-02 0.112D-03 0.798D-01 0.482D+00
 Coeff:      0.436D+00-0.320D+01-0.227D+00 0.432D+01 0.348D-01-0.368D+00
 Gap=     0.002 Goal=   None    Shift=    0.000
 RMSDP=2.71D-02 MaxDP=2.82D-01 DE=-1.47D-03 OVMax= 6.19D-04

 Cycle  37  Pass 1  IDiag  1:
 E= -150.120843832338     Delta-E=        0.000134216033 Rises=F Damp=F
 DIIS: error= 1.24D-02 at cycle  21 NSaved=   7.
 NSaved= 7 IEnMin= 1 EnMin= -150.120996609025     IErMin= 1 ErrMin= 1.17D-02
 ErrMax= 1.24D-02  0.00D+00 EMaxC= 1.00D-01 BMatC= 1.86D-03 BMatP= 1.66D-03
 IDIUse=2 WtCom= 0.00D+00 WtEn= 1.00D+00
 Coeff-En:   0.000D+00 0.000D+00 0.000D+00 0.000D+00 0.000D+00 0.501D+00
 Coeff-En:   0.499D+00
 Coeff:      0.000D+00 0.000D+00 0.000D+00 0.000D+00 0.000D+00 0.501D+00
 Coeff:      0.499D+00
 Gap=     0.000 Goal=   None    Shift=    0.000
 RMSDP=8.13D-05 MaxDP=9.26D-04 DE= 1.34D-04 OVMax= 1.48D-03

 Cycle  38  Pass 1  IDiag  1:
 E= -150.120997652506     Delta-E=       -0.000153820168 Rises=F Damp=F
 DIIS: error= 1.17D-02 at cycle  22 NSaved=   8.
 NSaved= 8 IEnMin= 8 EnMin= -150.120997652506     IErMin= 8 ErrMin= 1.17D-02
 ErrMax= 1.17D-02  0.00D+00 EMaxC= 1.00D-01 BMatC= 1.65D-03 BMatP= 1.66D-03
 IDIUse=3 WtCom= 8.83D-01 WtEn= 1.17D-01
 Large coefficients: NSaved=  8 BigCof=   21.08 CofMax=   10.00 Det=-1.57D-09
 Inversion failed.  Reducing to  7 matrices.
 Large coefficients: NSaved=  7 BigCof=   27.85 CofMax=   10.00 Det=-1.74D-09
 Inversion failed.  Reducing to  6 matrices.
 Large coefficients: NSaved=  6 BigCof=   27.66 CofMax=   10.00 Det=-2.51D-09
 Inversion failed.  Reducing to  5 matrices.
 Large coefficients: NSaved=  5 BigCof=   26.53 CofMax=   10.00 Det=-3.37D-08
 Inversion failed.  Reducing to  4 matrices.
 Large coefficients: NSaved=  4 BigCof=   26.75 CofMax=   10.00 Det=-3.39D-08
 Inversion failed.  Reducing to  3 matrices.
 Large coefficients: NSaved=  3 BigCof=   39.94 CofMax=   10.00 Det=-2.28D-06
 Inversion failed.  Reducing to  2 matrices.
 Coeff-Com: -0.561D+01 0.661D+01
 Coeff-En:   0.000D+00 0.100D+01
 Coeff:     -0.496D+01 0.596D+01
 Gap=     0.038 Goal=   None    Shift=    0.000
 RMSDP=2.71D-02 MaxDP=2.90D-01 DE=-1.54D-04 OVMax= 1.57D-02

 Cycle  39  Pass 1  IDiag  1:
 E= -150.116735455970     Delta-E=        0.004262196535 Rises=F Damp=F
 DIIS: error= 2.38D-02 at cycle  23 NSaved=   3.
 NSaved= 3 IEnMin= 2 EnMin= -150.120997652506     IErMin= 2 ErrMin= 1.17D-02
 ErrMax= 2.38D-02  0.00D+00 EMaxC= 1.00D-01 BMatC= 7.55D-03 BMatP= 1.65D-03
 IDIUse=2 WtCom= 0.00D+00 WtEn= 1.00D+00
 Coeff-En:   0.000D+00 0.526D+00 0.474D+00
 Coeff:      0.000D+00 0.526D+00 0.474D+00
 Gap=     0.001 Goal=   None    Shift=    0.000
 RMSDP=1.01D-03 MaxDP=1.08D-02 DE= 4.26D-03 OVMax= 1.86D-02

 Cycle  40  Pass 1  IDiag  1:
 E= -150.120871057046     Delta-E=       -0.004135601076 Rises=F Damp=F
 DIIS: error= 1.19D-02 at cycle  24 NSaved=   4.
 NSaved= 4 IEnMin= 2 EnMin= -150.120997652506     IErMin= 2 ErrMin= 1.17D-02
 ErrMax= 1.19D-02  0.00D+00 EMaxC= 1.00D-01 BMatC= 1.85D-03 BMatP= 1.65D-03
 IDIUse=2 WtCom= 0.00D+00 WtEn= 1.00D+00
 EnCoef did   100 forward-backward iterations
 Coeff-En:   0.633D-01 0.438D+00 0.000D+00 0.499D+00
 Coeff:      0.633D-01 0.438D+00 0.000D+00 0.499D+00
 Gap=     0.000 Goal=   None    Shift=    0.000
 RMSDP=3.69D-04 MaxDP=4.77D-03 DE=-4.14D-03 OVMax= 5.73D-03

 Cycle  41  Pass 1  IDiag  1:
 E= -150.120899354205     Delta-E=       -0.000028297159 Rises=F Damp=F
 DIIS: error= 1.17D-02 at cycle  25 NSaved=   5.
 NSaved= 5 IEnMin= 2 EnMin= -150.120997652506     IErMin= 2 ErrMin= 1.17D-02
 ErrMax= 1.17D-02  0.00D+00 EMaxC= 1.00D-01 BMatC= 1.75D-03 BMatP= 1.65D-03
 IDIUse=3 WtCom= 8.83D-01 WtEn= 1.17D-01
 EnCoef did    78 forward-backward iterations
 Coeff-Com:  0.789D-01-0.683D-01-0.940D+00-0.369D+00 0.230D+01
 Coeff-En:   0.794D-04 0.501D+00 0.000D+00 0.598D-03 0.499D+00
 Coeff:      0.697D-01-0.191D-02-0.830D+00-0.326D+00 0.209D+01
 Gap=     0.031 Goal=   None    Shift=    0.000
 RMSDP=2.71D-02 MaxDP=2.84D-01 DE=-2.83D-05 OVMax= 7.01D-03

 Cycle  42  Pass 1  IDiag  1:
 E= -150.118094593191     Delta-E=        0.002804761014 Rises=F Damp=F
 DIIS: error= 2.18D-02 at cycle  26 NSaved=   6.
 NSaved= 6 IEnMin= 2 EnMin= -150.120997652506     IErMin= 2 ErrMin= 1.17D-02
 ErrMax= 2.18D-02  0.00D+00 EMaxC= 1.00D-01 BMatC= 5.81D-03 BMatP= 1.65D-03
 IDIUse=2 WtCom= 0.00D+00 WtEn= 1.00D+00
 Rare condition: small coef for last iteration: -0.111D-14
 Coeff-En:   0.000D+00 0.229D-01 0.000D+00 0.107D-02 0.505D+00 0.471D+00
 Coeff:      0.000D+00 0.229D-01 0.000D+00 0.107D-02 0.505D+00 0.471D+00
 Gap=     0.000 Goal=   None    Shift=    0.000
 RMSDP=2.71D-02 MaxDP=2.85D-01 DE= 2.80D-03 OVMax= 6.14D-03

 Cycle  43  Pass 1  IDiag  1:
 E= -150.120961693420     Delta-E=       -0.002867100229 Rises=F Damp=F
 DIIS: error= 1.18D-02 at cycle  27 NSaved=   7.
 NSaved= 7 IEnMin= 2 EnMin= -150.120997652506     IErMin= 2 ErrMin= 1.17D-02
 ErrMax= 1.18D-02  0.00D+00 EMaxC= 1.00D-01 BMatC= 1.72D-03 BMatP= 1.65D-03
 IDIUse=3 WtCom= 8.83D-01 WtEn= 1.17D-01
 EnCoef did   100 forward-backward iterations
 Coeff-Com:  0.100D+01-0.305D+00-0.651D+00-0.198D+00 0.162D+01-0.392D+00
 Coeff-Com: -0.723D-01
 Coeff-En:   0.312D-01 0.467D+00 0.000D+00 0.468D-03 0.308D+00 0.224D-02
 Coeff-En:   0.191D+00
 Coeff:      0.887D+00-0.214D+00-0.575D+00-0.175D+00 0.146D+01-0.346D+00
 Coeff:     -0.415D-01
 Gap=     0.013 Goal=   None    Shift=    0.000
 RMSDP=2.71D-02 MaxDP=2.84D-01 DE=-2.87D-03 OVMax= 6.59D-03

 Cycle  44  Pass 1  IDiag  1:
 E= -150.120018634925     Delta-E=        0.000943058495 Rises=F Damp=F
 DIIS: error= 1.57D-02 at cycle  28 NSaved=   8.
 NSaved= 8 IEnMin= 2 EnMin= -150.120997652506     IErMin= 2 ErrMin= 1.17D-02
 ErrMax= 1.57D-02  0.00D+00 EMaxC= 1.00D-01 BMatC= 3.04D-03 BMatP= 1.65D-03
 IDIUse=2 WtCom= 0.00D+00 WtEn= 1.00D+00
 EnCoef did   100 forward-backward iterations
 Rare condition: small coef for last iteration:  0.437D-14
 Coeff-En:   0.206D-03 0.470D-02 0.000D+00 0.000D+00 0.162D-02 0.000D+00
 Coeff-En:   0.503D+00 0.491D+00
 Coeff:      0.206D-03 0.470D-02 0.000D+00 0.000D+00 0.162D-02 0.000D+00
 Coeff:      0.503D+00 0.491D+00
 Gap=     0.000 Goal=   None    Shift=    0.000
 RMSDP=2.71D-02 MaxDP=2.83D-01 DE= 9.43D-04 OVMax= 3.14D-03

 Cycle  45  Pass 1  IDiag  1:
 E= -150.120977818397     Delta-E=       -0.000959183472 Rises=F Damp=F
 DIIS: error= 1.17D-02 at cycle  29 NSaved=   9.
 NSaved= 9 IEnMin= 2 EnMin= -150.120997652506     IErMin= 2 ErrMin= 1.17D-02
 ErrMax= 1.17D-02  0.00D+00 EMaxC= 1.00D-01 BMatC= 1.67D-03 BMatP= 1.65D-03
 IDIUse=3 WtCom= 8.83D-01 WtEn= 1.17D-01
 Large coefficients: NSaved=  9 BigCof=   12.74 CofMax=   10.00 Det=-1.49D-09
 Inversion failed.  Reducing to  8 matrices.
 EnCoef did   100 forward-backward iterations
 Coeff-Com: -0.148D+01 0.718D+00-0.880D-01 0.334D+01-0.304D+01 0.209D+01
 Coeff-Com:  0.483D+01-0.537D+01
 Coeff-En:   0.000D+00 0.156D+00 0.193D-01 0.250D-01 0.000D+00 0.000D+00
 Coeff-En:   0.341D+00 0.459D+00
 Coeff:     -0.131D+01 0.652D+00-0.755D-01 0.296D+01-0.269D+01 0.185D+01
 Coeff:      0.431D+01-0.469D+01
 Gap=     0.034 Goal=   None    Shift=    0.000
 RMSDP=5.87D-04 MaxDP=5.89D-03 DE=-9.59D-04 OVMax= 9.22D-03

 Cycle  46  Pass 1  IDiag  1:
 E= -150.117789575914     Delta-E=        0.003188242483 Rises=F Damp=F
 DIIS: error= 2.26D-02 at cycle  30 NSaved=   9.
 NSaved= 9 IEnMin= 2 EnMin= -150.120997652506     IErMin= 2 ErrMin= 1.17D-02
 ErrMax= 2.26D-02  0.00D+00 EMaxC= 1.00D-01 BMatC= 6.25D-03 BMatP= 1.65D-03
 IDIUse=2 WtCom= 0.00D+00 WtEn= 1.00D+00
 EnCoef did   100 forward-backward iterations
 Rare condition: small coef for last iteration:  0.000D+00
 Coeff-En:   0.000D+00 0.280D-01 0.472D-03 0.573D-02 0.636D-02 0.240D-01
 Coeff-En:   0.480D+00 0.000D+00 0.455D+00
 Coeff:      0.000D+00 0.280D-01 0.472D-03 0.573D-02 0.636D-02 0.240D-01
 Coeff:      0.480D+00 0.000D+00 0.455D+00
 Gap=     0.001 Goal=   None    Shift=    0.000
 RMSDP=6.58D-04 MaxDP=6.95D-03 DE= 3.19D-03 OVMax= 1.14D-02

 Cycle  47  Pass 1  IDiag  1:
 E= -150.120952755705     Delta-E=       -0.003163179791 Rises=F Damp=F
 DIIS: error= 1.19D-02 at cycle  31 NSaved=  10.
 NSaved=10 IEnMin= 2 EnMin= -150.120997652506     IErMin= 2 ErrMin= 1.17D-02
 ErrMax= 1.19D-02  0.00D+00 EMaxC= 1.00D-01 BMatC= 1.73D-03 BMatP= 1.65D-03
 IDIUse=3 WtCom= 8.83D-01 WtEn= 1.17D-01
 Large coefficients: NSaved= 10 BigCof=   10.06 CofMax=   10.00 Det=-4.38D-10
 Inversion failed.  Reducing to  9 matrices.
 Large coefficients: NSaved=  9 BigCof=   12.28 CofMax=   10.00 Det=-4.83D-10
 Inversion failed.  Reducing to  8 matrices.
 Large coefficients: NSaved=  8 BigCof=   11.65 CofMax=   10.00 Det=-5.28D-10
 Inversion failed.  Reducing to  7 matrices.
 Large coefficients: NSaved=  7 BigCof=   11.30 CofMax=   10.00 Det=-5.39D-10
 Inversion failed.  Reducing to  6 matrices.
 Large coefficients: NSaved=  6 BigCof=   10.56 CofMax=   10.00 Det=-9.23D-10
 Inversion failed.  Reducing to  5 matrices.
 EnCoef did    55 forward-backward iterations
 Coeff-Com:  0.359D-01 0.344D+01 0.276D+01-0.952D+00-0.429D+01
 Coeff-En:   0.500D+00 0.117D-02 0.498D+00 0.000D+00 0.830D-03
 Coeff:      0.901D-01 0.304D+01 0.250D+01-0.841D+00-0.379D+01
 Gap=     0.030 Goal=   None    Shift=    0.000
 RMSDP=2.71D-02 MaxDP=2.85D-01 DE=-3.16D-03 OVMax= 1.09D-02

 Cycle  48  Pass 1  IDiag  1:
 E= -150.118275414451     Delta-E=        0.002677341254 Rises=F Damp=F
 DIIS: error= 2.13D-02 at cycle  32 NSaved=   6.
 NSaved= 6 IEnMin= 1 EnMin= -150.120997652506     IErMin= 1 ErrMin= 1.17D-02
 ErrMax= 2.13D-02  0.00D+00 EMaxC= 1.00D-01 BMatC= 5.54D-03 BMatP= 1.65D-03
 IDIUse=2 WtCom= 0.00D+00 WtEn= 1.00D+00
 Rare condition: small coef for last iteration: -0.444D-15
 Coeff-En:   0.193D-01 0.000D+00 0.859D-03 0.000D+00 0.506D+00 0.474D+00
 Coeff:      0.193D-01 0.000D+00 0.859D-03 0.000D+00 0.506D+00 0.474D+00
 Gap=     0.000 Goal=   None    Shift=    0.000
 RMSDP=2.71D-02 MaxDP=2.85D-01 DE= 2.68D-03 OVMax= 7.46D-03

 Cycle  49  Pass 1  IDiag  1:
 E= -150.120978581291     Delta-E=       -0.002703166840 Rises=F Damp=F
 DIIS: error= 1.18D-02 at cycle  33 NSaved=   7.
 NSaved= 7 IEnMin= 1 EnMin= -150.120997652506     IErMin= 1 ErrMin= 1.17D-02
 ErrMax= 1.18D-02  0.00D+00 EMaxC= 1.00D-01 BMatC= 1.67D-03 BMatP= 1.65D-03
 IDIUse=3 WtCom= 8.83D-01 WtEn= 1.17D-01
 Large coefficients: NSaved=  7 BigCof=   10.66 CofMax=   10.00 Det=-1.10D-08
 Inversion failed.  Reducing to  6 matrices.
 EnCoef did   100 forward-backward iterations
 Coeff-Com:  0.832D+00 0.339D+01 0.483D+01-0.277D+01-0.251D+00-0.504D+01
 Coeff-En:   0.494D+00 0.222D-03 0.114D+00 0.000D+00 0.561D-02 0.385D+00
 Coeff:      0.793D+00 0.299D+01 0.428D+01-0.244D+01-0.221D+00-0.440D+01
 Gap=     0.005 Goal=   None    Shift=    0.000
 RMSDP=1.17D-04 MaxDP=1.25D-03 DE=-2.70D-03 OVMax= 2.07D-03

 Cycle  50  Pass 1  IDiag  1:
 E= -150.120625335804     Delta-E=        0.000353245487 Rises=F Damp=F
 DIIS: error= 1.33D-02 at cycle  34 NSaved=   7.
 NSaved= 7 IEnMin= 1 EnMin= -150.120997652506     IErMin= 1 ErrMin= 1.17D-02
 ErrMax= 1.33D-02  0.00D+00 EMaxC= 1.00D-01 BMatC= 2.17D-03 BMatP= 1.65D-03
 IDIUse=2 WtCom= 0.00D+00 WtEn= 1.00D+00
 EnCoef did   100 forward-backward iterations
 Rare condition: small coef for last iteration:  0.385D-14
 Coeff-En:   0.204D-01 0.000D+00 0.000D+00 0.884D-03 0.475D+00 0.000D+00
 Coeff-En:   0.503D+00
 Coeff:      0.204D-01 0.000D+00 0.000D+00 0.884D-03 0.475D+00 0.000D+00
 Coeff:      0.503D+00
 Gap=     0.000 Goal=   None    Shift=    0.000
 RMSDP=1.97D-04 MaxDP=2.19D-03 DE= 3.53D-04 OVMax= 3.55D-03

 Cycle  51  Pass 1  IDiag  1:
 E= -150.120977423945     Delta-E=       -0.000352088141 Rises=F Damp=F
 DIIS: error= 1.18D-02 at cycle  35 NSaved=   8.
 NSaved= 8 IEnMin= 1 EnMin= -150.120997652506     IErMin= 1 ErrMin= 1.17D-02
 ErrMax= 1.18D-02  0.00D+00 EMaxC= 1.00D-01 BMatC= 1.69D-03 BMatP= 1.65D-03
 IDIUse=3 WtCom= 8.83D-01 WtEn= 1.17D-01
 Large coefficients: NSaved=  8 BigCof=  125.02 CofMax=   10.00 Det=-1.62D-10
 Inversion failed.  Reducing to  7 matrices.
 Large coefficients: NSaved=  7 BigCof=  123.91 CofMax=   10.00 Det=-1.63D-10
 Inversion failed.  Reducing to  6 matrices.
 Large coefficients: NSaved=  6 BigCof=   24.82 CofMax=   10.00 Det=-1.81D-09
 Inversion failed.  Reducing to  5 matrices.
 Large coefficients: NSaved=  5 BigCof=   16.20 CofMax=   10.00 Det=-5.01D-09
 Inversion failed.  Reducing to  4 matrices.
 EnCoef did   100 forward-backward iterations
 Coeff-Com:  0.192D+00 0.799D+01-0.457D+01-0.261D+01
 Coeff-En:   0.500D+00 0.324D+00 0.199D-01 0.156D+00
 Coeff:      0.228D+00 0.710D+01-0.404D+01-0.229D+01
 Gap=     0.020 Goal=   None    Shift=    0.000
 RMSDP=2.71D-02 MaxDP=2.84D-01 DE=-3.52D-04 OVMax= 7.79D-03

 Cycle  52  Pass 1  IDiag  1:
 E= -150.119359201736     Delta-E=        0.001618222210 Rises=F Damp=F
 DIIS: error= 1.80D-02 at cycle  36 NSaved=   5.
 NSaved= 5 IEnMin= 1 EnMin= -150.120997652506     IErMin= 1 ErrMin= 1.17D-02
 ErrMax= 1.80D-02  0.00D+00 EMaxC= 1.00D-01 BMatC= 3.99D-03 BMatP= 1.65D-03
 IDIUse=2 WtCom= 0.00D+00 WtEn= 1.00D+00
 EnCoef did   100 forward-backward iterations
 Rare condition: small coef for last iteration: -0.127D-14
 Coeff-En:   0.885D-02 0.565D-03 0.641D-04 0.505D+00 0.485D+00
 Coeff:      0.885D-02 0.565D-03 0.641D-04 0.505D+00 0.485D+00
 Gap=     0.000 Goal=   None    Shift=    0.000
 RMSDP=2.71D-02 MaxDP=2.84D-01 DE= 1.62D-03 OVMax= 4.63D-03

 Cycle  53  Pass 1  IDiag  1:
 E= -150.120987091592     Delta-E=       -0.001627889856 Rises=F Damp=F
 DIIS: error= 1.17D-02 at cycle  37 NSaved=   6.
 NSaved= 6 IEnMin= 1 EnMin= -150.120997652506     IErMin= 1 ErrMin= 1.17D-02
 ErrMax= 1.17D-02  0.00D+00 EMaxC= 1.00D-01 BMatC= 1.66D-03 BMatP= 1.65D-03
 IDIUse=3 WtCom= 8.83D-01 WtEn= 1.17D-01
 Large coefficients: NSaved=  6 BigCof=   29.49 CofMax=   10.00 Det=-3.33D-09
 Inversion failed.  Reducing to  5 matrices.
 EnCoef did    66 forward-backward iterations
 Coeff-Com:  0.802D+00-0.867D+01 0.276D+00-0.251D+00 0.884D+01
 Coeff-En:   0.497D+00 0.143D+00 0.000D+00 0.286D-02 0.357D+00
 Coeff:      0.766D+00-0.764D+01 0.244D+00-0.221D+00 0.785D+01
 Gap=     0.003 Goal=   None    Shift=    0.000
 RMSDP=7.89D-05 MaxDP=8.50D-04 DE=-1.63D-03 OVMax= 1.41D-03

 Cycle  54  Pass 1  IDiag  1:
 E= -150.120763532758     Delta-E=        0.000223558834 Rises=F Damp=F
 DIIS: error= 1.27D-02 at cycle  38 NSaved=   6.
 NSaved= 6 IEnMin= 1 EnMin= -150.120997652506     IErMin= 1 ErrMin= 1.17D-02
 ErrMax= 1.27D-02  0.00D+00 EMaxC= 1.00D-01 BMatC= 1.97D-03 BMatP= 1.65D-03
 IDIUse=2 WtCom= 0.00D+00 WtEn= 1.00D+00
 Rare condition: small coef for last iteration: -0.266D-14
 Coeff-En:   0.935D-02 0.170D-03 0.257D-03 0.486D+00 0.000D+00 0.504D+00
 Coeff:      0.935D-02 0.170D-03 0.257D-03 0.486D+00 0.000D+00 0.504D+00
 Gap=     0.000 Goal=   None    Shift=    0.000
 RMSDP=1.49D-04 MaxDP=1.71D-03 DE= 2.24D-04 OVMax= 2.67D-03

 Cycle  55  Pass 1  IDiag  1:
 E= -150.120992209645     Delta-E=       -0.000228676887 Rises=F Damp=F
 DIIS: error= 1.17D-02 at cycle  39 NSaved=   7.
 NSaved= 7 IEnMin= 1 EnMin= -150.120997652506     IErMin= 1 ErrMin= 1.17D-02
 ErrMax= 1.17D-02  0.00D+00 EMaxC= 1.00D-01 BMatC= 1.67D-03 BMatP= 1.65D-03
 IDIUse=3 WtCom= 8.83D-01 WtEn= 1.17D-01
 Large coefficients: NSaved=  7 BigCof=  224.42 CofMax=   10.00 Det=-2.92D-11
 Inversion failed.  Reducing to  6 matrices.
 Large coefficients: NSaved=  6 BigCof=  225.43 CofMax=   10.00 Det=-2.93D-11
 Inversion failed.  Reducing to  5 matrices.
 Large coefficients: NSaved=  5 BigCof=   29.55 CofMax=   10.00 Det=-3.65D-09
 Inversion failed.  Reducing to  4 matrices.
 EnCoef did   100 forward-backward iterations
 Coeff-Com:  0.233D+00 0.990D+01-0.613D+01-0.301D+01
 Coeff-En:   0.500D+00 0.132D+00 0.643D-01 0.303D+00
 Coeff:      0.264D+00 0.876D+01-0.541D+01-0.262D+01
 Gap=     0.017 Goal=   None    Shift=    0.000
 RMSDP=2.71D-02 MaxDP=2.84D-01 DE=-2.29D-04 OVMax= 6.66D-03

 Cycle  56  Pass 1  IDiag  1:
 E= -150.119615262100     Delta-E=        0.001376947544 Rises=F Damp=F
 DIIS: error= 1.72D-02 at cycle  40 NSaved=   5.
 NSaved= 5 IEnMin= 1 EnMin= -150.120997652506     IErMin= 1 ErrMin= 1.17D-02
 ErrMax= 1.72D-02  0.00D+00 EMaxC= 1.00D-01 BMatC= 3.62D-03 BMatP= 1.65D-03
 IDIUse=2 WtCom= 0.00D+00 WtEn= 1.00D+00
 EnCoef did   100 forward-backward iterations
 Rare condition: small coef for last iteration:  0.300D-14
 Coeff-En:   0.667D-02 0.220D-03 0.218D-03 0.505D+00 0.488D+00
 Coeff:      0.667D-02 0.220D-03 0.218D-03 0.505D+00 0.488D+00
 Gap=     0.000 Goal=   None    Shift=    0.000
 RMSDP=2.71D-02 MaxDP=2.84D-01 DE= 1.38D-03 OVMax= 3.87D-03

 Cycle  57  Pass 1  IDiag  1:
 E= -150.120990564682     Delta-E=       -0.001375302582 Rises=F Damp=F
 DIIS: error= 1.17D-02 at cycle  41 NSaved=   6.
 NSaved= 6 IEnMin= 1 EnMin= -150.120997652506     IErMin= 1 ErrMin= 1.17D-02
 ErrMax= 1.17D-02  0.00D+00 EMaxC= 1.00D-01 BMatC= 1.66D-03 BMatP= 1.65D-03
 IDIUse=3 WtCom= 8.83D-01 WtEn= 1.17D-01
 Large coefficients: NSaved=  6 BigCof=   16.11 CofMax=   10.00 Det=-4.52D-09
 Inversion failed.  Reducing to  5 matrices.
 EnCoef did    88 forward-backward iterations
 Coeff-Com:  0.800D+00-0.280D+00-0.374D+00-0.242D+00 0.110D+01
 Coeff-En:   0.499D+00 0.147D+00 0.000D+00 0.119D-02 0.353D+00
 Coeff:      0.765D+00-0.230D+00-0.330D+00-0.214D+00 0.101D+01
 Gap=     0.004 Goal=   None    Shift=    0.000
 RMSDP=8.95D-05 MaxDP=9.74D-04 DE=-1.38D-03 OVMax= 1.61D-03

 Cycle  58  Pass 1  IDiag  1:
 E= -150.120732791614     Delta-E=        0.000257773069 Rises=F Damp=F
 DIIS: error= 1.29D-02 at cycle  42 NSaved=   6.
 NSaved= 6 IEnMin= 1 EnMin= -150.120997652506     IErMin= 1 ErrMin= 1.17D-02
 ErrMax= 1.29D-02  0.00D+00 EMaxC= 1.00D-01 BMatC= 2.02D-03 BMatP= 1.65D-03
 IDIUse=2 WtCom= 0.00D+00 WtEn= 1.00D+00
 Rare condition: small coef for last iteration:  0.111D-14
 Coeff-En:   0.728D-02 0.106D-03 0.377D-03 0.489D+00 0.000D+00 0.503D+00
 Coeff:      0.728D-02 0.106D-03 0.377D-03 0.489D+00 0.000D+00 0.503D+00
 Gap=     0.000 Goal=   None    Shift=    0.000
 RMSDP=1.48D-04 MaxDP=1.67D-03 DE= 2.58D-04 OVMax= 2.69D-03

 Cycle  59  Pass 1  IDiag  1:
 E= -150.120994502465     Delta-E=       -0.000261710852 Rises=F Damp=F
 DIIS: error= 1.17D-02 at cycle  43 NSaved=   7.
 NSaved= 7 IEnMin= 1 EnMin= -150.120997652506     IErMin= 1 ErrMin= 1.17D-02
 ErrMax= 1.17D-02  0.00D+00 EMaxC= 1.00D-01 BMatC= 1.66D-03 BMatP= 1.65D-03
 IDIUse=3 WtCom= 8.83D-01 WtEn= 1.17D-01
 Large coefficients: NSaved=  7 BigCof=  263.86 CofMax=   10.00 Det=-3.73D-11
 Inversion failed.  Reducing to  6 matrices.
 Large coefficients: NSaved=  6 BigCof=  263.47 CofMax=   10.00 Det=-3.74D-11
 Inversion failed.  Reducing to  5 matrices.
 Large coefficients: NSaved=  5 BigCof=   17.78 CofMax=   10.00 Det=-5.91D-09
 Inversion failed.  Reducing to  4 matrices.
 EnCoef did   100 forward-backward iterations
 Coeff-Com:  0.493D+00-0.818D+01-0.976D-01 0.879D+01
 Coeff-En:   0.500D+00 0.000D+00 0.103D+00 0.397D+00
 Coeff:      0.494D+00-0.723D+01-0.742D-01 0.781D+01
 Gap=     0.000 Goal=   None    Shift=    0.000
 RMSDP=2.71D-02 MaxDP=2.82D-01 DE=-2.62D-04 OVMax= 1.77D-03

 Cycle  60  Pass 1  IDiag  1:
 E= -150.120952791598     Delta-E=        0.000041710867 Rises=F Damp=F
 DIIS: error= 1.18D-02 at cycle  44 NSaved=   5.
 NSaved= 5 IEnMin= 1 EnMin= -150.120997652506     IErMin= 1 ErrMin= 1.17D-02
 ErrMax= 1.18D-02  0.00D+00 EMaxC= 1.00D-01 BMatC= 1.70D-03 BMatP= 1.65D-03
 IDIUse=3 WtCom= 8.83D-01 WtEn= 1.17D-01
 EnCoef did   100 forward-backward iterations
 Coeff-Com:  0.236D+00-0.846D+01-0.206D+00 0.918D+01 0.249D+00
 Coeff-En:   0.865D-02 0.000D+00 0.465D-01 0.454D+00 0.491D+00
 Coeff:      0.210D+00-0.747D+01-0.177D+00 0.816D+01 0.277D+00
 Gap=     0.001 Goal=   None    Shift=    0.000
 RMSDP=7.65D-06 MaxDP=7.42D-05 DE= 4.17D-05 OVMax= 1.12D-04

 Cycle  61  Pass 1  IDiag  1:
 E= -150.120924240640     Delta-E=        0.000028550958 Rises=F Damp=F
 DIIS: error= 1.20D-02 at cycle  45 NSaved=   6.
 NSaved= 6 IEnMin= 1 EnMin= -150.120997652506     IErMin= 1 ErrMin= 1.17D-02
 ErrMax= 1.20D-02  0.00D+00 EMaxC= 1.00D-01 BMatC= 1.75D-03 BMatP= 1.65D-03
 IDIUse=3 WtCom= 8.83D-01 WtEn= 1.17D-01
 Large coefficients: NSaved=  6 BigCof=   66.12 CofMax=   10.00 Det=-2.79D-09
 Inversion failed.  Reducing to  5 matrices.
 Large coefficients: NSaved=  5 BigCof=   65.43 CofMax=   10.00 Det=-2.86D-09
 Inversion failed.  Reducing to  4 matrices.
 Large coefficients: NSaved=  4 BigCof=   66.45 CofMax=   10.00 Det=-3.09D-09
 Inversion failed.  Reducing to  3 matrices.
 Large coefficients: NSaved=  3 BigCof=   71.92 CofMax=   10.00 Det=-3.26D-07
 Inversion failed.  Reducing to  2 matrices.
 Large coefficients: NSaved=  2 BigCof=   65.31 CofMax=   10.00 Det=-3.27D-07
 Coeff-Com:  0.653D+02-0.643D+02
 Coeff-En:   0.000D+00 0.100D+01
 Coeff:      0.577D+02-0.567D+02
 Gap=     0.037 Goal=   None    Shift=    0.000
 RMSDP=2.71D-02 MaxDP=2.84D-01 DE= 2.86D-05 OVMax= 8.04D-03

 Cycle  62  Pass 1  IDiag  1:
 E= -150.117499299329     Delta-E=        0.003424941311 Rises=F Damp=F
 DIIS: error= 2.35D-02 at cycle  46 NSaved=   3.
 NSaved= 3 IEnMin= 1 EnMin= -150.120952791598     IErMin= 1 ErrMin= 1.18D-02
 ErrMax= 2.35D-02  0.00D+00 EMaxC= 1.00D-01 BMatC= 6.77D-03 BMatP= 1.70D-03
 IDIUse=2 WtCom= 0.00D+00 WtEn= 1.00D+00
 EnCoef did   100 forward-backward iterations
 Coeff-En:   0.570D-02 0.515D+00 0.479D+00
 Coeff:      0.570D-02 0.515D+00 0.479D+00
 Gap=     0.001 Goal=   None    Shift=    0.000
 RMSDP=5.72D-04 MaxDP=5.02D-03 DE= 3.42D-03 OVMax= 8.10D-03

 Cycle  63  Pass 1  IDiag  1:
 E= -150.120922305858     Delta-E=       -0.003423006529 Rises=F Damp=F
 DIIS: error= 1.19D-02 at cycle  47 NSaved=   4.
 NSaved= 4 IEnMin= 1 EnMin= -150.120952791598     IErMin= 1 ErrMin= 1.18D-02
 ErrMax= 1.19D-02  0.00D+00 EMaxC= 1.00D-01 BMatC= 1.74D-03 BMatP= 1.70D-03
 IDIUse=3 WtCom= 8.83D-01 WtEn= 1.17D-01
 Coeff-Com: -0.420D+01 0.471D+01 0.760D-01 0.415D+00
 Coeff-En:   0.000D+00 0.500D+00 0.000D+00 0.500D+00
 Coeff:     -0.371D+01 0.422D+01 0.671D-01 0.425D+00
 Gap=     0.001 Goal=   None    Shift=    0.000
 RMSDP=7.80D-05 MaxDP=9.31D-04 DE=-3.42D-03 OVMax= 1.18D-03

 Cycle  64  Pass 1  IDiag  1:
 E= -150.120957020626     Delta-E=       -0.000034714769 Rises=F Damp=F
 DIIS: error= 1.19D-02 at cycle  48 NSaved=   5.
 NSaved= 5 IEnMin= 5 EnMin= -150.120957020626     IErMin= 1 ErrMin= 1.18D-02
 ErrMax= 1.19D-02  0.00D+00 EMaxC= 1.00D-01 BMatC= 1.71D-03 BMatP= 1.70D-03
 IDIUse=3 WtCom= 8.83D-01 WtEn= 1.17D-01
 EnCoef did   100 forward-backward iterations
 Coeff-Com: -0.297D+00 0.333D+00-0.931D+00-0.221D+01 0.411D+01
 Coeff-En:   0.585D-02 0.494D+00 0.000D+00 0.493D+00 0.653D-02
 Coeff:     -0.262D+00 0.352D+00-0.822D+00-0.190D+01 0.363D+01
 Gap=     0.030 Goal=   None    Shift=    0.000
 RMSDP=2.71D-02 MaxDP=2.85D-01 DE=-3.47D-05 OVMax= 9.07D-03

 Cycle  65  Pass 1  IDiag  1:
 E= -150.118280531359     Delta-E=        0.002676489267 Rises=F Damp=F
 DIIS: error= 2.13D-02 at cycle  49 NSaved=   6.
 NSaved= 6 IEnMin= 5 EnMin= -150.120957020626     IErMin= 1 ErrMin= 1.18D-02
 ErrMax= 2.13D-02  0.00D+00 EMaxC= 1.00D-01 BMatC= 5.54D-03 BMatP= 1.70D-03
 IDIUse=2 WtCom= 0.00D+00 WtEn= 1.00D+00
 EnCoef did   100 forward-backward iterations
 Rare condition: small coef for last iteration: -0.877D-15
 Coeff-En:   0.000D+00 0.189D-01 0.000D+00 0.000D+00 0.507D+00 0.474D+00
 Coeff:      0.000D+00 0.189D-01 0.000D+00 0.000D+00 0.507D+00 0.474D+00
 Gap=     0.000 Goal=   None    Shift=    0.000
 RMSDP=2.71D-02 MaxDP=2.85D-01 DE= 2.68D-03 OVMax= 6.66D-03

 Cycle  66  Pass 1  IDiag  1:
 E= -150.120984974605     Delta-E=       -0.002704443246 Rises=F Damp=F
 DIIS: error= 1.17D-02 at cycle  50 NSaved=   7.
 NSaved= 7 IEnMin= 7 EnMin= -150.120984974605     IErMin= 7 ErrMin= 1.17D-02
 ErrMax= 1.17D-02  0.00D+00 EMaxC= 1.00D-01 BMatC= 1.68D-03 BMatP= 1.70D-03
 IDIUse=3 WtCom= 8.83D-01 WtEn= 1.17D-01
 EnCoef did   100 forward-backward iterations
 Rare condition: small coef for last iteration:  0.000D+00
 Coeff-Com: -0.415D+00 0.414D+00-0.102D+01-0.444D+01 0.909D+01 0.157D-02
 Coeff-Com: -0.264D+01
 Coeff-En:   0.000D+00 0.189D-01 0.000D+00 0.000D+00 0.181D-03 0.474D+00
 Coeff-En:   0.507D+00
 Coeff:     -0.415D+00 0.414D+00-0.102D+01-0.444D+01 0.909D+01 0.157D-02
 Coeff:     -0.264D+01
 Gap=     0.036 Goal=   None    Shift=    0.000
 RMSDP=2.71D-02 MaxDP=2.86D-01 DE=-2.70D-03 OVMax= 1.16D-02

 Cycle  67  Pass 1  IDiag  1:
 E= -150.117475995544     Delta-E=        0.003508979061 Rises=F Damp=F
 DIIS: error= 2.34D-02 at cycle  51 NSaved=   8.
 NSaved= 8 IEnMin= 7 EnMin= -150.120984974605     IErMin= 7 ErrMin= 1.17D-02
 ErrMax= 2.34D-02  0.00D+00 EMaxC= 1.00D-01 BMatC= 6.69D-03 BMatP= 1.68D-03
 IDIUse=2 WtCom= 0.00D+00 WtEn= 1.00D+00
 EnCoef did   100 forward-backward iterations
 Rare condition: small coef for last iteration:  0.000D+00
 Coeff-En:   0.000D+00 0.274D-01 0.000D+00 0.000D+00 0.857D-02 0.790D-02
 Coeff-En:   0.499D+00 0.458D+00
 Coeff:      0.000D+00 0.274D-01 0.000D+00 0.000D+00 0.857D-02 0.790D-02
 Coeff:      0.499D+00 0.458D+00
 Gap=     0.001 Goal=   None    Shift=    0.000
 RMSDP=2.71D-02 MaxDP=2.86D-01 DE= 3.51D-03 OVMax= 8.67D-03

 Cycle  68  Pass 1  IDiag  1:
 E= -150.120976239279     Delta-E=       -0.003500243736 Rises=F Damp=F
 DIIS: error= 1.18D-02 at cycle  52 NSaved=   9.
 NSaved= 9 IEnMin= 7 EnMin= -150.120984974605     IErMin= 7 ErrMin= 1.17D-02
 ErrMax= 1.18D-02  0.00D+00 EMaxC= 1.00D-01 BMatC= 1.69D-03 BMatP= 1.68D-03
 IDIUse=3 WtCom= 8.83D-01 WtEn= 1.17D-01
 EnCoef did   100 forward-backward iterations
 Coeff-Com:  0.261D+01-0.241D+01-0.856D+00-0.494D+01 0.933D+01 0.763D+00
 Coeff-Com: -0.630D+01-0.778D+00 0.358D+01
 Coeff-En:   0.000D+00 0.492D+00 0.000D+00 0.340D+00 0.185D-01 0.566D-02
 Coeff-En:   0.209D-04 0.185D-02 0.142D+00
 Coeff:      0.230D+01-0.207D+01-0.756D+00-0.432D+01 0.824D+01 0.675D+00
 Coeff:     -0.556D+01-0.687D+00 0.318D+01
 Gap=     0.020 Goal=   None    Shift=    0.000
 RMSDP=2.71D-02 MaxDP=2.84D-01 DE=-3.50D-03 OVMax= 7.18D-03

 Cycle  69  Pass 1  IDiag  1:
 E= -150.119284987148     Delta-E=        0.001691252132 Rises=F Damp=F
 DIIS: error= 1.83D-02 at cycle  53 NSaved=  10.
 NSaved=10 IEnMin= 7 EnMin= -150.120984974605     IErMin= 7 ErrMin= 1.17D-02
 ErrMax= 1.83D-02  0.00D+00 EMaxC= 1.00D-01 BMatC= 4.09D-03 BMatP= 1.68D-03
 IDIUse=2 WtCom= 0.00D+00 WtEn= 1.00D+00
 EnCoef did   100 forward-backward iterations
 Rare condition: small coef for last iteration:  0.301D-14
 Coeff-En:   0.000D+00 0.926D-02 0.000D+00 0.000D+00 0.128D-03 0.000D+00
 Coeff-En:   0.000D+00 0.000D+00 0.506D+00 0.485D+00
 Coeff:      0.000D+00 0.926D-02 0.000D+00 0.000D+00 0.128D-03 0.000D+00
 Coeff:      0.000D+00 0.000D+00 0.506D+00 0.485D+00
 Gap=     0.000 Goal=   None    Shift=    0.000
 RMSDP=2.71D-02 MaxDP=2.84D-01 DE= 1.69D-03 OVMax= 4.44D-03

 Cycle  70  Pass 1  IDiag  1:
 E= -150.120992712870     Delta-E=       -0.001707725723 Rises=F Damp=F
 DIIS: error= 1.17D-02 at cycle  54 NSaved=  11.
 NSaved=11 IEnMin=11 EnMin= -150.120992712870     IErMin=11 ErrMin= 1.17D-02
 ErrMax= 1.17D-02  0.00D+00 EMaxC= 1.00D-01 BMatC= 1.66D-03 BMatP= 1.68D-03
 IDIUse=3 WtCom= 8.83D-01 WtEn= 1.17D-01
 Large coefficients: NSaved= 11 BigCof=   23.55 CofMax=   10.00 Det=-3.59D-10
 Inversion failed.  Reducing to 10 matrices.
 EnCoef did   100 forward-backward iterations
 Coeff-Com:  0.180D+01-0.142D+01-0.609D+00-0.418D+01 0.881D+01-0.187D+01
 Coeff-Com: -0.530D+01 0.324D+01 0.193D+01-0.141D+01
 Coeff-En:   0.000D+00 0.497D+00 0.000D+00 0.160D+00 0.589D-03 0.000D+00
 Coeff-En:   0.000D+00 0.000D+00 0.279D-02 0.340D+00
 Coeff:      0.159D+01-0.119D+01-0.538D+00-0.367D+01 0.778D+01-0.165D+01
 Coeff:     -0.469D+01 0.286D+01 0.171D+01-0.120D+01
 Gap=     0.003 Goal=   None    Shift=    0.000
 RMSDP=2.71D-02 MaxDP=2.83D-01 DE=-1.71D-03 OVMax= 2.36D-03

 Cycle  71  Pass 1  IDiag  1:
 E= -150.120734568231     Delta-E=        0.000258144639 Rises=F Damp=F
 DIIS: error= 1.28D-02 at cycle  55 NSaved=  11.
 NSaved=11 IEnMin=10 EnMin= -150.120992712870     IErMin=10 ErrMin= 1.17D-02
 ErrMax= 1.28D-02  0.00D+00 EMaxC= 1.00D-01 BMatC= 2.01D-03 BMatP= 1.66D-03
 IDIUse=2 WtCom= 0.00D+00 WtEn= 1.00D+00
 EnCoef did   100 forward-backward iterations
 Rare condition: small coef for last iteration:  0.323D-14
 Coeff-En:   0.000D+00 0.395D-03 0.000D+00 0.601D-04 0.705D-04 0.000D+00
 Coeff-En:   0.000D+00 0.000D+00 0.000D+00 0.501D+00 0.498D+00
 Coeff:      0.000D+00 0.395D-03 0.000D+00 0.601D-04 0.705D-04 0.000D+00
 Coeff:      0.000D+00 0.000D+00 0.000D+00 0.501D+00 0.498D+00
 Gap=     0.000 Goal=   None    Shift=    0.000
 RMSDP=2.71D-02 MaxDP=2.83D-01 DE= 2.58D-04 OVMax= 1.24D-03

 Cycle  72  Pass 1  IDiag  1:
 E= -150.120996074585     Delta-E=       -0.000261506354 Rises=F Damp=F
 DIIS: error= 1.17D-02 at cycle  56 NSaved=  12.
 NSaved=12 IEnMin=12 EnMin= -150.120996074585     IErMin=12 ErrMin= 1.17D-02
 ErrMax= 1.17D-02  0.00D+00 EMaxC= 1.00D-01 BMatC= 1.65D-03 BMatP= 1.66D-03
 IDIUse=3 WtCom= 8.83D-01 WtEn= 1.17D-01
 Large coefficients: NSaved= 12 BigCof=   14.51 CofMax=   10.00 Det=-7.83D-11
 Inversion failed.  Reducing to 11 matrices.
 Large coefficients: NSaved= 11 BigCof=   14.68 CofMax=   10.00 Det=-1.12D-10
 Inversion failed.  Reducing to 10 matrices.
 EnCoef did   100 forward-backward iterations
 Coeff-Com:  0.115D+01-0.106D+01-0.664D+00-0.287D+01-0.106D+01 0.939D+00
 Coeff-Com: -0.225D+01-0.226D+01 0.312D+01 0.596D+01
 Coeff-En:   0.000D+00 0.285D-01 0.282D-01 0.000D+00 0.000D+00 0.000D+00
 Coeff-En:   0.000D+00 0.000D+00 0.470D+00 0.473D+00
 Coeff:      0.101D+01-0.932D+00-0.583D+00-0.253D+01-0.935D+00 0.829D+00
 Coeff:     -0.199D+01-0.200D+01 0.281D+01 0.532D+01
 Gap=     0.029 Goal=   None    Shift=    0.000
 RMSDP=5.38D-04 MaxDP=5.57D-03 DE=-2.62D-04 OVMax= 8.86D-03

 Cycle  73  Pass 1  IDiag  1:
 E= -150.118316358039     Delta-E=        0.002679716545 Rises=F Damp=F
 DIIS: error= 2.12D-02 at cycle  57 NSaved=  11.
 NSaved=11 IEnMin=10 EnMin= -150.120996074585     IErMin=10 ErrMin= 1.17D-02
 ErrMax= 2.12D-02  0.00D+00 EMaxC= 1.00D-01 BMatC= 5.49D-03 BMatP= 1.65D-03
 IDIUse=2 WtCom= 0.00D+00 WtEn= 1.00D+00
 EnCoef did   100 forward-backward iterations
 Rare condition: small coef for last iteration:  0.210D-15
 Coeff-En:   0.000D+00 0.190D-01 0.000D+00 0.000D+00 0.000D+00 0.932D-02
 Coeff-En:   0.894D-02 0.184D-01 0.486D+00 0.000D+00 0.458D+00
 Coeff:      0.000D+00 0.190D-01 0.000D+00 0.000D+00 0.000D+00 0.932D-02
 Coeff:      0.894D-02 0.184D-01 0.486D+00 0.000D+00 0.458D+00
 Gap=     0.000 Goal=   None    Shift=    0.000
 RMSDP=5.81D-04 MaxDP=6.14D-03 DE= 2.68D-03 OVMax= 1.01D-02

 Cycle  74  Pass 1  IDiag  1:
 E= -150.120967097920     Delta-E=       -0.002650739881 Rises=F Damp=F
 DIIS: error= 1.18D-02 at cycle  58 NSaved=  12.
 NSaved=12 IEnMin=10 EnMin= -150.120996074585     IErMin=10 ErrMin= 1.17D-02
 ErrMax= 1.18D-02  0.00D+00 EMaxC= 1.00D-01 BMatC= 1.71D-03 BMatP= 1.65D-03
 IDIUse=3 WtCom= 8.83D-01 WtEn= 1.17D-01
 EnCoef did   100 forward-backward iterations
 Coeff-Com:  0.691D+00-0.697D+00-0.159D+01-0.155D+01-0.630D+01 0.821D+00
 Coeff-Com: -0.158D+01 0.487D+01 0.224D+01 0.400D+01-0.364D+00 0.465D+00
 Coeff-En:   0.000D+00 0.750D-01 0.885D-01 0.198D-03 0.000D+00 0.000D+00
 Coeff-En:   0.000D+00 0.202D-01 0.424D+00 0.104D+00 0.000D+00 0.288D+00
 Coeff:      0.610D+00-0.607D+00-0.140D+01-0.137D+01-0.557D+01 0.725D+00
 Coeff:     -0.139D+01 0.430D+01 0.203D+01 0.355D+01-0.322D+00 0.444D+00
 Gap=     0.010 Goal=   None    Shift=    0.000
 RMSDP=2.82D-04 MaxDP=2.90D-03 DE=-2.65D-03 OVMax= 5.15D-03

 Cycle  75  Pass 1  IDiag  1:
 E= -150.120225810189     Delta-E=        0.000741287731 Rises=F Damp=F
 DIIS: error= 1.49D-02 at cycle  59 NSaved=  13.
 NSaved=13 IEnMin=10 EnMin= -150.120996074585     IErMin=10 ErrMin= 1.17D-02
 ErrMax= 1.49D-02  0.00D+00 EMaxC= 1.00D-01 BMatC= 2.74D-03 BMatP= 1.65D-03
 IDIUse=2 WtCom= 0.00D+00 WtEn= 1.00D+00
 EnCoef did   100 forward-backward iterations
 Rare condition: small coef for last iteration: -0.185D-15
 Coeff-En:   0.000D+00 0.312D-02 0.000D+00 0.000D+00 0.000D+00 0.000D+00
 Coeff-En:   0.000D+00 0.268D-02 0.500D+00 0.000D+00 0.000D+00 0.000D+00
 Coeff-En:   0.494D+00
 Coeff:      0.000D+00 0.312D-02 0.000D+00 0.000D+00 0.000D+00 0.000D+00
 Coeff:      0.000D+00 0.268D-02 0.500D+00 0.000D+00 0.000D+00 0.000D+00
 Coeff:      0.494D+00
 Gap=     0.000 Goal=   None    Shift=    0.000
 RMSDP=2.69D-04 MaxDP=2.84D-03 DE= 7.41D-04 OVMax= 4.88D-03

 Cycle  76  Pass 1  IDiag  1:
 E= -150.120994119460     Delta-E=       -0.000768309271 Rises=F Damp=F
 DIIS: error= 1.17D-02 at cycle  60 NSaved=  14.
 NSaved=14 IEnMin=10 EnMin= -150.120996074585     IErMin=10 ErrMin= 1.17D-02
 ErrMax= 1.17D-02  0.00D+00 EMaxC= 1.00D-01 BMatC= 1.66D-03 BMatP= 1.65D-03
 IDIUse=3 WtCom= 8.83D-01 WtEn= 1.17D-01
 Large coefficients: NSaved= 14 BigCof=  102.02 CofMax=   10.00 Det=-8.33D-13
 Inversion failed.  Reducing to 13 matrices.
 Large coefficients: NSaved= 13 BigCof=   78.57 CofMax=   10.00 Det=-8.34D-13
 Inversion failed.  Reducing to 12 matrices.
 Large coefficients: NSaved= 12 BigCof=   74.75 CofMax=   10.00 Det=-8.37D-13
 Inversion failed.  Reducing to 11 matrices.
 Large coefficients: NSaved= 11 BigCof=   77.03 CofMax=   10.00 Det=-8.38D-13
 Inversion failed.  Reducing to 10 matrices.
 Large coefficients: NSaved= 10 BigCof=   29.98 CofMax=   10.00 Det=-2.04D-12
 Inversion failed.  Reducing to  9 matrices.
 Large coefficients: NSaved=  9 BigCof=   25.46 CofMax=   10.00 Det=-2.08D-12
 Inversion failed.  Reducing to  8 matrices.
 Large coefficients: NSaved=  8 BigCof=   23.13 CofMax=   10.00 Det=-2.09D-12
 Inversion failed.  Reducing to  7 matrices.
 Large coefficients: NSaved=  7 BigCof=   26.10 CofMax=   10.00 Det=-6.15D-12
 Inversion failed.  Reducing to  6 matrices.
 Large coefficients: NSaved=  6 BigCof=   42.74 CofMax=   10.00 Det=-2.89D-10
 Inversion failed.  Reducing to  5 matrices.
 Large coefficients: NSaved=  5 BigCof=   41.80 CofMax=   10.00 Det=-2.91D-10
 Inversion failed.  Reducing to  4 matrices.
 Large coefficients: NSaved=  4 BigCof=   19.56 CofMax=   10.00 Det=-1.02D-08
 Inversion failed.  Reducing to  3 matrices.
 Coeff-Com:  0.946D+01-0.353D+01-0.493D+01
 Coeff-En:   0.677D+00 0.000D+00 0.323D+00
 Coeff:      0.844D+01-0.312D+01-0.432D+01
 Gap=     0.036 Goal=   None    Shift=    0.000
 RMSDP=2.71D-02 MaxDP=2.86D-01 DE=-7.68D-04 OVMax= 1.19D-02

 Cycle  77  Pass 1  IDiag  1:
 E= -150.117436916924     Delta-E=        0.003557202536 Rises=F Damp=F
 DIIS: error= 2.34D-02 at cycle  61 NSaved=   4.
 NSaved= 4 IEnMin= 1 EnMin= -150.120996074585     IErMin= 1 ErrMin= 1.17D-02
 ErrMax= 2.34D-02  0.00D+00 EMaxC= 1.00D-01 BMatC= 6.75D-03 BMatP= 1.65D-03
 IDIUse=2 WtCom= 0.00D+00 WtEn= 1.00D+00
 EnCoef did   100 forward-backward iterations
 Coeff-En:   0.241D-01 0.000D+00 0.498D+00 0.478D+00
 Coeff:      0.241D-01 0.000D+00 0.498D+00 0.478D+00
 Gap=     0.001 Goal=   None    Shift=    0.000
 RMSDP=6.63D-04 MaxDP=6.80D-03 DE= 3.56D-03 OVMax= 1.12D-02

 Cycle  78  Pass 1  IDiag  1:
 E= -150.120956911899     Delta-E=       -0.003519994975 Rises=F Damp=F
 DIIS: error= 1.19D-02 at cycle  62 NSaved=   5.
 NSaved= 5 IEnMin= 1 EnMin= -150.120996074585     IErMin= 1 ErrMin= 1.17D-02
 ErrMax= 1.19D-02  0.00D+00 EMaxC= 1.00D-01 BMatC= 1.71D-03 BMatP= 1.65D-03
 IDIUse=3 WtCom= 8.83D-01 WtEn= 1.17D-01
 EnCoef did   100 forward-backward iterations
 Coeff-Com:  0.790D+01-0.292D+01-0.405D+01 0.212D-01 0.553D-01
 Coeff-En:   0.716D-01 0.000D+00 0.429D+00 0.000D+00 0.499D+00
 Coeff:      0.698D+01-0.258D+01-0.353D+01 0.187D-01 0.107D+00
 Gap=     0.027 Goal=   None    Shift=    0.000
 RMSDP=5.08D-04 MaxDP=5.29D-03 DE=-3.52D-03 OVMax= 8.69D-03

 Cycle  79  Pass 1  IDiag  1:
 E= -150.118568407087     Delta-E=        0.002388504812 Rises=F Damp=F
 DIIS: error= 2.04D-02 at cycle  63 NSaved=   6.
 NSaved= 6 IEnMin= 1 EnMin= -150.120996074585     IErMin= 1 ErrMin= 1.17D-02
 ErrMax= 2.04D-02  0.00D+00 EMaxC= 1.00D-01 BMatC= 5.12D-03 BMatP= 1.65D-03
 IDIUse=2 WtCom= 0.00D+00 WtEn= 1.00D+00
 EnCoef did   100 forward-backward iterations
 Rare condition: small coef for last iteration:  0.915D-15
 Coeff-En:   0.309D-03 0.000D+00 0.515D+00 0.000D+00 0.000D+00 0.485D+00
 Coeff:      0.309D-03 0.000D+00 0.515D+00 0.000D+00 0.000D+00 0.485D+00
 Gap=     0.000 Goal=   None    Shift=    0.000
 RMSDP=5.03D-04 MaxDP=5.23D-03 DE= 2.39D-03 OVMax= 8.50D-03

 Cycle  80  Pass 1  IDiag  1:
 E= -150.120972534714     Delta-E=       -0.002404127627 Rises=F Damp=F
 DIIS: error= 1.18D-02 at cycle  64 NSaved=   7.
 NSaved= 7 IEnMin= 1 EnMin= -150.120996074585     IErMin= 1 ErrMin= 1.17D-02
 ErrMax= 1.18D-02  0.00D+00 EMaxC= 1.00D-01 BMatC= 1.69D-03 BMatP= 1.65D-03
 IDIUse=3 WtCom= 8.83D-01 WtEn= 1.17D-01
 Large coefficients: NSaved=  7 BigCof=   26.62 CofMax=   10.00 Det=-3.74D-09
 Inversion failed.  Reducing to  6 matrices.
 Large coefficients: NSaved=  6 BigCof=   20.70 CofMax=   10.00 Det=-5.17D-09
 Inversion failed.  Reducing to  5 matrices.
 Large coefficients: NSaved=  5 BigCof=   12.93 CofMax=   10.00 Det=-7.88D-08
 Inversion failed.  Reducing to  4 matrices.
 EnCoef did   100 forward-backward iterations
 Coeff-Com:  0.924D+00-0.505D+00-0.228D+00 0.810D+00
 Coeff-En:   0.679D-01 0.433D+00 0.000D+00 0.500D+00
 Coeff:      0.824D+00-0.396D+00-0.202D+00 0.774D+00
 Gap=     0.005 Goal=   None    Shift=    0.000
 RMSDP=2.71D-02 MaxDP=2.83D-01 DE=-2.40D-03 OVMax= 2.63D-03

 Cycle  81  Pass 1  IDiag  1:
 E= -150.120621509006     Delta-E=        0.000351025708 Rises=F Damp=F
 DIIS: error= 1.33D-02 at cycle  65 NSaved=   5.
 NSaved= 5 IEnMin= 1 EnMin= -150.120996074585     IErMin= 1 ErrMin= 1.17D-02
 ErrMax= 1.33D-02  0.00D+00 EMaxC= 1.00D-01 BMatC= 2.18D-03 BMatP= 1.65D-03
 IDIUse=2 WtCom= 0.00D+00 WtEn= 1.00D+00
 EnCoef did   100 forward-backward iterations
 Coeff-En:   0.378D-01 0.185D-03 0.000D+00 0.502D+00 0.460D+00
 Coeff:      0.378D-01 0.185D-03 0.000D+00 0.502D+00 0.460D+00
 Gap=     0.000 Goal=   None    Shift=    0.000
 RMSDP=2.71D-02 MaxDP=2.82D-01 DE= 3.51D-04 OVMax= 1.17D-03

 Cycle  82  Pass 1  IDiag  1:
 E= -150.120994569067     Delta-E=       -0.000373060062 Rises=F Damp=F
 DIIS: error= 1.17D-02 at cycle  66 NSaved=   6.
 NSaved= 6 IEnMin= 1 EnMin= -150.120996074585     IErMin= 1 ErrMin= 1.17D-02
 ErrMax= 1.17D-02  0.00D+00 EMaxC= 1.00D-01 BMatC= 1.65D-03 BMatP= 1.65D-03
 IDIUse=3 WtCom= 8.83D-01 WtEn= 1.17D-01
 EnCoef did   100 forward-backward iterations
 Coeff-Com:  0.678D+01-0.311D+01-0.647D+00-0.377D+01-0.320D+01 0.495D+01
 Coeff-En:   0.341D-01 0.102D-03 0.000D+00 0.233D-01 0.464D+00 0.479D+00
 Coeff:      0.599D+01-0.275D+01-0.571D+00-0.333D+01-0.277D+01 0.443D+01
 Gap=     0.002 Goal=   None    Shift=    0.000
 RMSDP=2.71D-02 MaxDP=2.82D-01 DE=-3.73D-04 OVMax= 1.59D-03

 Cycle  83  Pass 1  IDiag  1:
 E= -150.120835282491     Delta-E=        0.000159286576 Rises=F Damp=F
 DIIS: error= 1.23D-02 at cycle  67 NSaved=   7.
 NSaved= 7 IEnMin= 1 EnMin= -150.120996074585     IErMin= 1 ErrMin= 1.17D-02
 ErrMax= 1.23D-02  0.00D+00 EMaxC= 1.00D-01 BMatC= 1.86D-03 BMatP= 1.65D-03
 IDIUse=2 WtCom= 0.00D+00 WtEn= 1.00D+00
 EnCoef did   100 forward-backward iterations
 Coeff-En:   0.638D-02 0.000D+00 0.000D+00 0.000D+00 0.000D+00 0.501D+00
 Coeff-En:   0.493D+00
 Coeff:      0.638D-02 0.000D+00 0.000D+00 0.000D+00 0.000D+00 0.501D+00
 Coeff:      0.493D+00
 Gap=     0.000 Goal=   None    Shift=    0.000
 RMSDP=2.71D-02 MaxDP=2.82D-01 DE= 1.59D-04 OVMax= 1.18D-03

 Cycle  84  Pass 1  IDiag  1:
 E= -150.120998076583     Delta-E=       -0.000162794091 Rises=F Damp=F
 DIIS: error= 1.17D-02 at cycle  68 NSaved=   8.
 NSaved= 8 IEnMin= 8 EnMin= -150.120998076583     IErMin= 8 ErrMin= 1.17D-02
 ErrMax= 1.17D-02  0.00D+00 EMaxC= 1.00D-01 BMatC= 1.65D-03 BMatP= 1.65D-03
 IDIUse=3 WtCom= 8.83D-01 WtEn= 1.17D-01
 EnCoef did   100 forward-backward iterations
 Rare condition: small coef for last iteration: -0.132D-14
 Coeff-Com:  0.783D+01-0.339D+01-0.396D+00-0.307D+01-0.555D+01 0.291D+01
 Coeff-Com:  0.180D+01 0.876D+00
 Coeff-En:   0.808D-04 0.000D+00 0.000D+00 0.000D+00 0.000D+00 0.589D-04
 Coeff-En:   0.499D+00 0.501D+00
 Coeff:      0.783D+01-0.339D+01-0.396D+00-0.307D+01-0.555D+01 0.291D+01
 Coeff:      0.180D+01 0.876D+00
 Gap=     0.013 Goal=   None    Shift=    0.000
 RMSDP=2.87D-04 MaxDP=3.04D-03 DE=-1.63D-04 OVMax= 5.04D-03

 Cycle  85  Pass 1  IDiag  1:
 E= -150.119933492467     Delta-E=        0.001064584115 Rises=F Damp=F
 DIIS: error= 1.60D-02 at cycle  69 NSaved=   9.
 NSaved= 9 IEnMin= 8 EnMin= -150.120998076583     IErMin= 8 ErrMin= 1.17D-02
 ErrMax= 1.60D-02  0.00D+00 EMaxC= 1.00D-01 BMatC= 3.15D-03 BMatP= 1.65D-03
 IDIUse=2 WtCom= 0.00D+00 WtEn= 1.00D+00
 EnCoef did   100 forward-backward iterations
 Rare condition: small coef for last iteration:  0.000D+00
 Coeff-En:   0.748D-04 0.480D-02 0.000D+00 0.398D-02 0.395D-02 0.451D-02
 Coeff-En:   0.497D+00 0.000D+00 0.486D+00
 Coeff:      0.748D-04 0.480D-02 0.000D+00 0.398D-02 0.395D-02 0.451D-02
 Coeff:      0.497D+00 0.000D+00 0.486D+00
 Gap=     0.000 Goal=   None    Shift=    0.000
 RMSDP=3.30D-04 MaxDP=3.49D-03 DE= 1.06D-03 OVMax= 5.97D-03

 Cycle  86  Pass 1  IDiag  1:
 E= -150.120990008000     Delta-E=       -0.001056515532 Rises=F Damp=F
 DIIS: error= 1.17D-02 at cycle  70 NSaved=  10.
 NSaved=10 IEnMin= 8 EnMin= -150.120998076583     IErMin= 8 ErrMin= 1.17D-02
 ErrMax= 1.17D-02  0.00D+00 EMaxC= 1.00D-01 BMatC= 1.67D-03 BMatP= 1.65D-03
 IDIUse=3 WtCom= 8.83D-01 WtEn= 1.17D-01
 EnCoef did   100 forward-backward iterations
 Coeff-Com:  0.808D+01-0.350D+01 0.823D-01-0.293D+01-0.567D+01-0.140D+01
 Coeff-Com:  0.180D+01 0.724D+01-0.892D+00-0.180D+01
 Coeff-En:   0.228D-01 0.000D+00 0.000D+00 0.109D-01 0.000D+00 0.559D-01
 Coeff-En:   0.476D+00 0.793D-01 0.000D+00 0.355D+00
 Coeff:      0.714D+01-0.309D+01 0.727D-01-0.259D+01-0.500D+01-0.123D+01
 Coeff:      0.164D+01 0.640D+01-0.788D+00-0.155D+01
 Gap=     0.013 Goal=   None    Shift=    0.000
 RMSDP=3.19D-04 MaxDP=3.40D-03 DE=-1.06D-03 OVMax= 5.78D-03

 Cycle  87  Pass 1  IDiag  1:
 E= -150.119969723318     Delta-E=        0.001020284681 Rises=F Damp=F
 DIIS: error= 1.59D-02 at cycle  71 NSaved=  11.
 NSaved=11 IEnMin= 8 EnMin= -150.120998076583     IErMin= 8 ErrMin= 1.17D-02
 ErrMax= 1.59D-02  0.00D+00 EMaxC= 1.00D-01 BMatC= 3.11D-03 BMatP= 1.65D-03
 IDIUse=2 WtCom= 0.00D+00 WtEn= 1.00D+00
 EnCoef did   100 forward-backward iterations
 Rare condition: small coef for last iteration:  0.162D-14
 Coeff-En:   0.901D-04 0.449D-02 0.000D+00 0.370D-02 0.367D-02 0.423D-02
 Coeff-En:   0.497D+00 0.000D+00 0.000D+00 0.000D+00 0.487D+00
 Coeff:      0.901D-04 0.449D-02 0.000D+00 0.370D-02 0.367D-02 0.423D-02
 Coeff:      0.497D+00 0.000D+00 0.000D+00 0.000D+00 0.487D+00
 Gap=     0.000 Goal=   None    Shift=    0.000
 RMSDP=3.16D-04 MaxDP=3.37D-03 DE= 1.02D-03 OVMax= 5.72D-03

 Cycle  88  Pass 1  IDiag  1:
 E= -150.120990916019     Delta-E=       -0.001021192700 Rises=F Damp=F
 DIIS: error= 1.17D-02 at cycle  72 NSaved=  12.
 NSaved=12 IEnMin= 8 EnMin= -150.120998076583     IErMin= 8 ErrMin= 1.17D-02
 ErrMax= 1.17D-02  0.00D+00 EMaxC= 1.00D-01 BMatC= 1.67D-03 BMatP= 1.65D-03
 IDIUse=3 WtCom= 8.83D-01 WtEn= 1.17D-01
 Large coefficients: NSaved= 12 BigCof=   61.19 CofMax=   10.00 Det=-5.49D-13
 Inversion failed.  Reducing to 11 matrices.
 Large coefficients: NSaved= 11 BigCof=   60.84 CofMax=   10.00 Det=-6.31D-13
 Inversion failed.  Reducing to 10 matrices.
 Large coefficients: NSaved= 10 BigCof=   66.57 CofMax=   10.00 Det=-6.40D-13
 Inversion failed.  Reducing to  9 matrices.
 Large coefficients: NSaved=  9 BigCof=  181.15 CofMax=   10.00 Det=-7.55D-13
 Inversion failed.  Reducing to  8 matrices.
 Large coefficients: NSaved=  8 BigCof=  158.94 CofMax=   10.00 Det=-8.09D-13
 Inversion failed.  Reducing to  7 matrices.
 Large coefficients: NSaved=  7 BigCof=   52.94 CofMax=   10.00 Det=-3.62D-12
 Inversion failed.  Reducing to  6 matrices.
 Large coefficients: NSaved=  6 BigCof=   53.60 CofMax=   10.00 Det=-4.94D-10
 Inversion failed.  Reducing to  5 matrices.
 Large coefficients: NSaved=  5 BigCof=   53.45 CofMax=   10.00 Det=-4.95D-10
 Inversion failed.  Reducing to  4 matrices.
 EnCoef did   100 forward-backward iterations
 Coeff-Com:  0.625D-01 0.799D+01-0.237D+01-0.468D+01
 Coeff-En:   0.500D+00 0.106D+00 0.000D+00 0.394D+00
 Coeff:      0.114D+00 0.707D+01-0.209D+01-0.409D+01
 Gap=     0.028 Goal=   None    Shift=    0.000
 RMSDP=2.71D-02 MaxDP=2.85D-01 DE=-1.02D-03 OVMax= 9.75D-03

 Cycle  89  Pass 1  IDiag  1:
 E= -150.118467678231     Delta-E=        0.002523237788 Rises=F Damp=F
 DIIS: error= 2.07D-02 at cycle  73 NSaved=   5.
 NSaved= 5 IEnMin= 2 EnMin= -150.120998076583     IErMin= 2 ErrMin= 1.17D-02
 ErrMax= 2.07D-02  0.00D+00 EMaxC= 1.00D-01 BMatC= 5.27D-03 BMatP= 1.65D-03
 IDIUse=2 WtCom= 0.00D+00 WtEn= 1.00D+00
 EnCoef did   100 forward-backward iterations
 Rare condition: small coef for last iteration:  0.123D-14
 Coeff-En:   0.170D-01 0.294D-03 0.000D+00 0.507D+00 0.476D+00
 Coeff:      0.170D-01 0.294D-03 0.000D+00 0.507D+00 0.476D+00
 Gap=     0.000 Goal=   None    Shift=    0.000
 RMSDP=2.71D-02 MaxDP=2.85D-01 DE= 2.52D-03 OVMax= 6.55D-03

 Cycle  90  Pass 1  IDiag  1:
 E= -150.120984751512     Delta-E=       -0.002517073281 Rises=F Damp=F
 DIIS: error= 1.17D-02 at cycle  74 NSaved=   6.
 NSaved= 6 IEnMin= 2 EnMin= -150.120998076583     IErMin= 2 ErrMin= 1.17D-02
 ErrMax= 1.17D-02  0.00D+00 EMaxC= 1.00D-01 BMatC= 1.67D-03 BMatP= 1.65D-03
 IDIUse=3 WtCom= 8.83D-01 WtEn= 1.17D-01
 Large coefficients: NSaved=  6 BigCof=   15.32 CofMax=   10.00 Det=-1.82D-08
 Inversion failed.  Reducing to  5 matrices.
 EnCoef did   100 forward-backward iterations
 Coeff-Com:  0.971D+00 0.221D+01-0.647D+00-0.342D+00-0.119D+01
 Coeff-En:   0.486D+00 0.178D+00 0.000D+00 0.136D-01 0.322D+00
 Coeff:      0.914D+00 0.197D+01-0.572D+00-0.300D+00-0.101D+01
 Gap=     0.008 Goal=   None    Shift=    0.000
 RMSDP=1.84D-04 MaxDP=2.01D-03 DE=-2.52D-03 OVMax= 3.26D-03

 Cycle  91  Pass 1  IDiag  1:
 E= -150.120390889682     Delta-E=        0.000593861831 Rises=F Damp=F
 DIIS: error= 1.43D-02 at cycle  75 NSaved=   6.
 NSaved= 6 IEnMin= 2 EnMin= -150.120998076583     IErMin= 2 ErrMin= 1.17D-02
 ErrMax= 1.43D-02  0.00D+00 EMaxC= 1.00D-01 BMatC= 2.51D-03 BMatP= 1.65D-03
 IDIUse=2 WtCom= 0.00D+00 WtEn= 1.00D+00
 EnCoef did   100 forward-backward iterations
 Rare condition: small coef for last iteration: -0.121D-14
 Coeff-En:   0.197D-01 0.000D+00 0.213D-02 0.478D+00 0.000D+00 0.501D+00
 Coeff:      0.197D-01 0.000D+00 0.213D-02 0.478D+00 0.000D+00 0.501D+00
 Gap=     0.000 Goal=   None    Shift=    0.000
 RMSDP=2.49D-04 MaxDP=2.66D-03 DE= 5.94D-04 OVMax= 4.53D-03

 Cycle  92  Pass 1  IDiag  1:
 E= -150.120975628762     Delta-E=       -0.000584739080 Rises=F Damp=F
 DIIS: error= 1.18D-02 at cycle  76 NSaved=   7.
 NSaved= 7 IEnMin= 2 EnMin= -150.120998076583     IErMin= 2 ErrMin= 1.17D-02
 ErrMax= 1.18D-02  0.00D+00 EMaxC= 1.00D-01 BMatC= 1.69D-03 BMatP= 1.65D-03
 IDIUse=3 WtCom= 8.83D-01 WtEn= 1.17D-01
 Large coefficients: NSaved=  7 BigCof=   14.55 CofMax=   10.00 Det=-2.00D-09
 Inversion failed.  Reducing to  6 matrices.
 Large coefficients: NSaved=  6 BigCof=   14.46 CofMax=   10.00 Det=-2.00D-09
 Inversion failed.  Reducing to  5 matrices.
 EnCoef did   100 forward-backward iterations
 Coeff-Com: -0.946D-02 0.957D+01 0.193D+00-0.433D+01-0.442D+01
 Coeff-En:   0.500D+00 0.136D+00 0.907D-03 0.387D-04 0.363D+00
 Coeff:      0.500D-01 0.847D+01 0.171D+00-0.383D+01-0.387D+01
 Gap=     0.033 Goal=   None    Shift=    0.000
 RMSDP=2.71D-02 MaxDP=2.86D-01 DE=-5.85D-04 OVMax= 1.14D-02

 Cycle  93  Pass 1  IDiag  1:
 E= -150.117922454802     Delta-E=        0.003053173960 Rises=F Damp=F
 DIIS: error= 2.22D-02 at cycle  77 NSaved=   6.
 NSaved= 6 IEnMin= 2 EnMin= -150.120998076583     IErMin= 2 ErrMin= 1.17D-02
 ErrMax= 2.22D-02  0.00D+00 EMaxC= 1.00D-01 BMatC= 6.05D-03 BMatP= 1.65D-03
 IDIUse=2 WtCom= 0.00D+00 WtEn= 1.00D+00
 EnCoef did   100 forward-backward iterations
 Rare condition: small coef for last iteration: -0.987D-15
 Coeff-En:   0.228D-01 0.317D-03 0.222D-03 0.000D+00 0.507D+00 0.470D+00
 Coeff:      0.228D-01 0.317D-03 0.222D-03 0.000D+00 0.507D+00 0.470D+00
 Gap=     0.000 Goal=   None    Shift=    0.000
 RMSDP=2.71D-02 MaxDP=2.85D-01 DE= 3.05D-03 OVMax= 7.97D-03

 Cycle  94  Pass 1  IDiag  1:
 E= -150.120977628106     Delta-E=       -0.003055173305 Rises=F Damp=F
 DIIS: error= 1.18D-02 at cycle  78 NSaved=   7.
 NSaved= 7 IEnMin= 2 EnMin= -150.120998076583     IErMin= 2 ErrMin= 1.17D-02
 ErrMax= 1.18D-02  0.00D+00 EMaxC= 1.00D-01 BMatC= 1.68D-03 BMatP= 1.65D-03
 IDIUse=3 WtCom= 8.83D-01 WtEn= 1.17D-01
 Large coefficients: NSaved=  7 BigCof=   16.26 CofMax=   10.00 Det=-1.72D-09
 Inversion failed.  Reducing to  6 matrices.
 EnCoef did   100 forward-backward iterations
 Coeff-Com:  0.951D+00 0.900D+01-0.923D+01 0.561D+01-0.321D+00-0.501D+01
 Coeff-En:   0.485D+00 0.183D+00 0.000D+00 0.000D+00 0.147D-01 0.318D+00
 Coeff:      0.897D+00 0.797D+01-0.815D+01 0.496D+01-0.282D+00-0.439D+01
 Gap=     0.008 Goal=   None    Shift=    0.000
 RMSDP=1.80D-04 MaxDP=1.96D-03 DE=-3.06D-03 OVMax= 3.18D-03

 Cycle  95  Pass 1  IDiag  1:
 E= -150.120383064381     Delta-E=        0.000594563725 Rises=F Damp=F
 DIIS: error= 1.44D-02 at cycle  79 NSaved=   7.
 NSaved= 7 IEnMin= 2 EnMin= -150.120998076583     IErMin= 2 ErrMin= 1.17D-02
 ErrMax= 1.44D-02  0.00D+00 EMaxC= 1.00D-01 BMatC= 2.52D-03 BMatP= 1.65D-03
 IDIUse=2 WtCom= 0.00D+00 WtEn= 1.00D+00
 EnCoef did   100 forward-backward iterations
 Rare condition: small coef for last iteration: -0.587D-15
 Coeff-En:   0.257D-01 0.000D+00 0.618D-04 0.225D-02 0.471D+00 0.000D+00
 Coeff-En:   0.501D+00
 Coeff:      0.257D-01 0.000D+00 0.618D-04 0.225D-02 0.471D+00 0.000D+00
 Coeff:      0.501D+00
 Gap=     0.000 Goal=   None    Shift=    0.000
 RMSDP=2.58D-04 MaxDP=2.74D-03 DE= 5.95D-04 OVMax= 4.68D-03

 Cycle  96  Pass 1  IDiag  1:
 E= -150.120967298855     Delta-E=       -0.000584234473 Rises=F Damp=F
 DIIS: error= 1.18D-02 at cycle  80 NSaved=   8.
 NSaved= 8 IEnMin= 2 EnMin= -150.120998076583     IErMin= 2 ErrMin= 1.17D-02
 ErrMax= 1.18D-02  0.00D+00 EMaxC= 1.00D-01 BMatC= 1.71D-03 BMatP= 1.65D-03
 IDIUse=3 WtCom= 8.83D-01 WtEn= 1.17D-01
 Large coefficients: NSaved=  8 BigCof=   16.21 CofMax=   10.00 Det=-8.57D-10
 Inversion failed.  Reducing to  7 matrices.
 Large coefficients: NSaved=  7 BigCof=   16.09 CofMax=   10.00 Det=-8.57D-10
 Inversion failed.  Reducing to  6 matrices.
 Large coefficients: NSaved=  6 BigCof=   14.20 CofMax=   10.00 Det=-2.71D-09
 Inversion failed.  Reducing to  5 matrices.
 EnCoef did   100 forward-backward iterations
 Coeff-Com: -0.997D-02 0.920D+01-0.667D-01-0.426D+01-0.387D+01
 Coeff-En:   0.500D+00 0.146D+00 0.844D-03 0.801D-04 0.353D+00
 Coeff:      0.495D-01 0.815D+01-0.588D-01-0.376D+01-0.337D+01
 Gap=     0.033 Goal=   None    Shift=    0.000
 RMSDP=2.71D-02 MaxDP=2.86D-01 DE=-5.84D-04 OVMax= 1.16D-02

 Cycle  97  Pass 1  IDiag  1:
 E= -150.117918229353     Delta-E=        0.003049069502 Rises=F Damp=F
 DIIS: error= 2.22D-02 at cycle  81 NSaved=   6.
 NSaved= 6 IEnMin= 2 EnMin= -150.120998076583     IErMin= 2 ErrMin= 1.17D-02
 ErrMax= 2.22D-02  0.00D+00 EMaxC= 1.00D-01 BMatC= 6.06D-03 BMatP= 1.65D-03
 IDIUse=2 WtCom= 0.00D+00 WtEn= 1.00D+00
 EnCoef did   100 forward-backward iterations
 Rare condition: small coef for last iteration:  0.371D-14
 Coeff-En:   0.230D-01 0.333D-03 0.313D-03 0.000D+00 0.507D+00 0.470D+00
 Coeff:      0.230D-01 0.333D-03 0.313D-03 0.000D+00 0.507D+00 0.470D+00
 Gap=     0.000 Goal=   None    Shift=    0.000
 RMSDP=2.71D-02 MaxDP=2.85D-01 DE= 3.05D-03 OVMax= 8.05D-03

 Cycle  98  Pass 1  IDiag  1:
 E= -150.120976627829     Delta-E=       -0.003058398476 Rises=F Damp=F
 DIIS: error= 1.18D-02 at cycle  82 NSaved=   7.
 NSaved= 7 IEnMin= 2 EnMin= -150.120998076583     IErMin= 2 ErrMin= 1.17D-02
 ErrMax= 1.18D-02  0.00D+00 EMaxC= 1.00D-01 BMatC= 1.68D-03 BMatP= 1.65D-03
 IDIUse=3 WtCom= 8.83D-01 WtEn= 1.17D-01
 Large coefficients: NSaved=  7 BigCof=   13.43 CofMax=   10.00 Det=-3.18D-09
 Inversion failed.  Reducing to  6 matrices.
 EnCoef did   100 forward-backward iterations
 Coeff-Com:  0.961D+00 0.353D+01-0.180D+01 0.499D+00-0.323D+00-0.187D+01
 Coeff-En:   0.487D+00 0.176D+00 0.000D+00 0.000D+00 0.125D-01 0.325D+00
 Coeff:      0.906D+00 0.314D+01-0.159D+01 0.441D+00-0.284D+00-0.161D+01
 Gap=     0.009 Goal=   None    Shift=    0.000
 RMSDP=1.86D-04 MaxDP=2.01D-03 DE=-3.06D-03 OVMax= 3.24D-03

 Cycle  99  Pass 1  IDiag  1:
 E= -150.120343247122     Delta-E=        0.000633380707 Rises=F Damp=F
 DIIS: error= 1.45D-02 at cycle  83 NSaved=   7.
 NSaved= 7 IEnMin= 2 EnMin= -150.120998076583     IErMin= 2 ErrMin= 1.17D-02
 ErrMax= 1.45D-02  0.00D+00 EMaxC= 1.00D-01 BMatC= 2.58D-03 BMatP= 1.65D-03
 IDIUse=2 WtCom= 0.00D+00 WtEn= 1.00D+00
 EnCoef did   100 forward-backward iterations
 Rare condition: small coef for last iteration: -0.399D-15
 Coeff-En:   0.259D-01 0.000D+00 0.913D-04 0.243D-02 0.471D+00 0.000D+00
 Coeff-En:   0.500D+00
 Coeff:      0.259D-01 0.000D+00 0.913D-04 0.243D-02 0.471D+00 0.000D+00
 Coeff:      0.500D+00
 Gap=     0.000 Goal=   None    Shift=    0.000
 RMSDP=2.66D-04 MaxDP=2.83D-03 DE= 6.33D-04 OVMax= 4.82D-03

 Cycle 100  Pass 1  IDiag  1:
 E= -150.120966674815     Delta-E=       -0.000623427693 Rises=F Damp=F
 DIIS: error= 1.18D-02 at cycle  84 NSaved=   8.
 NSaved= 8 IEnMin= 2 EnMin= -150.120998076583     IErMin= 2 ErrMin= 1.17D-02
 ErrMax= 1.18D-02  0.00D+00 EMaxC= 1.00D-01 BMatC= 1.71D-03 BMatP= 1.65D-03
 IDIUse=3 WtCom= 8.83D-01 WtEn= 1.17D-01
 Large coefficients: NSaved=  8 BigCof=  108.41 CofMax=   10.00 Det=-7.38D-12
 Inversion failed.  Reducing to  7 matrices.
 Large coefficients: NSaved=  7 BigCof=  107.49 CofMax=   10.00 Det=-7.38D-12
 Inversion failed.  Reducing to  6 matrices.
 Large coefficients: NSaved=  6 BigCof=   12.63 CofMax=   10.00 Det=-2.87D-09
 Inversion failed.  Reducing to  5 matrices.
 EnCoef did   100 forward-backward iterations
 Coeff-Com: -0.978D-02 0.858D+01 0.359D+00-0.402D+01-0.391D+01
 Coeff-En:   0.500D+00 0.147D+00 0.885D-03 0.000D+00 0.352D+00
 Coeff:      0.497D-01 0.759D+01 0.318D+00-0.355D+01-0.341D+01
 Gap=     0.033 Goal=   None    Shift=    0.000
 RMSDP=2.71D-02 MaxDP=2.86D-01 DE=-6.23D-04 OVMax= 1.16D-02

 >>>>>>>>>> Convergence criterion not met.
 SCF Done:  E(RPW91-PW91) =  -150.120966675     A.U. after  101 cycles
            NFock=100  Conv=0.27D-01     -V/T= 2.0046
 KE= 1.494365794844D+02 PE=-4.113891508603D+02 EE= 8.346205498146D+01
 Convergence failure -- run terminated.
 Error termination via Lnk1e in /home/sabyasachi/g16/l502.exe at Mon Mar 21 04:16:15 2022.
 Job cpu time:       0 days  0 hours  0 minutes 12.1 seconds.
 Elapsed time:       0 days  0 hours  0 minutes  1.7 seconds.
 File lengths (MBytes):  RWF=      6 Int=      0 D2E=      0 Chk=      1 Scr=      1
