
                                        *****************
                                        * O   R   C   A *
                                        *****************

                                            #,                                       
                                            ###                                      
                                            ####                                     
                                            #####                                    
                                            ######                                   
                                           ########,                                 
                                     ,,################,,,,,                         
                               ,,#################################,,                 
                          ,,##########################################,,             
                       ,#########################################, ''#####,          
                    ,#############################################,,   '####,        
                  ,##################################################,,,,####,       
                ,###########''''           ''''###############################       
              ,#####''   ,,,,##########,,,,          '''####'''          '####       
            ,##' ,,,,###########################,,,                        '##       
           ' ,,###''''                  '''############,,,                           
         ,,##''                                '''############,,,,        ,,,,,,###''
      ,#''                                            '''#######################'''  
     '                                                          ''''####''''         
             ,#######,   #######,   ,#######,      ##                                
            ,#'     '#,  ##    ##  ,#'     '#,    #''#        ######   ,####,        
            ##       ##  ##   ,#'  ##            #'  '#       #        #'  '#        
            ##       ##  #######   ##           ,######,      #####,   #    #        
            '#,     ,#'  ##    ##  '#,     ,#' ,#      #,         ##   #,  ,#        
             '#######'   ##     ##  '#######'  #'      '#     #####' # '####'        



                  #######################################################
                  #                        -***-                        #
                  #          Department of theory and spectroscopy      #
                  #    Directorship and core code : Frank Neese         #
                  #        Max Planck Institute fuer Kohlenforschung    #
                  #                Kaiser Wilhelm Platz 1               #
                  #                 D-45470 Muelheim/Ruhr               #
                  #                      Germany                        #
                  #                                                     #
                  #                  All rights reserved                #
                  #                        -***-                        #
                  #######################################################


                         Program Version 5.0.0 -  RELEASE  -
                                (SVN: $Rev: 19529$)
                ($Date: 2021-06-28 11:36:33 +0200 (Mo, 28 Jun 2021) $)


 With contributions from (in alphabetic order):
   Daniel Aravena         : Magnetic Suceptibility
   Michael Atanasov       : Ab Initio Ligand Field Theory (pilot matlab implementation)
   Alexander A. Auer      : GIAO ZORA, VPT2 properties, NMR spectrum
   Ute Becker             : Parallelization
   Giovanni Bistoni       : ED, misc. LED, open-shell LED, HFLD
   Martin Brehm           : Molecular dynamics
   Dmytro Bykov           : SCF Hessian
   Vijay G. Chilkuri      : MRCI spin determinant printing, contributions to CSF-ICE
   Dipayan Datta          : RHF DLPNO-CCSD density
   Achintya Kumar Dutta   : EOM-CC, STEOM-CC
   Dmitry Ganyushin       : Spin-Orbit,Spin-Spin,Magnetic field MRCI
   Miquel Garcia          : C-PCM Hessian, Gaussian charge scheme
   Yang Guo               : DLPNO-NEVPT2, F12-NEVPT2, CIM, IAO-localization
   Andreas Hansen         : Spin unrestricted coupled pair/coupled cluster methods
   Benjamin Helmich-Paris : MC-RPA, TRAH-SCF, COSX integrals
   Lee Huntington         : MR-EOM, pCC
   Robert Izsak           : Overlap fitted RIJCOSX, COSX-SCS-MP3, EOM
   Marcus Kettner         : VPT2
   Christian Kollmar      : KDIIS, OOCD, Brueckner-CCSD(T), CCSD density, CASPT2, CASPT2-K
   Simone Kossmann        : Meta GGA functionals, TD-DFT gradient, OOMP2, MP2 Hessian
   Martin Krupicka        : Initial AUTO-CI
   Lucas Lang             : DCDCAS
   Marvin Lechner         : AUTO-CI (C++ implementation), FIC-MRCC
   Dagmar Lenk            : GEPOL surface, SMD
   Dimitrios Liakos       : Extrapolation schemes; Compound Job, initial MDCI parallelization
   Dimitrios Manganas     : Further ROCIS development; embedding schemes
   Dimitrios Pantazis     : SARC Basis sets
   Anastasios Papadopoulos: AUTO-CI, single reference methods and gradients
   Taras Petrenko         : DFT Hessian,TD-DFT gradient, ASA, ECA, R-Raman, ABS, FL, XAS/XES, NRVS
   Peter Pinski           : DLPNO-MP2, DLPNO-MP2 Gradient
   Christoph Reimann      : Effective Core Potentials
   Marius Retegan         : Local ZFS, SOC
   Christoph Riplinger    : Optimizer, TS searches, QM/MM, DLPNO-CCSD(T), (RO)-DLPNO pert. Triples
   Tobias Risthaus        : Range-separated hybrids, TD-DFT gradient, RPA, STAB
   Michael Roemelt        : Original ROCIS implementation
   Masaaki Saitow         : Open-shell DLPNO-CCSD energy and density
   Barbara Sandhoefer     : DKH picture change effects
   Avijit Sen             : IP-ROCIS
   Kantharuban Sivalingam : CASSCF convergence, NEVPT2, FIC-MRCI
   Bernardo de Souza      : ESD, SOC TD-DFT
   Georgi Stoychev        : AutoAux, RI-MP2 NMR
   Willem Van den Heuvel  : Paramagnetic NMR
   Boris Wezisla          : Elementary symmetry handling
   Frank Wennmohs         : Technical directorship


 We gratefully acknowledge several colleagues who have allowed us to
 interface, adapt or use parts of their codes:
   Stefan Grimme, W. Hujo, H. Kruse, P. Pracht,  : VdW corrections, initial TS optimization,
                  C. Bannwarth, S. Ehlert          DFT functionals, gCP, sTDA/sTD-DF
   Ed Valeev, F. Pavosevic, A. Kumar             : LibInt (2-el integral package), F12 methods
   Garnet Chan, S. Sharma, J. Yang, R. Olivares  : DMRG
   Ulf Ekstrom                                   : XCFun DFT Library
   Mihaly Kallay                                 : mrcc  (arbitrary order and MRCC methods)
   Jiri Pittner, Ondrej Demel                    : Mk-CCSD
   Frank Weinhold                                : gennbo (NPA and NBO analysis)
   Christopher J. Cramer and Donald G. Truhlar   : smd solvation model
   Lars Goerigk                                  : TD-DFT with DH, B97 family of functionals
   V. Asgeirsson, H. Jonsson                     : NEB implementation
   FAccTs GmbH                                   : IRC, NEB, NEB-TS, DLPNO-Multilevel, CI-OPT
                                                   MM, QMMM, 2- and 3-layer-ONIOM, Crystal-QMMM,
                                                   LR-CPCM, SF, NACMEs, symmetry and pop. for TD-DFT,
                                                   nearIR, NL-DFT gradient (VV10), updates on ESD,
                                                   ML-optimized integration grids
   S Lehtola, MJT Oliveira, MAL Marques          : LibXC Library
   Liviu Ungur et al                             : ANISO software


 Your calculation uses the libint2 library for the computation of 2-el integrals
 For citations please refer to: http://libint.valeyev.net

 Your ORCA version has been built with support for libXC version: 5.1.0
 For citations please refer to: https://tddft.org/programs/libxc/

 This ORCA versions uses:
   CBLAS   interface :  Fast vector & matrix operations
   LAPACKE interface :  Fast linear algebra routines
   SCALAPACK package :  Parallel linear algebra routines
   Shared memory     :  Shared parallel matrices
   BLAS/LAPACK       :  OpenBLAS 0.3.15  USE64BITINT DYNAMIC_ARCH NO_AFFINITY Haswell SINGLE_THREADED
        Core in use  :  Haswell
   Copyright (c) 2011-2014, The OpenBLAS Project




***************************************
The coordinates will be read from file: 000006.xyz
***************************************


================================================================================

----- Orbital basis set information -----
Your calculation utilizes the basis: aug-cc-pVTZ 
    H, B-Ne : Obtained from the ccRepo (grant-hill.group.shef.ac.uk/ccrepo) Feb. 2017
              R. A. Kendall, T. H. Dunning, Jr., R. J. Harrison, J. Chem. Phys. 96, 6796 (1992)
         He : Obtained from the ccRepo (grant-hill.group.shef.ac.uk/ccrepo) Feb. 2017
              D. E. Woon, T. H. Dunning, Jr., J. Chem. Phys. 100, 2975 (1994)
  Li-Be, Na : Obtained from the ccRepo (grant-hill.group.shef.ac.uk/ccrepo) Feb. 2017
              B. P. Prascher, D. E. Woon, K. A. Peterson, T. H. Dunning, Jr., A. K. Wilson, Theor. Chem. Acc. 128, 69 (2011)
         Mg : Obtained from the Peterson Research Group Website (tyr0.chem.wsu.edu/~kipeters) Feb. 2017
              B. P. Prascher, D. E. Woon, K. A. Peterson, T. H. Dunning, Jr., A. K. Wilson, Theor. Chem. Acc. 128, 69 (2011)
      Al-Ar : Obtained from the ccRepo (grant-hill.group.shef.ac.uk/ccrepo) Feb. 2017
              D. E. Woon, T. H. Dunning, Jr., J. Chem. Phys. 98, 1358 (1993)
      Sc-Zn : Obtained from the ccRepo (grant-hill.group.shef.ac.uk/ccrepo) Feb. 2017
              N. B. Balabanov, K. A. Peterson, J. Chem. Phys. 123, 064107 (2005)
              N. B. Balabanov, K. A. Peterson, J. Chem. Phys. 125, 074110 (2006)
      Ga-Kr : Obtained from the ccRepo (grant-hill.group.shef.ac.uk/ccrepo) Feb. 2017
              A. K. Wilson, D. E. Woon, K. A. Peterson, T. H. Dunning, Jr., J. Chem. Phys. 110, 7667 (1999)
     Ag, Au : Obtained from the Peterson Research Group Website (tyr0.chem.wsu.edu/~kipeters) Feb. 2017
              K. A. Peterson, C. Puzzarini, Theor. Chem. Acc. 114, 283 (2005)

----- AuxJ basis set information -----
Your calculation utilizes the auxiliary basis: def2/J
   F. Weigend, Phys. Chem. Chem. Phys. 8, 1057 (2006).

----- AuxC basis set information -----
Your calculation utilizes the auxiliary basis: aug-cc-pVTZ/C 
  H-He, B-F, Al-Ar, Ga-Kr : Obtained from the EMSL Basis Set Exchange (bse.pnl.gov) Feb. 2017
                            F. Weigend, A. Kohn, C. Hattig, J. Chem. Phys. 116, 3175 (2002)
                   Be, Mg : Obtained from the TURBOMOLE 7.0 basis set library
                            C. Haettig, Phys. Chem. Chem. Phys. 7, 59 (2005)
                       Ne : Obtained from the EMSL Basis Set Exchange (bse.pnl.gov) Feb. 2017
                            C. Haettig, Phys. Chem. Chem. Phys. 7, 59 (2005)
                            F. Weigend, A. Kohn, C. Hattig, J. Chem. Phys. 116, 3175 (2002)
                    Sc-Zn : Obtained from the EMSL Basis Set Exchange (bse.pnl.gov) Feb. 2017
                            J. G. Hill, J. A. Platts, J. Chem. Phys. 128, 044104 (2008)

================================================================================
                                        WARNINGS
                       Please study these warnings very carefully!
================================================================================


WARNING: Post HF methods need fully converged wavefunctions
  ===> : Setting SCFConvForced true
         You can overwrite this default with %scf ConvForced false 


WARNING: MDCI localization with Augmented Hessian Foster-Boys
  ===> : Switching off randomization!

INFO   : the flag for use of the SHARK integral package has been found!

================================================================================
                                       INPUT FILE
================================================================================
NAME = 000006.com
|  1> !STEOM-DLPNO-CCSD aug-cc-pVTZ aug-cc-pVTZ/C def2/J TightSCF PrintMOs
|  2> 
|  3> *xyzfile 0 1 000006.xyz
|  4> 
|  5> %MaxCore 64000
|  6> %scf
|  7>  MaxIter 150
|  8> end
|  9> 
| 10> %pal nprocs 8
| 11> end
| 12> 
| 13> %mdci
| 14>  nroots 10
| 15>  DoRootwise true
| 16> end
| 17> 
| 18>                          ****END OF INPUT****
================================================================================

                       ****************************
                       * Single Point Calculation *
                       ****************************

---------------------------------
CARTESIAN COORDINATES (ANGSTROEM)
---------------------------------
  C     -0.049078    0.702042    0.000000
  N     -0.049078   -0.754243   -0.000000
  H      0.946109    1.166603    0.000000
  H     -0.587574    1.062597    0.877770
  H     -0.587574    1.062597   -0.877770
  H      0.433525   -1.112175    0.812504
  H      0.433525   -1.112175   -0.812504

----------------------------
CARTESIAN COORDINATES (A.U.)
----------------------------
  NO LB      ZA    FRAG     MASS         X           Y           Z
   0 C     6.0000    0    12.011   -0.092744    1.326667    0.000000
   1 N     7.0000    0    14.007   -0.092744   -1.425313   -0.000000
   2 H     1.0000    0     1.008    1.787887    2.204560    0.000000
   3 H     1.0000    0     1.008   -1.110354    2.008017    1.658745
   4 H     1.0000    0     1.008   -1.110354    2.008017   -1.658745
   5 H     1.0000    0     1.008    0.819244   -2.101706    1.535410
   6 H     1.0000    0     1.008    0.819244   -2.101706   -1.535410

--------------------------------
INTERNAL COORDINATES (ANGSTROEM)
--------------------------------
 C      0   0   0     0.000000000000     0.00000000     0.00000000
 N      1   0   0     1.456285000000     0.00000000     0.00000000
 H      1   2   0     1.098277782571   115.02353081     0.00000000
 H      1   2   3     1.091081125738   109.29649386   238.47163809
 H      1   2   3     1.091081125738   109.29649386   121.52836191
 H      2   1   3     1.010536353749   110.74442363    59.29095883
 H      2   1   3     1.010536353749   110.74442363   300.70904117

---------------------------
INTERNAL COORDINATES (A.U.)
---------------------------
 C      0   0   0     0.000000000000     0.00000000     0.00000000
 N      1   0   0     2.751979822938     0.00000000     0.00000000
 H      1   2   0     2.075444228030   115.02353081     0.00000000
 H      1   2   3     2.061844517535   109.29649386   238.47163809
 H      1   2   3     2.061844517535   109.29649386   121.52836191
 H      2   1   3     1.909636956958   110.74442363    59.29095883
 H      2   1   3     1.909636956958   110.74442363   300.70904117

---------------------
BASIS SET INFORMATION
---------------------
There are 3 groups of distinct atoms

 Group   1 Type C   : 19s6p3d2f contracted to 5s4p3d2f pattern {88111/3111/111/11}
 Group   2 Type N   : 19s6p3d2f contracted to 5s4p3d2f pattern {88111/3111/111/11}
 Group   3 Type H   : 6s3p2d contracted to 4s3p2d pattern {3111/111/11}

Atom   0C    basis set group =>   1
Atom   1N    basis set group =>   2
Atom   2H    basis set group =>   3
Atom   3H    basis set group =>   3
Atom   4H    basis set group =>   3
Atom   5H    basis set group =>   3
Atom   6H    basis set group =>   3
---------------------------------
AUXILIARY/J BASIS SET INFORMATION
---------------------------------
There are 3 groups of distinct atoms

 Group   1 Type C   : 12s5p4d2f1g contracted to 6s4p3d1f1g pattern {711111/2111/211/2/1}
 Group   2 Type N   : 12s5p4d2f1g contracted to 6s4p3d1f1g pattern {711111/2111/211/2/1}
 Group   3 Type H   : 5s2p1d contracted to 3s1p1d pattern {311/2/1}

Atom   0C    basis set group =>   1
Atom   1N    basis set group =>   2
Atom   2H    basis set group =>   3
Atom   3H    basis set group =>   3
Atom   4H    basis set group =>   3
Atom   5H    basis set group =>   3
Atom   6H    basis set group =>   3
---------------------------------
AUXILIARY/C BASIS SET INFORMATION
---------------------------------
There are 3 groups of distinct atoms

 Group   1 Type C   : 9s7p6d4f2g contracted to 9s7p6d4f2g pattern {111111111/1111111/111111/1111/11}
 Group   2 Type N   : 9s7p6d4f2g contracted to 9s7p6d4f2g pattern {111111111/1111111/111111/1111/11}
 Group   3 Type H   : 5s4p3d2f contracted to 5s4p3d2f pattern {11111/1111/111/11}

Atom   0C    basis set group =>   1
Atom   1N    basis set group =>   2
Atom   2H    basis set group =>   3
Atom   3H    basis set group =>   3
Atom   4H    basis set group =>   3
Atom   5H    basis set group =>   3
Atom   6H    basis set group =>   3


           ************************************************************
           *        Program running with 8 parallel MPI-processes     *
           *              working on a common directory               *
           ************************************************************
------------------------------------------------------------------------------
                           ORCA GTO INTEGRAL CALCULATION
------------------------------------------------------------------------------
------------------------------------------------------------------------------
                   ___                                                        
                  /   \      - P O W E R E D   B Y -                         
                 /     \                                                     
                 |  |  |   _    _      __       _____    __    __             
                 |  |  |  | |  | |    /  \     |  _  \  |  |  /  |          
                  \  \/   | |  | |   /    \    | | | |  |  | /  /          
                 / \  \   | |__| |  /  /\  \   | |_| |  |  |/  /          
                |  |  |   |  __  | /  /__\  \  |    /   |      \           
                |  |  |   | |  | | |   __   |  |    \   |  |\   \          
                \     /   | |  | | |  |  |  |  | |\  \  |  | \   \       
                 \___/    |_|  |_| |__|  |__|  |_| \__\ |__|  \__/        
                                                                              
                      - O R C A' S   B I G   F R I E N D -                    
                                      &                                       
                       - I N T E G R A L  F E E D E R -                       
                                                                              
 v1 FN, 2020, v2 2021                                                         
------------------------------------------------------------------------------


Reading SHARK input file 000006.SHARKINP.tmp ... ok
----------------------
SHARK INTEGRAL PACKAGE
----------------------

Number of atoms                             ...      7
Number of basis functions                   ...    207
Number of shells                            ...     73
Maximum angular momentum                    ...      3
Integral batch strategy                     ... SHARK/LIBINT Hybrid
RI-J (if used) integral strategy            ... SPLIT-RIJ (Revised 2003 algorithm where possible)
Printlevel                                  ...      1
Contraction scheme used                     ... SEGMENTED contraction
Coulomb Range Separation                    ... NOT USED
Exchange Range Separation                   ... NOT USED
Finite Nucleus Model                        ... NOT USED
Auxiliary Coulomb fitting basis             ... AVAILABLE
   # of basis functions in Aux-J            ...    153
   # of shells in Aux-J                     ...     55
   Maximum angular momentum in Aux-J        ...      4
Auxiliary J/K fitting basis                 ... NOT available
Auxiliary Correlation fitting basis         ... AVAILABLE
   # of basis functions in Aux-C            ...    442
   # of shells in Aux-C                     ...    126
   Maximum angular momentum in Aux-C        ...      4
Auxiliary 'external' fitting basis          ... NOT available
Integral threshold                          ...     2.500000e-11
Primitive cut-off                           ...     2.500000e-12
Primitive pair pre-selection threshold      ...     2.500000e-12

Calculating pre-screening integrals         ... done (  0.1 sec) Dimension = 73
Organizing shell pair data                  ... done (  0.0 sec)
Shell pair information
Total number of shell pairs                 ...      2701
Shell pairs after pre-screening             ...      2701
Total number of primitive shell pairs       ...      6803
Primitive shell pairs kept                  ...      6308
          la=0 lb=0:    465 shell pairs
          la=1 lb=0:    690 shell pairs
          la=1 lb=1:    276 shell pairs
          la=2 lb=0:    480 shell pairs
          la=2 lb=1:    368 shell pairs
          la=2 lb=2:    136 shell pairs
          la=3 lb=0:    120 shell pairs
          la=3 lb=1:     92 shell pairs
          la=3 lb=2:     64 shell pairs
          la=3 lb=3:     10 shell pairs

Calculating one electron integrals          ... done (  0.0 sec)
Calculating RI/J V-Matrix + Cholesky decomp.... done (  0.1 sec)
Calculating RI/C V-Matrix + Cholesky decomp.... done (  0.0 sec)
Calculating Nuclear repulsion               ... done (  0.0 sec) ENN=     42.121550521874 Eh

SHARK setup successfully completed in   0.3 seconds

Maximum memory used throughout the entire GTOINT-calculation: 17.3 MB


           ************************************************************
           *        Program running with 8 parallel MPI-processes     *
           *              working on a common directory               *
           ************************************************************
-------------------------------------------------------------------------------
                                 ORCA SCF
-------------------------------------------------------------------------------

------------
SCF SETTINGS
------------
Hamiltonian:
 Ab initio Hamiltonian  Method          .... Hartree-Fock(GTOs)


General Settings:
 Integral files         IntName         .... 000006
 Hartree-Fock type      HFTyp           .... RHF
 Total Charge           Charge          ....    0
 Multiplicity           Mult            ....    1
 Number of Electrons    NEL             ....   18
 Basis Dimension        Dim             ....  207
 Nuclear Repulsion      ENuc            ....     42.1215505219 Eh

Convergence Acceleration:
 DIIS                   CNVDIIS         .... on
   Start iteration      DIISMaxIt       ....    12
   Startup error        DIISStart       ....  0.200000
   # of expansion vecs  DIISMaxEq       ....     5
   Bias factor          DIISBfac        ....   1.050
   Max. coefficient     DIISMaxC        ....  10.000
 Trust-Rad. Augm. Hess. CNVTRAH         .... auto
   Auto Start mean grad. ratio tolernc. ....  1.125000
   Auto Start start iteration           ....    20
   Auto Start num. interpolation iter.  ....    10
   Max. Number of Micro iterations      ....    16
   Max. Number of Macro iterations      .... Maxiter - #DIIS iter
   Number of Davidson start vectors     ....     2
   Converg. threshold I  (grad. norm)   ....   1.000e-05
   Converg. threshold II (energy diff.) ....   1.000e-08
   Grad. Scal. Fac. for Micro threshold ....   0.100
   Minimum threshold for Micro iter.    ....   0.010
   NR start threshold (gradient norm)   ....   0.001
   Initial trust radius                 ....   0.400
   Minimum AH scaling param. (alpha)    ....   1.000
   Maximum AH scaling param. (alpha)    .... 1000.000
   Orbital update algorithm             .... Taylor
   White noise on init. David. guess    .... on
   Maximum white noise                  ....   0.010
   Quad. conv. algorithm                .... NR
 SOSCF                  CNVSOSCF        .... on
   Start iteration      SOSCFMaxIt      ....   150
   Startup grad/error   SOSCFStart      ....  0.003300
 Level Shifting         CNVShift        .... on
   Level shift para.    LevelShift      ....    0.2500
   Turn off err/grad.   ShiftErr        ....    0.0010
 Zerner damping         CNVZerner       .... off
 Static damping         CNVDamp         .... on
   Fraction old density DampFac         ....    0.7000
   Max. Damping (<1)    DampMax         ....    0.9800
   Min. Damping (>=0)   DampMin         ....    0.0000
   Turn off err/grad.   DampErr         ....    0.1000
 Fernandez-Rico         CNVRico         .... off

SCF Procedure:
 Maximum # iterations   MaxIter         ....   150
 SCF integral mode      SCFMode         .... Direct
   Integral package                     .... SHARK and LIBINT hybrid scheme
 Reset frequency        DirectResetFreq ....    20
 Integral Threshold     Thresh          ....  2.500e-11 Eh
 Primitive CutOff       TCut            ....  2.500e-12 Eh

Convergence Tolerance:
 Convergence Check Mode ConvCheckMode   .... Total+1el-Energy
 Convergence forced     ConvForced      .... 1
 Energy Change          TolE            ....  1.000e-08 Eh
 1-El. energy change                    ....  1.000e-05 Eh
 Orbital Gradient       TolG            ....  1.000e-05
 Orbital Rotation angle TolX            ....  1.000e-05
 DIIS Error             TolErr          ....  5.000e-07


Diagonalization of the overlap matrix:
Smallest eigenvalue                        ... 4.039e-05
Time for diagonalization                   ...    0.009 sec
Threshold for overlap eigenvalues          ... 1.000e-08
Number of eigenvalues below threshold      ... 0
Time for construction of square roots      ...    0.009 sec
Total time needed                          ...    0.019 sec

Time for model grid setup =    0.032 sec

------------------------------
INITIAL GUESS: MODEL POTENTIAL
------------------------------
Loading Hartree-Fock densities                     ... done
Calculating cut-offs                               ... done
Initializing the effective Hamiltonian             ... done
Setting up the integral package (SHARK)            ... done
Starting the Coulomb interaction                   ... done (   0.0 sec)
Reading the grid                                   ... done
Mapping shells                                     ... done
Starting the XC term evaluation                    ... done (   0.0 sec)
Transforming the Hamiltonian                       ... done (   0.0 sec)
Diagonalizing the Hamiltonian                      ... done (   0.0 sec)
Back transforming the eigenvectors                 ... done (   0.0 sec)
Now organizing SCF variables                       ... done
                      ------------------
                      INITIAL GUESS DONE (   0.1 sec)
                      ------------------
--------------
SCF ITERATIONS
--------------
ITER       Energy         Delta-E        Max-DP      RMS-DP      [F,P]     Damp
               ***  Starting incremental Fock matrix formation  ***
  0    -95.0825968463   0.000000000000 0.02978569  0.00070007  0.3379102 0.7000
  1    -95.1469220956  -0.064325249281 0.02278332  0.00051615  0.2066435 0.7000
                               ***Turning on DIIS***
  2    -95.1835759074  -0.036653811879 0.01705458  0.00033437  0.1152310 0.7000
  3    -95.4922559974  -0.308680089929 0.04457561  0.00075679  0.0777995 0.0000
  4    -95.2087306747   0.283525322650 0.00503891  0.00010707  0.0098613 0.0000
                      *** Initiating the SOSCF procedure ***
                           *** Shutting down DIIS ***
                      *** Re-Reading the Fockian *** 
                      *** Removing any level shift *** 
ITER      Energy       Delta-E        Grad      Rot      Max-DP    RMS-DP
  5    -95.25077474  -0.0420440624  0.001179  0.001179  0.002459  0.000042
               *** Restarting incremental Fock matrix formation ***
  6    -95.25562366  -0.0048489217  0.000367  0.000564  0.001465  0.000023
  7    -95.25563240  -0.0000087451  0.000153  0.000418  0.001258  0.000017
  8    -95.25563402  -0.0000016116  0.000055  0.000039  0.000129  0.000002
  9    -95.25563411  -0.0000000976  0.000015  0.000015  0.000026  0.000001
 10    -95.25563412  -0.0000000066  0.000004  0.000008  0.000013  0.000000
                  ***Gradient check signals convergence***
              ***Rediagonalizing the Fockian in SOSCF/NRSCF***

               *****************************************************
               *                     SUCCESS                       *
               *           SCF CONVERGED AFTER  11 CYCLES          *
               *****************************************************


----------------
TOTAL SCF ENERGY
----------------

Total Energy       :          -95.25563412 Eh           -2592.03758 eV

Components:
Nuclear Repulsion  :           42.12155052 Eh            1146.18566 eV
Electronic Energy  :         -137.37718464 Eh           -3738.22324 eV
One Electron Energy:         -211.59794895 Eh           -5757.87292 eV
Two Electron Energy:           74.22076431 Eh            2019.64967 eV

Virial components:
Potential Energy   :         -190.37496583 Eh           -5180.36618 eV
Kinetic Energy     :           95.11933171 Eh            2588.32860 eV
Virial Ratio       :            2.00143296


---------------
SCF CONVERGENCE
---------------

  Last Energy change         ...   -7.6400e-10  Tolerance :   1.0000e-08
  Last MAX-Density change    ...    7.3688e-06  Tolerance :   1.0000e-07
  Last RMS-Density change    ...    7.3830e-08  Tolerance :   5.0000e-09
  Last Orbital Gradient      ...    1.1737e-06  Tolerance :   1.0000e-05
  Last Orbital Rotation      ...    3.4659e-06  Tolerance :   1.0000e-05

             **** THE GBW FILE WAS UPDATED (000006.gbw) ****
             **** DENSITY 000006.scfp WAS UPDATED ****
             **** ENERGY FILE WAS UPDATED (000006.en.tmp) ****
             **** THE GBW FILE WAS UPDATED (000006.gbw) ****
             **** DENSITY 000006.scfp WAS UPDATED ****
----------------
ORBITAL ENERGIES
----------------

  NO   OCC          E(Eh)            E(eV) 
   0   2.0000     -15.538652      -422.8282 
   1   2.0000     -11.241144      -305.8871 
   2   2.0000      -1.171363       -31.8744 
   3   2.0000      -0.895125       -24.3576 
   4   2.0000      -0.664129       -18.0719 
   5   2.0000      -0.603675       -16.4268 
   6   2.0000      -0.558326       -15.1928 
   7   2.0000      -0.516260       -14.0481 
   8   2.0000      -0.389556       -10.6004 
   9   0.0000       0.029592         0.8052 
  10   0.0000       0.042849         1.1660 
  11   0.0000       0.043860         1.1935 
  12   0.0000       0.049271         1.3407 
  13   0.0000       0.068919         1.8754 
  14   0.0000       0.098691         2.6855 
  15   0.0000       0.126032         3.4295 
  16   0.0000       0.127396         3.4666 
  17   0.0000       0.139787         3.8038 
  18   0.0000       0.141275         3.8443 
  19   0.0000       0.156350         4.2545 
  20   0.0000       0.167788         4.5657 
  21   0.0000       0.203600         5.5402 
  22   0.0000       0.226704         6.1689 
  23   0.0000       0.237943         6.4748 
  24   0.0000       0.256358         6.9759 
  25   0.0000       0.272819         7.4238 
  26   0.0000       0.283493         7.7142 
  27   0.0000       0.288776         7.8580 
  28   0.0000       0.296002         8.0546 
  29   0.0000       0.332851         9.0573 
  30   0.0000       0.338055         9.1989 
  31   0.0000       0.343535         9.3481 
  32   0.0000       0.345066         9.3897 
  33   0.0000       0.376465        10.2441 
  34   0.0000       0.388473        10.5709 
  35   0.0000       0.395206        10.7541 
  36   0.0000       0.402191        10.9442 
  37   0.0000       0.404302        11.0016 
  38   0.0000       0.436895        11.8885 
  39   0.0000       0.442570        12.0429 
  40   0.0000       0.445266        12.1163 
  41   0.0000       0.453950        12.3526 
  42   0.0000       0.467286        12.7155 
  43   0.0000       0.489700        13.3254 
  44   0.0000       0.496106        13.4997 
  45   0.0000       0.501065        13.6347 
  46   0.0000       0.504258        13.7216 
  47   0.0000       0.533177        14.5085 
  48   0.0000       0.581022        15.8104 
  49   0.0000       0.610395        16.6097 
  50   0.0000       0.612019        16.6539 
  51   0.0000       0.643294        17.5049 
  52   0.0000       0.653304        17.7773 
  53   0.0000       0.760177        20.6855 
  54   0.0000       0.795405        21.6441 
  55   0.0000       0.801295        21.8044 
  56   0.0000       0.807354        21.9692 
  57   0.0000       0.825083        22.4516 
  58   0.0000       0.850769        23.1506 
  59   0.0000       0.867749        23.6126 
  60   0.0000       0.884833        24.0775 
  61   0.0000       0.906082        24.6558 
  62   0.0000       0.915537        24.9130 
  63   0.0000       0.937582        25.5129 
  64   0.0000       0.938577        25.5400 
  65   0.0000       0.951717        25.8975 
  66   0.0000       0.968507        26.3544 
  67   0.0000       0.975467        26.5438 
  68   0.0000       0.981243        26.7010 
  69   0.0000       0.993541        27.0356 
  70   0.0000       1.010288        27.4913 
  71   0.0000       1.059108        28.8198 
  72   0.0000       1.067358        29.0443 
  73   0.0000       1.078008        29.3341 
  74   0.0000       1.084334        29.5062 
  75   0.0000       1.090843        29.6833 
  76   0.0000       1.106569        30.1113 
  77   0.0000       1.111806        30.2538 
  78   0.0000       1.137371        30.9495 
  79   0.0000       1.153398        31.3856 
  80   0.0000       1.196357        32.5545 
  81   0.0000       1.201188        32.6860 
  82   0.0000       1.220599        33.2142 
  83   0.0000       1.257072        34.2067 
  84   0.0000       1.262607        34.3573 
  85   0.0000       1.286941        35.0195 
  86   0.0000       1.293894        35.2086 
  87   0.0000       1.308131        35.5961 
  88   0.0000       1.337427        36.3932 
  89   0.0000       1.380540        37.5664 
  90   0.0000       1.407876        38.3103 
  91   0.0000       1.454736        39.5854 
  92   0.0000       1.458767        39.6951 
  93   0.0000       1.465857        39.8880 
  94   0.0000       1.498882        40.7867 
  95   0.0000       1.604049        43.6484 
  96   0.0000       1.616657        43.9915 
  97   0.0000       1.644534        44.7500 
  98   0.0000       1.646869        44.8136 
  99   0.0000       1.670368        45.4530 
 100   0.0000       1.678127        45.6642 
 101   0.0000       1.701560        46.3018 
 102   0.0000       1.721744        46.8510 
 103   0.0000       1.770389        48.1747 
 104   0.0000       1.833007        49.8787 
 105   0.0000       1.842462        50.1359 
 106   0.0000       1.930038        52.5190 
 107   0.0000       1.954462        53.1836 
 108   0.0000       1.996142        54.3178 
 109   0.0000       1.998420        54.3798 
 110   0.0000       2.013107        54.7794 
 111   0.0000       2.026919        55.1553 
 112   0.0000       2.041269        55.5458 
 113   0.0000       2.078452        56.5576 
 114   0.0000       2.088359        56.8271 
 115   0.0000       2.198464        59.8233 
 116   0.0000       2.212568        60.2070 
 117   0.0000       2.231861        60.7320 
 118   0.0000       2.235763        60.8382 
 119   0.0000       2.276755        61.9536 
 120   0.0000       2.320359        63.1402 
 121   0.0000       2.406986        65.4974 
 122   0.0000       2.436140        66.2907 
 123   0.0000       2.454467        66.7894 
 124   0.0000       2.497180        67.9517 
 125   0.0000       2.532771        68.9202 
 126   0.0000       2.558894        69.6311 
 127   0.0000       2.595174        70.6183 
 128   0.0000       2.707059        73.6628 
 129   0.0000       2.903754        79.0152 
 130   0.0000       3.118714        84.8645 
 131   0.0000       3.369301        91.6834 
 132   0.0000       3.377315        91.9014 
 133   0.0000       3.416386        92.9646 
 134   0.0000       3.575547        97.2956 
 135   0.0000       3.598371        97.9167 
 136   0.0000       3.611102        98.2631 
 137   0.0000       3.611109        98.2633 
 138   0.0000       3.642427        99.1155 
 139   0.0000       3.699160       100.6593 
 140   0.0000       3.744800       101.9012 
 141   0.0000       3.850423       104.7753 
 142   0.0000       3.870088       105.3104 
 143   0.0000       3.892516       105.9207 
 144   0.0000       3.918436       106.6261 
 145   0.0000       3.957472       107.6883 
 146   0.0000       4.008978       109.0898 
 147   0.0000       4.077272       110.9482 
 148   0.0000       4.083817       111.1263 
 149   0.0000       4.102209       111.6268 
 150   0.0000       4.108214       111.7902 
 151   0.0000       4.159293       113.1801 
 152   0.0000       4.208768       114.5264 
 153   0.0000       4.209248       114.5395 
 154   0.0000       4.273566       116.2896 
 155   0.0000       4.306534       117.1868 
 156   0.0000       4.316145       117.4483 
 157   0.0000       4.387542       119.3911 
 158   0.0000       4.416113       120.1685 
 159   0.0000       4.459221       121.3416 
 160   0.0000       4.477594       121.8415 
 161   0.0000       4.575716       124.5116 
 162   0.0000       4.605667       125.3266 
 163   0.0000       4.642784       126.3366 
 164   0.0000       4.683328       127.4398 
 165   0.0000       4.725393       128.5845 
 166   0.0000       4.751917       129.3062 
 167   0.0000       4.794887       130.4755 
 168   0.0000       4.817256       131.0842 
 169   0.0000       4.881919       132.8438 
 170   0.0000       4.892791       133.1396 
 171   0.0000       4.970270       135.2479 
 172   0.0000       4.982599       135.5834 
 173   0.0000       5.047852       137.3590 
 174   0.0000       5.049805       137.4122 
 175   0.0000       5.100399       138.7889 
 176   0.0000       5.103460       138.8722 
 177   0.0000       5.175970       140.8453 
 178   0.0000       5.201316       141.5350 
 179   0.0000       5.223374       142.1352 
 180   0.0000       5.257368       143.0603 
 181   0.0000       5.352110       145.6383 
 182   0.0000       5.469800       148.8408 
 183   0.0000       5.537475       150.6823 
 184   0.0000       5.550369       151.0332 
 185   0.0000       5.565702       151.4505 
 186   0.0000       5.788753       157.5200 
 187   0.0000       5.808629       158.0608 
 188   0.0000       5.831157       158.6739 
 189   0.0000       5.903962       160.6550 
 190   0.0000       5.972719       162.5259 
 191   0.0000       5.981724       162.7710 
 192   0.0000       6.099863       165.9857 
 193   0.0000       6.103140       166.0749 
 194   0.0000       6.168447       167.8520 
 195   0.0000       6.252552       170.1406 
 196   0.0000       6.402145       174.2112 
 197   0.0000       6.547868       178.1766 
 198   0.0000       6.555189       178.3758 
 199   0.0000       6.696175       182.2122 
 200   0.0000       6.732753       183.2075 
 201   0.0000       6.810610       185.3261 
 202   0.0000       7.016303       190.9233 
 203   0.0000       7.091748       192.9763 
 204   0.0000       7.782330       211.7680 
 205   0.0000      16.877141       459.2504 
 206   0.0000      18.031100       490.6512 
------------------
MOLECULAR ORBITALS
------------------
                      0         1         2         3         4         5   
                 -15.53865 -11.24114  -1.17136  -0.89512  -0.66413  -0.60367
                   2.00000   2.00000   2.00000   2.00000   2.00000   2.00000
                  --------  --------  --------  --------  --------  --------
  0C   1s        -0.000428  0.979697 -0.007209  0.008799  0.000000  0.000268
  0C   2s        -0.000890  0.003917  0.219077 -0.395283  0.000000  0.015911
  0C   3s        -0.000119  0.042079  0.045737 -0.081941  0.000000  0.002825
  0C   4s         0.007542 -0.014231  0.009006 -0.204106 -0.000000  0.128942
  0C   5s         0.000002 -0.002867 -0.019111  0.005410  0.000000  0.031033
  0C   1pz        0.000000  0.000000 -0.000000 -0.000000  0.118965  0.000000
  0C   1px       -0.000028  0.000061  0.002181  0.008567 -0.000000  0.149591
  0C   1py       -0.000023 -0.000593 -0.050237 -0.047761  0.000000  0.135014
  0C   2pz       -0.000000 -0.000000  0.000000  0.000000  0.157159 -0.000000
  0C   2px        0.000474 -0.000420  0.001215  0.011364  0.000000  0.199013
  0C   2py        0.003008  0.000685 -0.056163 -0.062368  0.000000  0.160571
  0C   3pz       -0.000000 -0.000000  0.000000  0.000000  0.102654 -0.000000
  0C   3px       -0.000304 -0.000318  0.002821 -0.004556  0.000000  0.135964
  0C   3py        0.001455  0.003429 -0.007506 -0.043959  0.000000  0.064009
  0C   4pz       -0.000000 -0.000000 -0.000000  0.000000  0.003088  0.000000
  0C   4px       -0.000099  0.000261 -0.000226  0.000710  0.000000  0.006528
  0C   4py        0.000126  0.000807  0.001341 -0.002782 -0.000000 -0.001989
  0C   1dz2       0.000111  0.000065 -0.004107 -0.002919  0.000000 -0.001725
  0C   1dxz       0.000000  0.000000  0.000000 -0.000000 -0.005981 -0.000000
  0C   1dyz      -0.000000 -0.000000 -0.000000  0.000000 -0.002092  0.000000
  0C   1dx2y2     0.000216  0.000041 -0.007379 -0.004583 -0.000000  0.013875
  0C   1dxy      -0.000040  0.000039 -0.000577 -0.001108 -0.000000  0.003804
  0C   2dz2       0.000661 -0.000183 -0.002971 -0.006773 -0.000000 -0.008152
  0C   2dxz       0.000000  0.000000 -0.000000 -0.000000 -0.015105  0.000000
  0C   2dyz      -0.000000 -0.000000  0.000000  0.000000 -0.005781 -0.000000
  0C   2dx2y2     0.001581 -0.000288 -0.008382 -0.008542  0.000000  0.028621
  0C   2dxy       0.000731 -0.000569 -0.004027 -0.004515  0.000000  0.006589
  0C   3dz2       0.000136  0.000294  0.001745 -0.002028 -0.000000 -0.009858
  0C   3dxz       0.000000  0.000000 -0.000000 -0.000000 -0.001338  0.000000
  0C   3dyz       0.000000 -0.000000 -0.000000 -0.000000  0.017447  0.000000
  0C   3dx2y2     0.000349  0.000710 -0.001787 -0.006588  0.000000  0.005057
  0C   3dxy       0.000859  0.000472 -0.003867 -0.002801  0.000000  0.017942
  0C   1f0       -0.000000 -0.000000 -0.000000  0.000000 -0.001821  0.000000
  0C   1f+1      -0.000021 -0.000702 -0.002154  0.004252  0.000000 -0.001157
  0C   1f-1      -0.000025  0.000440  0.002933 -0.002801  0.000000 -0.002764
  0C   1f+2      -0.000000 -0.000000  0.000000  0.000000 -0.002510 -0.000000
  0C   1f-2       0.000000  0.000000  0.000000 -0.000000 -0.000847 -0.000000
  0C   1f+3      -0.000028 -0.000131  0.000011  0.000843  0.000000  0.002290
  0C   1f-3      -0.000017 -0.000570 -0.004260  0.004716  0.000000  0.002074
  0C   2f0        0.000000  0.000000  0.000000  0.000000  0.001068 -0.000000
  0C   2f+1      -0.000624  0.001951  0.001081  0.002374  0.000000 -0.004764
  0C   2f-1      -0.000299 -0.000275 -0.000498  0.002259 -0.000000 -0.001242
  0C   2f+2       0.000000  0.000000  0.000000  0.000000 -0.001447 -0.000000
  0C   2f-2       0.000000  0.000000 -0.000000 -0.000000 -0.001549  0.000000
  0C   2f+3      -0.000455  0.000508 -0.000017  0.001072  0.000000  0.000047
  0C   2f-3      -0.000208  0.001217  0.004031  0.001584 -0.000000 -0.002269
  1N   1s        -0.976999  0.000032 -0.010080 -0.003084  0.000000 -0.001264
  1N   2s        -0.000165  0.000462  0.435934  0.181598  0.000000 -0.076089
  1N   3s        -0.042697  0.000179  0.101980  0.044652  0.000000 -0.016580
  1N   4s        -0.000096  0.008965  0.243963  0.114213  0.000000 -0.143669
  1N   5s         0.000460  0.003092  0.026940  0.001036 -0.000000 -0.051782
  1N   1pz       -0.000000 -0.000000 -0.000000  0.000000  0.220301  0.000000
  1N   1px       -0.001733 -0.000043  0.030076  0.035538 -0.000000  0.130676
  1N   1py       -0.000752  0.000256  0.021692 -0.083789  0.000000 -0.126420
  1N   2pz        0.000000  0.000000  0.000000 -0.000000  0.266281 -0.000000
  1N   2px        0.000623  0.000441  0.045416  0.047457  0.000000  0.164057
  1N   2py        0.001627  0.000195  0.033208 -0.104984  0.000000 -0.158990
  1N   3pz        0.000000  0.000000  0.000000 -0.000000  0.117457 -0.000000
  1N   3px        0.001630  0.000675  0.001983  0.014273 -0.000000  0.085367
  1N   3py       -0.000538  0.005645  0.011120 -0.046074  0.000000 -0.094326
  1N   4pz       -0.000000  0.000000  0.000000  0.000000  0.001178 -0.000000
  1N   4px        0.000215 -0.000345 -0.001574 -0.001154 -0.000000  0.005626
  1N   4py       -0.000044  0.001200 -0.000817 -0.001746 -0.000000 -0.010119
  1N   1dz2      -0.000172 -0.000072  0.001231  0.004489 -0.000000  0.003919
  1N   1dxz       0.000000 -0.000000 -0.000000 -0.000000  0.010913  0.000000
  1N   1dyz       0.000000  0.000000  0.000000 -0.000000 -0.003021 -0.000000
  1N   1dx2y2     0.000039 -0.000075 -0.003062  0.004165  0.000000  0.007261
  1N   1dxy       0.000147 -0.000007 -0.001798 -0.002726  0.000000 -0.000343
  1N   2dz2      -0.000457  0.000863 -0.002037  0.009939 -0.000000  0.009837
  1N   2dxz       0.000000  0.000000  0.000000 -0.000000  0.017488 -0.000000
  1N   2dyz      -0.000000 -0.000000 -0.000000  0.000000  0.005215  0.000000
  1N   2dx2y2    -0.000993  0.000601 -0.010686  0.009647 -0.000000  0.021211
  1N   2dxy      -0.000171  0.000079 -0.004851 -0.005652  0.000000  0.005194
  1N   3dz2       0.000120  0.000132 -0.005868  0.002468 -0.000000  0.003870
  1N   3dxz       0.000000  0.000000  0.000000  0.000000 -0.001667 -0.000000
  1N   3dyz       0.000000  0.000000 -0.000000 -0.000000  0.004274  0.000000
  1N   3dx2y2    -0.000090 -0.000424 -0.001852  0.003961 -0.000000  0.011597
  1N   3dxy      -0.000059  0.000846 -0.001140  0.000858 -0.000000  0.002646
  1N   1f0        0.000000  0.000000 -0.000000 -0.000000  0.000010  0.000000
  1N   1f+1      -0.000344  0.000125  0.002287  0.001026  0.000000 -0.000147
  1N   1f-1       0.000291  0.000060 -0.003490 -0.000516 -0.000000  0.001782
  1N   1f+2       0.000000  0.000000 -0.000000 -0.000000 -0.002464  0.000000
  1N   1f-2      -0.000000 -0.000000 -0.000000  0.000000 -0.000604  0.000000
  1N   1f+3      -0.000021 -0.000026  0.000587  0.000770  0.000000  0.003054
  1N   1f-3      -0.000058 -0.000134  0.003525 -0.000358  0.000000 -0.002470
  1N   2f0       -0.000000 -0.000000  0.000000 -0.000000 -0.000116 -0.000000
  1N   2f+1       0.000507  0.000116 -0.001284  0.001662 -0.000000  0.002539
  1N   2f-1      -0.000908  0.000693 -0.001391  0.001371  0.000000  0.004223
  1N   2f+2      -0.000000 -0.000000  0.000000  0.000000  0.001836 -0.000000
  1N   2f-2       0.000000 -0.000000 -0.000000 -0.000000  0.000728 -0.000000
  1N   2f+3       0.000243 -0.000327  0.001174 -0.001295 -0.000000 -0.001314
  1N   2f-3       0.000451 -0.000317  0.002823 -0.000002  0.000000 -0.004041
  2H   1s        -0.000062  0.000156  0.023983 -0.079231  0.000000  0.135993
  2H   2s        -0.002909  0.004060  0.037070 -0.087898 -0.000000  0.168449
  2H   3s        -0.002607 -0.000012  0.013279  0.016510 -0.000000 -0.028341
  2H   4s        -0.000028 -0.000441  0.002175  0.001101 -0.000000 -0.006691
  2H   1pz        0.000000 -0.000000  0.000000 -0.000000  0.002193 -0.000000
  2H   1px        0.000061  0.000215 -0.002022  0.007519  0.000000 -0.011178
  2H   1py        0.000016  0.000134 -0.001766  0.002654  0.000000 -0.004699
  2H   2pz       -0.000000 -0.000000  0.000000  0.000000  0.007275 -0.000000
  2H   2px        0.000721  0.000089 -0.001794  0.001517  0.000000 -0.002881
  2H   2py        0.000495 -0.000251 -0.000385  0.000916  0.000000  0.003746
  2H   3pz       -0.000000 -0.000000  0.000000  0.000000 -0.005332 -0.000000
  2H   3px        0.000682  0.000379  0.001679 -0.011525  0.000000  0.022002
  2H   3py        0.000146 -0.000107  0.003490 -0.005797  0.000000  0.004298
  2H   1dz2      -0.000011  0.000119 -0.000383  0.000909  0.000000 -0.001099
  2H   1dxz       0.000000  0.000000 -0.000000 -0.000000 -0.000940  0.000000
  2H   1dyz       0.000000  0.000000 -0.000000 -0.000000 -0.000701  0.000000
  2H   1dx2y2    -0.000089 -0.000132 -0.000150 -0.000719 -0.000000  0.002267
  2H   1dxy      -0.000014 -0.000192  0.000570 -0.000937 -0.000000  0.001606
  2H   2dz2       0.000060  0.000155  0.002335 -0.002231  0.000000  0.001061
  2H   2dxz       0.000000  0.000000  0.000000 -0.000000 -0.000881 -0.000000
  2H   2dyz       0.000000  0.000000  0.000000 -0.000000 -0.001303 -0.000000
  2H   2dx2y2    -0.000041 -0.000250 -0.000620  0.002244 -0.000000 -0.000654
  2H   2dxy      -0.000104 -0.000310 -0.002260  0.002122 -0.000000 -0.001147
  3H   1s        -0.000004  0.000104  0.024766 -0.083691  0.060762 -0.014285
  3H   2s        -0.001536  0.003091  0.030769 -0.096086  0.075357 -0.023423
  3H   3s        -0.001616  0.000711  0.006731 -0.002084 -0.035452  0.021324
  3H   4s        -0.000058  0.000012  0.000425  0.000799 -0.002199  0.003166
  3H   1pz        0.000021  0.000211 -0.001970  0.007169 -0.003620  0.001403
  3H   1px       -0.000020 -0.000127  0.001312 -0.004301  0.003726  0.002110
  3H   1py       -0.000003  0.000092 -0.001730  0.002247 -0.003052  0.003493
  3H   2pz        0.000259  0.000413  0.000555  0.002162  0.001426  0.000032
  3H   2px       -0.000127 -0.000243 -0.000685 -0.001486  0.002072  0.007808
  3H   2py        0.000242 -0.000340 -0.000772 -0.001219 -0.001159  0.006751
  3H   3pz        0.000267  0.000223  0.002301 -0.006657  0.012918 -0.005373
  3H   3px       -0.000288 -0.000122 -0.002165  0.003794 -0.011052  0.001570
  3H   3py        0.000569  0.000212  0.000685 -0.004225  0.000064 -0.003062
  3H   1dz2      -0.000036 -0.000152 -0.000113 -0.000813 -0.000040  0.000009
  3H   1dxz       0.000029  0.000191 -0.000251  0.001232 -0.000947 -0.000795
  3H   1dyz       0.000031 -0.000108  0.000587 -0.000773  0.000982 -0.001730
  3H   1dx2y2    -0.000040 -0.000072 -0.000381 -0.000132  0.000035  0.001522
  3H   1dxy      -0.000010  0.000056 -0.000428  0.000402 -0.000928  0.000480
  3H   2dz2       0.000002 -0.000255 -0.001172  0.001749 -0.000710 -0.000004
  3H   2dxz       0.000011  0.000304  0.002922 -0.002920  0.000540 -0.001379
  3H   2dyz       0.000020 -0.000331 -0.001893  0.001519 -0.000882  0.000201
  3H   2dx2y2     0.000038 -0.000174  0.000689 -0.000013 -0.000331  0.000231
  3H   2dxy       0.000085  0.000083  0.000746 -0.001128 -0.000022 -0.000471
  4H   1s        -0.000004  0.000104  0.024766 -0.083691 -0.060762 -0.014285
  4H   2s        -0.001536  0.003091  0.030769 -0.096086 -0.075357 -0.023423
  4H   3s        -0.001616  0.000711  0.006731 -0.002084  0.035452  0.021324
  4H   4s        -0.000058  0.000012  0.000425  0.000799  0.002199  0.003166
  4H   1pz       -0.000021 -0.000211  0.001970 -0.007169 -0.003620 -0.001403
  4H   1px       -0.000020 -0.000127  0.001312 -0.004301 -0.003726  0.002110
  4H   1py       -0.000003  0.000092 -0.001730  0.002247  0.003052  0.003493
  4H   2pz       -0.000259 -0.000413 -0.000555 -0.002162  0.001426 -0.000032
  4H   2px       -0.000127 -0.000243 -0.000685 -0.001486 -0.002072  0.007808
  4H   2py        0.000242 -0.000340 -0.000772 -0.001219  0.001159  0.006751
  4H   3pz       -0.000267 -0.000223 -0.002301  0.006657  0.012918  0.005373
  4H   3px       -0.000288 -0.000122 -0.002165  0.003794  0.011052  0.001570
  4H   3py        0.000569  0.000212  0.000685 -0.004225 -0.000064 -0.003062
  4H   1dz2      -0.000036 -0.000152 -0.000113 -0.000813  0.000040  0.000009
  4H   1dxz      -0.000029 -0.000191  0.000251 -0.001232 -0.000947  0.000795
  4H   1dyz      -0.000031  0.000108 -0.000587  0.000773  0.000982  0.001730
  4H   1dx2y2    -0.000040 -0.000072 -0.000381 -0.000132 -0.000035  0.001522
  4H   1dxy      -0.000010  0.000056 -0.000428  0.000402  0.000928  0.000480
  4H   2dz2       0.000002 -0.000255 -0.001172  0.001749  0.000710 -0.000004
  4H   2dxz      -0.000011 -0.000304 -0.002922  0.002920  0.000540  0.001379
  4H   2dyz      -0.000020  0.000331  0.001893 -0.001519 -0.000882 -0.000201
  4H   2dx2y2     0.000038 -0.000174  0.000689 -0.000013  0.000331  0.000231
  4H   2dxy       0.000085  0.000083  0.000746 -0.001128  0.000022 -0.000471
  5H   1s        -0.000383  0.000034  0.076035  0.061983  0.119971  0.056177
  5H   2s        -0.001256 -0.001033  0.075394  0.072901  0.195127  0.105607
  5H   3s         0.000842  0.000635 -0.010123 -0.003776  0.053101  0.039081
  5H   4s         0.000047  0.000338 -0.001559 -0.002047 -0.001408 -0.001082
  5H   1pz       -0.000208  0.000036 -0.007633 -0.006657 -0.008743 -0.006663
  5H   1px       -0.000124  0.000035 -0.004106 -0.003223 -0.007850 -0.000427
  5H   1py        0.000076 -0.000037  0.004136  0.001181  0.006440 -0.000032
  5H   2pz        0.000024  0.000194 -0.002507 -0.006184 -0.011777 -0.016738
  5H   2px       -0.000059  0.000110 -0.000392 -0.001878 -0.015832  0.001033
  5H   2py        0.000404 -0.001287  0.007638 -0.004378  0.010028 -0.004166
  5H   3pz       -0.000158 -0.000177  0.007672  0.004238  0.007080  0.000077
  5H   3px       -0.000265  0.000084  0.006084  0.003902 -0.000101  0.003231
  5H   3py        0.000533 -0.000319 -0.000951 -0.006859 -0.000418 -0.003756
  5H   1dz2       0.000180  0.000081  0.000119  0.001544  0.001544  0.002970
  5H   1dxz       0.000334 -0.000001  0.000898  0.001406  0.003738  0.001357
  5H   1dyz      -0.000253  0.000124 -0.001394 -0.000397 -0.002658 -0.000705
  5H   1dx2y2     0.000060  0.000084 -0.000374  0.000644  0.000389  0.000167
  5H   1dxy      -0.000176  0.000095 -0.000678 -0.000137 -0.002241  0.000196
  5H   2dz2      -0.000104  0.000065 -0.002445 -0.000198 -0.002433  0.001252
  5H   2dxz       0.000047 -0.000024 -0.003056 -0.001365  0.000599 -0.001985
  5H   2dyz      -0.000075  0.000250  0.000152  0.002508  0.002247  0.003176
  5H   2dx2y2    -0.000099  0.000147 -0.001302  0.001248  0.000562  0.000673
  5H   2dxy      -0.000116  0.000054  0.001105  0.001415  0.000175  0.001770
  6H   1s        -0.000383  0.000034  0.076035  0.061983 -0.119971  0.056177
  6H   2s        -0.001256 -0.001033  0.075394  0.072901 -0.195127  0.105607
  6H   3s         0.000842  0.000635 -0.010123 -0.003776 -0.053101  0.039081
  6H   4s         0.000047  0.000338 -0.001559 -0.002047  0.001408 -0.001082
  6H   1pz        0.000208 -0.000036  0.007633  0.006657 -0.008743  0.006663
  6H   1px       -0.000124  0.000035 -0.004106 -0.003223  0.007850 -0.000427
  6H   1py        0.000076 -0.000037  0.004136  0.001181 -0.006440 -0.000032
  6H   2pz       -0.000024 -0.000194  0.002507  0.006184 -0.011777  0.016738
  6H   2px       -0.000059  0.000110 -0.000392 -0.001878  0.015832  0.001033
  6H   2py        0.000404 -0.001287  0.007638 -0.004378 -0.010028 -0.004166
  6H   3pz        0.000158  0.000177 -0.007672 -0.004238  0.007080 -0.000077
  6H   3px       -0.000265  0.000084  0.006084  0.003902  0.000101  0.003231
  6H   3py        0.000533 -0.000319 -0.000951 -0.006859  0.000418 -0.003756
  6H   1dz2       0.000180  0.000081  0.000119  0.001544 -0.001544  0.002970
  6H   1dxz      -0.000334  0.000001 -0.000898 -0.001406  0.003738 -0.001357
  6H   1dyz       0.000253 -0.000124  0.001394  0.000397 -0.002658  0.000705
  6H   1dx2y2     0.000060  0.000084 -0.000374  0.000644 -0.000389  0.000167
  6H   1dxy      -0.000176  0.000095 -0.000678 -0.000137  0.002241  0.000196
  6H   2dz2      -0.000104  0.000065 -0.002445 -0.000198  0.002433  0.001252
  6H   2dxz      -0.000047  0.000024  0.003056  0.001365  0.000599  0.001985
  6H   2dyz       0.000075 -0.000250 -0.000152 -0.002508  0.002247 -0.003176
  6H   2dx2y2    -0.000099  0.000147 -0.001302  0.001248 -0.000562  0.000673
  6H   2dxy      -0.000116  0.000054  0.001105  0.001415 -0.000175  0.001770
                      6         7         8         9        10        11   
                  -0.55833  -0.51626  -0.38956   0.02959   0.04285   0.04386
                   2.00000   2.00000   2.00000   0.00000   0.00000   0.00000
                  --------  --------  --------  --------  --------  --------
  0C   1s         0.000396  0.000000  0.000019  0.004741  0.000310 -0.000000
  0C   2s        -0.014226  0.000000  0.025194 -0.030292  0.042014  0.000000
  0C   3s        -0.003728  0.000000  0.005608  0.025079 -0.008350 -0.000000
  0C   4s         0.146216 -0.000000  0.009172 -3.344559  2.206030  0.000000
  0C   5s         0.005195 -0.000000  0.039187 -5.450257  1.932580  0.000000
  0C   1pz       -0.000000 -0.208052  0.000000  0.000000 -0.000000  0.019747
  0C   1px       -0.159896  0.000000 -0.089950 -0.004383 -0.005558 -0.000000
  0C   1py        0.146778 -0.000000 -0.042660 -0.022766  0.000818  0.000000
  0C   2pz        0.000000 -0.279266 -0.000000 -0.000000 -0.000000  0.121989
  0C   2px       -0.214618 -0.000000 -0.125570 -0.032052 -0.052654  0.000000
  0C   2py        0.181625  0.000000 -0.064111 -0.070821  0.079437 -0.000000
  0C   3pz        0.000000 -0.261720 -0.000000 -0.000000 -0.000000  1.251656
  0C   3px       -0.166699  0.000000 -0.177423 -0.281053 -0.714773  0.000000
  0C   3py        0.077231  0.000000 -0.044769 -0.031456  0.526531 -0.000000
  0C   4pz        0.000000 -0.014684 -0.000000  0.000000 -0.000000  1.591129
  0C   4px       -0.005263 -0.000000 -0.027032 -0.319729 -0.643873 -0.000000
  0C   4py        0.007389  0.000000 -0.013311  0.648250  1.009448  0.000000
  0C   1dz2       0.015009 -0.000000  0.006353 -0.000250  0.001771  0.000000
  0C   1dxz       0.000000  0.015063 -0.000000  0.000000  0.000000 -0.002138
  0C   1dyz       0.000000 -0.013426 -0.000000 -0.000000  0.000000 -0.000539
  0C   1dx2y2     0.007910  0.000000 -0.005197 -0.001841  0.002356  0.000000
  0C   1dxy      -0.006041  0.000000 -0.017141  0.000308  0.000184  0.000000
  0C   2dz2       0.035797 -0.000000  0.017564  0.003609  0.062325 -0.000000
  0C   2dxz      -0.000000  0.038404  0.000000  0.000000  0.000000 -0.075129
  0C   2dyz       0.000000 -0.029787 -0.000000 -0.000000 -0.000000  0.057868
  0C   2dx2y2     0.015337 -0.000000 -0.017987 -0.035820  0.042783  0.000000
  0C   2dxy      -0.018053 -0.000000 -0.046714 -0.033505 -0.017649  0.000000
  0C   3dz2       0.018249 -0.000000  0.026663  0.099783  0.209059 -0.000000
  0C   3dxz       0.000000  0.039198  0.000000  0.000000  0.000000 -0.191522
  0C   3dyz       0.000000 -0.005067 -0.000000  0.000000 -0.000000  0.028209
  0C   3dx2y2     0.000424  0.000000 -0.025269  0.036243  0.051705  0.000000
  0C   3dxy      -0.021852  0.000000 -0.020463 -0.024412 -0.117373 -0.000000
  0C   1f0       -0.000000 -0.000914  0.000000 -0.000000  0.000000  0.000441
  0C   1f+1      -0.000787  0.000000 -0.000960  0.006191 -0.006323 -0.000000
  0C   1f-1      -0.001253 -0.000000  0.001233 -0.001890  0.002453 -0.000000
  0C   1f+2       0.000000 -0.001094 -0.000000 -0.000000 -0.000000  0.001184
  0C   1f-2      -0.000000  0.001372  0.000000  0.000000  0.000000 -0.002815
  0C   1f+3      -0.001424 -0.000000  0.004585  0.000338 -0.001390 -0.000000
  0C   1f-3       0.003834  0.000000  0.000356  0.005792 -0.001532 -0.000000
  0C   2f0       -0.000000 -0.002809 -0.000000  0.000000 -0.000000  0.006353
  0C   2f+1      -0.007912  0.000000 -0.001741  0.073845 -0.047180 -0.000000
  0C   2f-1       0.004994 -0.000000  0.004157 -0.018199  0.019916 -0.000000
  0C   2f+2      -0.000000 -0.002388 -0.000000 -0.000000 -0.000000  0.019361
  0C   2f-2       0.000000  0.006906  0.000000  0.000000 -0.000000 -0.005414
  0C   2f+3       0.000482  0.000000  0.004910  0.020584 -0.003847  0.000000
  0C   2f-3       0.000788  0.000000  0.003501  0.051224 -0.024571 -0.000000
  1N   1s        -0.000505 -0.000000 -0.001945 -0.002793 -0.002314 -0.000000
  1N   2s         0.008135 -0.000000 -0.133139 -0.040344 -0.036926 -0.000000
  1N   3s         0.005453 -0.000000 -0.035494 -0.011231 -0.006691 -0.000000
  1N   4s         0.030922  0.000000 -0.281283  0.107220 -0.570712 -0.000000
  1N   5s         0.034200 -0.000000 -0.152801  1.511070 -0.746957  0.000000
  1N   1pz        0.000000  0.127192 -0.000000  0.000000 -0.000000  0.018783
  1N   1px       -0.027252  0.000000  0.268071 -0.012157 -0.010893 -0.000000
  1N   1py       -0.180758  0.000000  0.087210  0.018527  0.000823  0.000000
  1N   2pz        0.000000  0.153034 -0.000000 -0.000000 -0.000000  0.053237
  1N   2px       -0.038778  0.000000  0.344108 -0.020223 -0.040125  0.000000
  1N   2py       -0.232846  0.000000  0.117421  0.028895  0.013099 -0.000000
  1N   3pz       -0.000000  0.091475 -0.000000 -0.000000 -0.000000  0.418952
  1N   3px       -0.019497 -0.000000  0.264825 -0.106020 -0.173586 -0.000000
  1N   3py       -0.159349  0.000000  0.097799  0.617365  0.244233 -0.000000
  1N   4pz       -0.000000  0.001274 -0.000000 -0.000000 -0.000000  0.929769
  1N   4px       -0.006928 -0.000000  0.042654 -0.136444 -0.338914  0.000000
  1N   4py       -0.000872 -0.000000  0.000400  1.183213  0.952166  0.000000
  1N   1dz2       0.005697  0.000000 -0.001657  0.000833 -0.000137 -0.000000
  1N   1dxz       0.000000  0.007603  0.000000  0.000000 -0.000000  0.000102
  1N   1dyz      -0.000000 -0.007481  0.000000  0.000000 -0.000000 -0.000158
  1N   1dx2y2     0.005700  0.000000  0.002503  0.000585 -0.000770 -0.000000
  1N   1dxy      -0.006896 -0.000000 -0.000278 -0.000216 -0.000731 -0.000000
  1N   2dz2       0.017486 -0.000000 -0.007757 -0.012824 -0.018549  0.000000
  1N   2dxz      -0.000000  0.014301 -0.000000 -0.000000  0.000000  0.025677
  1N   2dyz       0.000000 -0.012531 -0.000000  0.000000 -0.000000  0.000276
  1N   2dx2y2     0.019056 -0.000000  0.006479 -0.009557 -0.006283  0.000000
  1N   2dxy      -0.017247  0.000000  0.004024  0.005108  0.012784 -0.000000
  1N   3dz2       0.015641 -0.000000 -0.012321 -0.095208 -0.019790  0.000000
  1N   3dxz      -0.000000 -0.002473 -0.000000 -0.000000 -0.000000  0.129925
  1N   3dyz       0.000000  0.010003  0.000000  0.000000 -0.000000 -0.060267
  1N   3dx2y2     0.014630 -0.000000  0.001841 -0.100054 -0.006953  0.000000
  1N   3dxy      -0.003639 -0.000000  0.012560  0.051429  0.080799 -0.000000
  1N   1f0       -0.000000  0.001785  0.000000  0.000000  0.000000 -0.000366
  1N   1f+1       0.000034  0.000000  0.001646  0.000871 -0.001412  0.000000
  1N   1f-1       0.001614 -0.000000  0.000626 -0.000912  0.000682  0.000000
  1N   1f+2      -0.000000  0.000910  0.000000  0.000000  0.000000  0.000080
  1N   1f-2      -0.000000 -0.000356 -0.000000 -0.000000  0.000000 -0.001231
  1N   1f+3      -0.001055  0.000000  0.001191  0.000086 -0.000441 -0.000000
  1N   1f-3      -0.003641  0.000000  0.002945  0.000677 -0.000128 -0.000000
  1N   2f0        0.000000 -0.001100 -0.000000 -0.000000 -0.000000  0.007916
  1N   2f+1       0.005018 -0.000000 -0.001641 -0.012439 -0.005022  0.000000
  1N   2f-1       0.002596  0.000000  0.002962  0.010666  0.001410 -0.000000
  1N   2f+2       0.000000  0.001207 -0.000000 -0.000000 -0.000000  0.003760
  1N   2f-2       0.000000 -0.001828 -0.000000  0.000000 -0.000000  0.004287
  1N   2f+3      -0.002809 -0.000000  0.001080 -0.009505  0.000699  0.000000
  1N   2f-3      -0.002247  0.000000  0.000111  0.004204 -0.000276 -0.000000
  2H   1s        -0.064200  0.000000 -0.093654 -0.009830  0.002664  0.000000
  2H   2s        -0.086549  0.000000 -0.116036  0.347006 -0.107806 -0.000000
  2H   3s         0.042192 -0.000000  0.054109  1.572360  0.074030 -0.000000
  2H   4s         0.002935  0.000000  0.011851  1.318450 -0.268586  0.000000
  2H   1pz        0.000000 -0.004208 -0.000000 -0.000000 -0.000000  0.002434
  2H   1px        0.002911 -0.000000  0.005592  0.001705 -0.001357  0.000000
  2H   1py        0.005745 -0.000000  0.001394  0.000501 -0.000346  0.000000
  2H   2pz       -0.000000 -0.012670 -0.000000 -0.000000  0.000000 -0.019349
  2H   2px       -0.007593 -0.000000 -0.006240 -0.097090  0.037743  0.000000
  2H   2py        0.009106 -0.000000 -0.003346 -0.055002  0.018718  0.000000
  2H   3pz       -0.000000 -0.010558 -0.000000 -0.000000  0.000000 -0.153572
  2H   3px       -0.018081  0.000000 -0.026038 -0.311650  0.041758  0.000000
  2H   3py       -0.005617  0.000000 -0.021570 -0.140145 -0.042113  0.000000
  2H   1dz2       0.000828 -0.000000  0.000416 -0.002594  0.001051  0.000000
  2H   1dxz      -0.000000  0.001695  0.000000  0.000000 -0.000000 -0.000410
  2H   1dyz      -0.000000  0.000743  0.000000  0.000000  0.000000 -0.001204
  2H   1dx2y2     0.001706  0.000000 -0.001127  0.003089 -0.000373 -0.000000
  2H   1dxy      -0.002222  0.000000 -0.000018  0.003902 -0.001723 -0.000000
  2H   2dz2      -0.001587  0.000000  0.000246 -0.001944 -0.001710  0.000000
  2H   2dxz       0.000000  0.002217 -0.000000  0.000000 -0.000000  0.021878
  2H   2dyz      -0.000000  0.000224  0.000000  0.000000 -0.000000  0.014865
  2H   2dx2y2     0.002047 -0.000000  0.001978  0.000543 -0.011395 -0.000000
  2H   2dxy       0.000786  0.000000  0.000927 -0.002719 -0.001674 -0.000000
  3H   1s         0.090719 -0.130593  0.038391 -0.006501  0.007330  0.007806
  3H   2s         0.102075 -0.162716  0.048166  0.248465 -0.262245 -0.179704
  3H   3s        -0.031141  0.059848 -0.018328  0.811818 -1.654484 -1.603520
  3H   4s        -0.003859  0.008297 -0.006337  0.182498 -2.086235 -3.061906
  3H   1pz       -0.008077  0.006760 -0.002644  0.001184 -0.001391  0.000193
  3H   1px        0.001692 -0.006814 -0.000359 -0.001060 -0.000215  0.001096
  3H   1py       -0.000564  0.004239 -0.001108 -0.000622 -0.000762 -0.001328
  3H   2pz       -0.004028 -0.006298 -0.000668 -0.054763  0.073704  0.048343
  3H   2px       -0.005833 -0.003466 -0.004581  0.035349 -0.039910 -0.035514
  3H   2py        0.006720  0.001529 -0.003182 -0.029954  0.035332  0.032421
  3H   3pz        0.015331 -0.026600  0.007038 -0.137938  0.295639  0.192298
  3H   3px       -0.007880  0.008529 -0.013350  0.091211 -0.155106 -0.197951
  3H   3py        0.005268 -0.017506 -0.002204  0.006080  0.109823  0.237231
  3H   1dz2       0.002289 -0.000164  0.000627  0.001371 -0.001643 -0.002053
  3H   1dxz      -0.000794  0.001658 -0.000061 -0.002183  0.003343  0.002375
  3H   1dyz      -0.000042 -0.001053  0.000428  0.002400 -0.002336 -0.001739
  3H   1dx2y2     0.000562 -0.000539 -0.000377 -0.000150 -0.000387 -0.000286
  3H   1dxy       0.000470  0.000967 -0.000275 -0.001376  0.001615  0.000313
  3H   2dz2       0.000455  0.001923 -0.000087 -0.002859 -0.006732  0.009832
  3H   2dxz       0.000579 -0.001053  0.001083  0.001570 -0.002523  0.004146
  3H   2dyz      -0.001148  0.000810  0.001775 -0.013449 -0.003536 -0.009797
  3H   2dx2y2    -0.000764  0.000209 -0.001397  0.001440  0.001058 -0.001053
  3H   2dxy       0.000579 -0.000041 -0.001143  0.003986  0.005924  0.009203
  4H   1s         0.090719  0.130593  0.038391 -0.006501  0.007330 -0.007806
  4H   2s         0.102075  0.162716  0.048166  0.248465 -0.262245  0.179704
  4H   3s        -0.031141 -0.059848 -0.018328  0.811818 -1.654484  1.603520
  4H   4s        -0.003859 -0.008297 -0.006337  0.182498 -2.086235  3.061906
  4H   1pz        0.008077  0.006760  0.002644 -0.001184  0.001391  0.000193
  4H   1px        0.001692  0.006814 -0.000359 -0.001060 -0.000215 -0.001096
  4H   1py       -0.000564 -0.004239 -0.001108 -0.000622 -0.000762  0.001328
  4H   2pz        0.004028 -0.006298  0.000668  0.054763 -0.073704  0.048343
  4H   2px       -0.005833  0.003466 -0.004581  0.035349 -0.039910  0.035514
  4H   2py        0.006720 -0.001529 -0.003182 -0.029954  0.035332 -0.032421
  4H   3pz       -0.015331 -0.026600 -0.007038  0.137938 -0.295639  0.192298
  4H   3px       -0.007880 -0.008529 -0.013350  0.091211 -0.155106  0.197951
  4H   3py        0.005268  0.017506 -0.002204  0.006080  0.109823 -0.237231
  4H   1dz2       0.002289  0.000164  0.000627  0.001371 -0.001643  0.002053
  4H   1dxz       0.000794  0.001658  0.000061  0.002183 -0.003343  0.002375
  4H   1dyz       0.000042 -0.001053 -0.000428 -0.002400  0.002336 -0.001739
  4H   1dx2y2     0.000562  0.000539 -0.000377 -0.000150 -0.000387  0.000286
  4H   1dxy       0.000470 -0.000967 -0.000275 -0.001376  0.001615 -0.000313
  4H   2dz2       0.000455 -0.001923 -0.000087 -0.002859 -0.006732 -0.009832
  4H   2dxz      -0.000579 -0.001053 -0.001083 -0.001570  0.002523  0.004146
  4H   2dyz       0.001148  0.000810 -0.001775  0.013449  0.003536 -0.009797
  4H   2dx2y2    -0.000764 -0.000209 -0.001397  0.001440  0.001058  0.001053
  4H   2dxy       0.000579  0.000041 -0.001143  0.003986  0.005924 -0.009203
  5H   1s         0.042621  0.080687  0.039026 -0.001459 -0.002982  0.004556
  5H   2s         0.053772  0.133712  0.098771  0.077342  0.132628 -0.127784
  5H   3s        -0.000433  0.087320  0.070092  0.404602  0.584307 -0.910890
  5H   4s         0.000779  0.003167  0.001768  1.019161  1.817458 -2.535780
  5H   1pz       -0.004448 -0.005378 -0.004414  0.002424  0.001531  0.000706
  5H   1px       -0.003531 -0.004784  0.005365  0.001123  0.000030 -0.000833
  5H   1py       -0.003093  0.003112  0.004550  0.001557  0.000088  0.001293
  5H   2pz       -0.004822 -0.005019 -0.014523 -0.010384 -0.046626  0.015774
  5H   2px       -0.006268 -0.008849  0.014426 -0.012045 -0.019890  0.022291
  5H   2py       -0.015491  0.004287  0.013787 -0.015941  0.008286 -0.034620
  5H   3pz        0.002088 -0.004869 -0.003125 -0.080790 -0.165882  0.044005
  5H   3px        0.002557 -0.005873  0.019329 -0.051776 -0.059611  0.127391
  5H   3py       -0.013867  0.001103  0.006956 -0.003652 -0.086032 -0.170714
  5H   1dz2       0.001929  0.001237  0.002061 -0.000835  0.000875 -0.001458
  5H   1dxz       0.002094  0.002464 -0.000928  0.000008  0.001366 -0.000857
  5H   1dyz       0.001056 -0.001599 -0.002213  0.000325 -0.001397  0.002022
  5H   1dx2y2     0.001566  0.000692 -0.001785  0.000148 -0.000038  0.000042
  5H   1dxy       0.000090 -0.001119 -0.000334  0.000171 -0.001228  0.001140
  5H   2dz2       0.000993 -0.001571  0.000602  0.005137  0.014072  0.027308
  5H   2dxz       0.001305  0.000286 -0.005000  0.005126  0.008492 -0.006538
  5H   2dyz       0.004375  0.000959 -0.000621  0.011638  0.006417  0.008624
  5H   2dx2y2     0.003033  0.000663 -0.002381  0.006060  0.008574  0.010019
  5H   2dxy       0.001758  0.000164  0.000185  0.003542  0.004250  0.006123
  6H   1s         0.042621 -0.080687  0.039026 -0.001459 -0.002982 -0.004556
  6H   2s         0.053772 -0.133712  0.098771  0.077342  0.132628  0.127784
  6H   3s        -0.000433 -0.087320  0.070092  0.404602  0.584307  0.910890
  6H   4s         0.000779 -0.003167  0.001768  1.019161  1.817458  2.535780
  6H   1pz        0.004448 -0.005378  0.004414 -0.002424 -0.001531  0.000706
  6H   1px       -0.003531  0.004784  0.005365  0.001123  0.000030  0.000833
  6H   1py       -0.003093 -0.003112  0.004550  0.001557  0.000088 -0.001293
  6H   2pz        0.004822 -0.005019  0.014523  0.010384  0.046626  0.015774
  6H   2px       -0.006268  0.008849  0.014426 -0.012045 -0.019890 -0.022291
  6H   2py       -0.015491 -0.004287  0.013787 -0.015941  0.008286  0.034620
  6H   3pz       -0.002088 -0.004869  0.003125  0.080790  0.165882  0.044005
  6H   3px        0.002557  0.005873  0.019329 -0.051776 -0.059611 -0.127391
  6H   3py       -0.013867 -0.001103  0.006956 -0.003652 -0.086032  0.170714
  6H   1dz2       0.001929 -0.001237  0.002061 -0.000835  0.000875  0.001458
  6H   1dxz      -0.002094  0.002464  0.000928 -0.000008 -0.001366 -0.000857
  6H   1dyz      -0.001056 -0.001599  0.002213 -0.000325  0.001397  0.002022
  6H   1dx2y2     0.001566 -0.000692 -0.001785  0.000148 -0.000038 -0.000042
  6H   1dxy       0.000090  0.001119 -0.000334  0.000171 -0.001228 -0.001140
  6H   2dz2       0.000993  0.001571  0.000602  0.005137  0.014072 -0.027308
  6H   2dxz      -0.001305  0.000286  0.005000 -0.005126 -0.008492 -0.006538
  6H   2dyz      -0.004375  0.000959  0.000621 -0.011638 -0.006417  0.008624
  6H   2dx2y2     0.003033 -0.000663 -0.002381  0.006060  0.008574 -0.010019
  6H   2dxy       0.001758 -0.000164  0.000185  0.003542  0.004250 -0.006123
                     12        13        14        15        16        17   
                   0.04927   0.06892   0.09869   0.12603   0.12740   0.13979
                   0.00000   0.00000   0.00000   0.00000   0.00000   0.00000
                  --------  --------  --------  --------  --------  --------
  0C   1s        -0.001661 -0.000000  0.007318 -0.000000 -0.000556  0.013014
  0C   2s        -0.008600  0.000000  0.024677 -0.000000 -0.032942  0.115121
  0C   3s        -0.005828 -0.000000  0.033378 -0.000000 -0.030780  0.100229
  0C   4s         0.445684  0.000000 -1.842577  0.000000  2.451154 -7.591760
  0C   5s         0.441458 -0.000000 -7.348639 -0.000000 -2.369140-14.370199
  0C   1pz       -0.000000  0.014007  0.000000 -0.032748  0.000000  0.000000
  0C   1px       -0.023799 -0.000000  0.004452 -0.000000 -0.030331  0.006628
  0C   1py        0.003761  0.000000 -0.003448 -0.000000 -0.005832  0.049085
  0C   2pz       -0.000000  0.088975 -0.000000 -0.168127  0.000000 -0.000000
  0C   2px       -0.118533  0.000000 -0.010469  0.000000 -0.043810 -0.014018
  0C   2py       -0.003050 -0.000000  0.111058  0.000000  0.092537 -0.042739
  0C   3pz       -0.000000  0.950032 -0.000000  2.511080 -0.000000 -0.000000
  0C   3px       -1.358053  0.000000 -0.324156  0.000000  2.223260 -0.472972
  0C   3py       -0.233367  0.000000  2.075950 -0.000000  0.076078 -1.142990
  0C   4pz       -0.000000  2.221185  0.000000  6.218898 -0.000000  0.000000
  0C   4px       -2.560372  0.000000 -0.420997  0.000000  4.573926 -0.211183
  0C   4py       -0.588137  0.000000  5.418925  0.000000  1.327155  0.422825
  0C   1dz2       0.001987  0.000000 -0.003184  0.000000  0.002977 -0.002188
  0C   1dxz       0.000000 -0.001804  0.000000  0.006385 -0.000000  0.000000
  0C   1dyz      -0.000000  0.000886 -0.000000  0.000226  0.000000 -0.000000
  0C   1dx2y2    -0.001571 -0.000000 -0.004573  0.000000  0.000644 -0.003325
  0C   1dxy      -0.000944  0.000000  0.000836  0.000000 -0.002054 -0.000758
  0C   2dz2       0.039651 -0.000000  0.044924 -0.000000  0.021952 -0.005659
  0C   2dxz       0.000000 -0.026120  0.000000  0.059256 -0.000000  0.000000
  0C   2dyz      -0.000000  0.061726 -0.000000 -0.041340  0.000000 -0.000000
  0C   2dx2y2    -0.001038  0.000000  0.038288  0.000000  0.077286 -0.060293
  0C   2dxy      -0.057156  0.000000 -0.047201  0.000000  0.096436 -0.033209
  0C   3dz2       0.034232 -0.000000  0.275739 -0.000000 -0.238045  0.288740
  0C   3dxz       0.000000  0.087608  0.000000 -0.594554  0.000000  0.000000
  0C   3dyz      -0.000000  0.659481  0.000000 -0.162225  0.000000  0.000000
  0C   3dx2y2    -0.007149  0.000000  0.414376  0.000000  0.361488 -0.096391
  0C   3dxy      -0.228816 -0.000000 -0.127090  0.000000  0.045938 -0.207180
  0C   1f0       -0.000000  0.001729 -0.000000  0.002847 -0.000000 -0.000000
  0C   1f+1      -0.000836  0.000000  0.000305 -0.000000 -0.008744  0.012765
  0C   1f-1       0.002011 -0.000000 -0.001265 -0.000000  0.002980 -0.003385
  0C   1f+2      -0.000000  0.002403 -0.000000  0.003853 -0.000000 -0.000000
  0C   1f-2       0.000000 -0.001713  0.000000  0.002546 -0.000000  0.000000
  0C   1f+3       0.001257 -0.000000  0.001500 -0.000000 -0.004939  0.000068
  0C   1f-3       0.001635 -0.000000  0.003674 -0.000000 -0.008612  0.010997
  0C   2f0        0.000000  0.006284  0.000000 -0.067594  0.000000  0.000000
  0C   2f+1      -0.015975 -0.000000  0.054128 -0.000000 -0.054456  0.156435
  0C   2f-1       0.004906 -0.000000 -0.012665 -0.000000 -0.008763 -0.060151
  0C   2f+2       0.000000 -0.000213 -0.000000 -0.088065  0.000000 -0.000000
  0C   2f-2      -0.000000 -0.005814  0.000000  0.008859  0.000000  0.000000
  0C   2f+3      -0.002938  0.000000  0.019180  0.000000  0.020050  0.023425
  0C   2f-3       0.005155 -0.000000  0.047152 -0.000000 -0.031146  0.118348
  1N   1s         0.000926  0.000000 -0.007915  0.000000  0.001100 -0.002697
  1N   2s         0.020980  0.000000  0.035229  0.000000  0.006979  0.061767
  1N   3s         0.003782  0.000000 -0.005693  0.000000  0.000275  0.018130
  1N   4s         0.217321 -0.000000  2.700607  0.000000  0.577022 -0.053040
  1N   5s         0.480561  0.000000  9.952003  0.000000  6.271101  6.591575
  1N   1pz       -0.000000 -0.016986  0.000000 -0.012684  0.000000  0.000000
  1N   1px       -0.004796  0.000000  0.001330 -0.000000 -0.044963  0.008308
  1N   1py       -0.004913 -0.000000  0.006838 -0.000000 -0.002590 -0.039319
  1N   2pz        0.000000 -0.074642 -0.000000 -0.014363 -0.000000 -0.000000
  1N   2px        0.001105 -0.000000  0.065442 -0.000000 -0.029245 -0.004555
  1N   2py       -0.006331  0.000000 -0.013490 -0.000000 -0.015290 -0.033368
  1N   3pz        0.000000 -0.702922 -0.000000 -0.888967  0.000000 -0.000000
  1N   3px        0.204328 -0.000000  0.247362  0.000000  0.163021 -0.011693
  1N   3py       -0.280602  0.000000  0.679818 -0.000000  0.125389  1.259867
  1N   4pz        0.000000 -1.593620 -0.000000 -2.199365  0.000000 -0.000000
  1N   4px        0.668874  0.000000 -0.069533  0.000000  0.047515  0.056724
  1N   4py       -0.406136  0.000000  2.012277  0.000000  2.617761  4.338939
  1N   1dz2       0.000415  0.000000  0.001031  0.000000  0.001795  0.001965
  1N   1dxz      -0.000000 -0.000023  0.000000  0.001715 -0.000000  0.000000
  1N   1dyz       0.000000 -0.000165 -0.000000 -0.000873  0.000000  0.000000
  1N   1dx2y2     0.000115 -0.000000  0.002314 -0.000000 -0.001391  0.000611
  1N   1dxy      -0.000109 -0.000000  0.000420 -0.000000 -0.001160 -0.002499
  1N   2dz2      -0.001159 -0.000000  0.013905  0.000000  0.018419 -0.028268
  1N   2dxz       0.000000 -0.039243 -0.000000 -0.015972 -0.000000 -0.000000
  1N   2dyz      -0.000000  0.037623  0.000000  0.009746  0.000000  0.000000
  1N   2dx2y2     0.000936  0.000000 -0.043685  0.000000  0.021536 -0.009011
  1N   2dxy      -0.017649  0.000000 -0.033035 -0.000000 -0.011997  0.021553
  1N   3dz2      -0.004969 -0.000000  0.012360  0.000000  0.028601 -0.204251
  1N   3dxz       0.000000 -0.163729 -0.000000 -0.097709 -0.000000 -0.000000
  1N   3dyz      -0.000000  0.235884  0.000000 -0.132658  0.000000  0.000000
  1N   3dx2y2     0.061827 -0.000000 -0.150794  0.000000  0.065033 -0.228827
  1N   3dxy      -0.037699 -0.000000 -0.077881 -0.000000 -0.108181  0.158270
  1N   1f0        0.000000  0.000308  0.000000 -0.001738  0.000000  0.000000
  1N   1f+1       0.000437 -0.000000  0.003399 -0.000000 -0.000562  0.001133
  1N   1f-1       0.000264  0.000000 -0.004872  0.000000  0.000038 -0.001382
  1N   1f+2       0.000000 -0.000547  0.000000 -0.002157  0.000000  0.000000
  1N   1f-2      -0.000000  0.001380 -0.000000 -0.000166  0.000000 -0.000000
  1N   1f+3      -0.000659  0.000000  0.000773  0.000000  0.001599  0.000768
  1N   1f-3      -0.000117 -0.000000  0.002670 -0.000000 -0.000443  0.000022
  1N   2f0       -0.000000 -0.011442 -0.000000  0.032201 -0.000000 -0.000000
  1N   2f+1       0.002372 -0.000000  0.009708  0.000000  0.019114 -0.021704
  1N   2f-1      -0.009007  0.000000 -0.021629  0.000000 -0.000587  0.026249
  1N   2f+2      -0.000000 -0.004600 -0.000000  0.035220 -0.000000 -0.000000
  1N   2f-2      -0.000000  0.019625  0.000000  0.030565  0.000000  0.000000
  1N   2f+3       0.002064 -0.000000 -0.003963 -0.000000 -0.015569 -0.013288
  1N   2f-3       0.004359 -0.000000  0.023355 -0.000000  0.006239  0.014060
  2H   1s        -0.009969  0.000000 -0.001181  0.000000 -0.004502 -0.002441
  2H   2s         0.134080 -0.000000  0.187440 -0.000000 -0.516128  0.767907
  2H   3s         1.998385 -0.000000  0.259191 -0.000000 -3.747105  4.134030
  2H   4s         6.509446  0.000000 -1.615482 -0.000000 -6.824577  0.918933
  2H   1pz       -0.000000  0.001814  0.000000  0.006649 -0.000000 -0.000000
  2H   1px        0.001315  0.000000 -0.002429  0.000000  0.006840 -0.003404
  2H   1py        0.001410  0.000000  0.004551 -0.000000 -0.001128 -0.004299
[...]
  6   0.000208211306   0.000022492478         0.003
  7   0.000063957609   0.000003818008         0.003

      *** CONVERGENCE OF RESIDUAL NORM REACHED ***
       --- The STEOM iterations have converged ---
Solving Root No   7 

Iter    Delta-E          Residual              Time
---------------------------------------------------
  0   0.331048163619   0.000869260208         0.004
  1   0.001905988716   0.000241740223         0.003
  2   0.007864063461   0.020775922694         0.003
  3   0.007849930166   0.000188739722         0.003
  4   0.001140967445   0.001232846432         0.003
  5   0.000897915531   0.000046359729         0.003
  6   0.000097200586   0.000022464587         0.003
  7   0.000036993845   0.000045071526         0.003
  8   0.000152359290   0.000085935956         0.003
  9   0.000025950161   0.000025831170         0.003
 10   0.000269683354   0.004542485953         0.004
 11   0.000318602245   0.000023370407         0.003
 12   0.000032908445   0.000013934153         0.003
 13   0.000066813166   0.000015169992         0.003
 14   0.000038380509   0.000008294132         0.003

      *** CONVERGENCE OF RESIDUAL NORM REACHED ***
       --- The STEOM iterations have converged ---
Solving Root No   8 

Iter    Delta-E          Residual              Time
---------------------------------------------------
  0   0.329310934973   0.000638415920         0.004
  1   0.001337196913   0.000175506599         0.003
  2   0.006345759668   0.010178137355         0.003
  3   0.006440578647   0.000033048558         0.003
  4   0.000250562877   0.000068186860         0.003
  5   0.000553564490   0.000530766125         0.003
  6   0.000385782896   0.000016744736         0.003
  7   0.000020292949   0.000007028615         0.003

      *** CONVERGENCE OF RESIDUAL NORM REACHED ***
       --- The STEOM iterations have converged ---
Solving Root No   9 

Iter    Delta-E          Residual              Time
---------------------------------------------------
  0   0.336588354083   0.000963366074         0.004
  1   0.003389176800   0.003523544943         0.003
  2   0.002781301697   0.000870368061         0.003
  3   0.001077583936   0.000260208909         0.003
  4   0.000472641743   0.001214109993         0.003
  5   0.000319115507   0.000356089866         0.003
  6   0.000042679263   0.000065304207         0.003
  7   0.000231650226   0.000685620371         0.003
  8   0.000156710795   0.000082892681         0.003
  9   0.000101367258   0.000106758302         0.003
 10   0.000133796552   0.000318291591         0.003
 11   0.000027355891   0.000016950040         0.003
 12   0.000049124613   0.000019265248         0.003
 13   0.000111629272   0.000040333203         0.003
 14   0.000210594684   0.000043493257         0.004
 15   0.000103352272   0.000014245237         0.004
 16   0.000050312878   0.000004227172         0.004

      *** CONVERGENCE OF RESIDUAL NORM REACHED ***
       --- The STEOM iterations have converged ---
Solving Root No  10 

Iter    Delta-E          Residual              Time
---------------------------------------------------
  0   0.339170920144   0.000873218047         0.004
  1   0.001765394534   0.000686102290         0.003
  2   0.001528005846   0.001815014282         0.003
  3   0.001190774045   0.000267471739         0.003
  4   0.002697512697   0.009823617376         0.003
  5   0.002506569823   0.000077571563         0.003
  6   0.000292930643   0.000448495937         0.003
  7   0.000295626072   0.000133695121         0.003
  8   0.000014222602   0.000039203594         0.003
  9   0.000022314803   0.000058174373         0.003
 10   0.000553655386   0.000600580787         0.003
 11   0.001225539327   0.000114234023         0.003
 12   0.000176928508   0.000028558464         0.003
 13   0.000183934018   0.000113881592         0.003
 14   0.000298728210   0.000059424151         0.003
 15   0.000088501516   0.000009103433         0.003

      *** CONVERGENCE OF RESIDUAL NORM REACHED ***
       --- The STEOM iterations have converged ---

------------------
STEOM-CCSD RESULTS
------------------

IROOT=  1:  0.214621 au     5.840 eV   47103.9 cm**-1
  Amplitude    Excitation
   0.814285     8 ->   9
   0.259964     8 ->  14
   0.134512     8 ->  17
   0.480662     8 ->  18
  Ground state amplitude:  0.006140

Percentage Active Character     99.60

  Amplitude    Excitation in Canonical Basis
   0.767970     8 ->   9
   0.225082     8 ->  10
  -0.136694     8 ->  12
  -0.291214     8 ->  14
   0.100807     8 ->  16
  -0.381727     8 ->  17
  -0.146322     8 ->  18
   0.119563     8 ->  21
  -0.141265     8 ->  23

IROOT=  2:  0.261159 au     7.106 eV   57317.7 cm**-1
  Amplitude    Excitation
  -0.732113     8 ->  12
  -0.629850     8 ->  13
  -0.224687     8 ->  16
  Ground state amplitude:  0.000000

Percentage Active Character     99.27

  Amplitude    Excitation in Canonical Basis
  -0.851728     8 ->  11
   0.240612     8 ->  13
   0.207347     8 ->  15
   0.356460     8 ->  20
  -0.129330     8 ->  22

IROOT=  3:  0.262707 au     7.149 eV   57657.5 cm**-1
  Amplitude    Excitation
   0.290809     8 ->  10
   0.910545     8 ->  11
  -0.116936     8 ->  14
   0.138904     8 ->  15
   0.145327     8 ->  17
   0.123694     8 ->  18
  Ground state amplitude:  0.004182

Percentage Active Character     99.82

  Amplitude    Excitation in Canonical Basis
  -0.337781     8 ->   9
   0.807952     8 ->  10
  -0.190574     8 ->  12
  -0.115052     8 ->  16
   0.387298     8 ->  19

IROOT=  4:  0.274466 au     7.469 eV   60238.4 cm**-1
  Amplitude    Excitation
   0.879428     8 ->  10
  -0.244264     8 ->  11
  -0.224753     8 ->  14
  -0.317370     8 ->  15
  Ground state amplitude:  0.008127

Percentage Active Character     99.79

  Amplitude    Excitation in Canonical Basis
   0.253571     8 ->  10
   0.832373     8 ->  12
   0.113772     8 ->  14
   0.372378     8 ->  16
   0.108488     8 ->  19
  -0.202355     8 ->  21

IROOT=  5:  0.303655 au     8.263 eV   66644.6 cm**-1
  Amplitude    Excitation
   0.378826     8 ->   9
  -0.140460     8 ->  10
  -0.842011     8 ->  14
   0.262733     8 ->  15
  -0.218419     8 ->  18
  Ground state amplitude: -0.003690

Percentage Active Character     99.66

  Amplitude    Excitation in Canonical Basis
   0.387388     8 ->   9
   0.796148     8 ->  14
  -0.233247     8 ->  16
   0.104799     8 ->  19
  -0.165638     8 ->  21
   0.196830     8 ->  23
  -0.135632     8 ->  25
  -0.154437     8 ->  26

IROOT=  6:  0.303783 au     8.266 eV   66672.6 cm**-1
  Amplitude    Excitation
   0.665985     8 ->  12
  -0.680848     8 ->  13
  -0.283598     8 ->  16
  Ground state amplitude:  0.000000

Percentage Active Character     99.26

  Amplitude    Excitation in Canonical Basis
   0.269693     8 ->  11
   0.902700     8 ->  13
  -0.312651     8 ->  22

IROOT=  7:  0.327816 au     8.920 eV   71947.4 cm**-1
  Amplitude    Excitation
   0.328278     8 ->  13
  -0.938202     8 ->  16
  Ground state amplitude: -0.000000

Percentage Active Character     99.34

  Amplitude    Excitation in Canonical Basis
   0.154463     8 ->  11
   0.887674     8 ->  15
  -0.271765     8 ->  20
  -0.233377     8 ->  22
  -0.166611     8 ->  29
   0.105914     8 ->  31

IROOT=  8:  0.328816 au     8.948 eV   72166.8 cm**-1
  Amplitude    Excitation
  -0.119366     8 ->   9
  -0.274477     8 ->  10
   0.178077     8 ->  11
  -0.325583     8 ->  14
  -0.667466     8 ->  15
  -0.397178     8 ->  17
   0.385374     8 ->  18
  Ground state amplitude:  0.016410

Percentage Active Character     98.66

  Amplitude    Excitation in Canonical Basis
  -0.145135     8 ->   9
  -0.352312     8 ->  12
   0.296619     8 ->  14
   0.770480     8 ->  16
  -0.134091     8 ->  18
   0.274701     8 ->  21
  -0.114028     8 ->  25
   0.135844     8 ->  30

IROOT=  9:  0.334550 au     9.104 eV   73425.2 cm**-1
  Amplitude    Excitation
  -0.323237     8 ->   9
  -0.201809     8 ->  11
  -0.162840     8 ->  14
   0.107107     8 ->  15
   0.776925     8 ->  17
   0.413813     8 ->  18
  -0.163106     8 ->  19
  Ground state amplitude:  0.001971

Percentage Active Character     96.74

Warning:: the state may have not converged with respect to active space 
-------------------- Handle with Care -------------------- 

  Amplitude    Excitation in Canonical Basis
  -0.279769     8 ->   9
  -0.154783     8 ->  10
   0.146472     8 ->  12
   0.128633     8 ->  14
  -0.279021     8 ->  16
  -0.541985     8 ->  17
  -0.565224     8 ->  18
   0.253223     8 ->  19
  -0.156894     8 ->  21
  -0.121109     8 ->  23
  -0.116954     8 ->  30
   0.127423     8 ->  33

IROOT= 10:  0.338039 au     9.199 eV   74191.0 cm**-1
  Amplitude    Excitation
  -0.205173     8 ->  10
  -0.569559     8 ->  15
   0.686851     8 ->  17
  -0.344299     8 ->  18
   0.115474     8 ->  19
  Ground state amplitude:  0.011152

Percentage Active Character     97.20

Warning:: the state may have not converged with respect to active space 
-------------------- Handle with Care -------------------- 

  Amplitude    Excitation in Canonical Basis
  -0.122871     8 ->  12
   0.401514     8 ->  17
  -0.836614     8 ->  18
  -0.229478     8 ->  21
  -0.101080     8 ->  32


STEOM-CCSD done (   22.4 sec)
Calculating the Dipole integrals                  ... done
Transforming integrals                            ... done
Calculating the Linear Momentum integrals         ... done
Transforming integrals                            ... done
Calculating angular momentum integrals            ... done
Transforming integrals                            ... done

--------------------------------------------------------------------
               UNRELAXED EXCITED STATE DIPOLE MOMENTS
--------------------------------------------------------------------
               E(eV)     DX(au)      DY(au)      DZ(au)      |D|(D)
IROOT=  0:     0.000    0.497627    0.151584    0.000000    1.322250
IROOT=  1:     5.840   -0.970619    1.482000    0.000000    4.502948
IROOT=  2:     7.106   -0.329326    0.970468   -0.000821    2.604896
IROOT=  3:     7.149    0.052142   -2.230797   -0.000001    5.671783
IROOT=  4:     7.469    0.480072   -1.368049    0.000001    3.685193
IROOT=  5:     8.263   -0.123917   -0.163846    0.000001    0.522157
IROOT=  6:     8.266    2.004781   -2.306535   -0.000046    7.767782
IROOT=  7:     8.920   -0.001964   -0.622270   -0.000025    1.581693
IROOT=  8:     8.948   -0.313633   -1.644946   -0.000007    4.256440
IROOT=  9:     9.104    0.081632    1.225388    0.000486    3.121593
IROOT= 10:     9.199    0.951202   -0.101391    0.000405    2.431461
--------------------------------------------------------------------

-----------------------------------------------------------------------------
         ABSORPTION SPECTRUM VIA TRANSITION ELECTRIC DIPOLE MOMENTS
-----------------------------------------------------------------------------
State   Energy  Wavelength   fosc         T2         TX        TY        TZ  
        (cm-1)    (nm)                  (au**2)     (au)      (au)      (au) 
-----------------------------------------------------------------------------
   1   47103.9    212.3   0.016657650   0.11642   0.34050   0.02169   0.00000
   2   57317.7    174.5   0.000971762   0.00558   0.00000   0.00000   0.07471
   3   57657.5    173.4   0.029704149   0.16960   0.35443   0.20961   0.00000
   4   60238.4    166.0   0.040028633   0.21876   0.19969   0.42295   0.00000
   5   66644.6    150.0   0.003113745   0.01538   0.12372   0.00845   0.00000
   6   66672.6    150.0   0.000725541   0.00358   0.00000   0.00000   0.05985
   7   71947.4    139.0   0.006570800   0.03007   0.00000   0.00000   0.17340
   8   72166.8    138.6   0.011984514   0.05467   0.15520   0.17480   0.00000
   9   73425.2    136.2   0.001087620   0.00488   0.06363   0.01757   0.00000
  10   74191.0    134.8   0.005568670   0.02471   0.06743   0.14138   0.00001

-------------------------------------------------------------------
                             CD SPECTRUM
-------------------------------------------------------------------
State   Energy Wavelength       R         MX        MY        MZ   
        (cm-1)   (nm)       (1e40*cgs)   (au)      (au)      (au)  
-------------------------------------------------------------------
   1     212.3   47103.9      0.00004   0.00000  -0.00000   0.32613
   2     174.5   57317.7     -0.00059  -0.02749   0.04384  -0.00000
   3     173.4   57657.5      0.00001   0.00000  -0.00000  -0.11224
   4     166.0   60238.4     -0.00000   0.00000  -0.00000  -0.02274
   5     150.0   66644.6     -0.00001  -0.00000   0.00000  -0.27599
   6     150.0   66672.6      0.00018  -0.16320   0.08370   0.00000
   7     139.0   71947.4      0.00003  -0.26938   0.16481  -0.00000
   8     138.6   72166.8     -0.00002   0.00000   0.00000  -0.14098
   9     136.2   73425.2      0.00008   0.00000   0.00000   0.19470
  10     134.8   74191.0      0.00029  -0.00000  -0.00001   0.11381

TDM done (   22.7 sec)
STEOM-CCSD done in (   22.7)


------------------------------------------------------------------------------- 
                                     TIMINGS                                   
------------------------------------------------------------------------------- 


Total execution time                   ...      109.884 sec

Localization of occupied MO's          ...        0.432 sec (  0.4%)
Fock Matrix Formation                  ...        1.800 sec (  1.6%)
Global overlap, Fock, MKN matrices     ...        0.223 sec (  0.2%)
Differential overlap integrals         ...        0.192 sec (  0.2%)
Organizing maps                        ...        0.006 sec (  0.0%)
RI 3-index integral generations        ...        0.884 sec (  0.8%)
RI-PNO integral transformation         ...        6.403 sec (  5.8%)
Initial Guess                          ...        0.404 sec (  0.4%)
DIIS Solver                            ...        0.041 sec (  0.0%)
State Vector Update                    ...        0.003 sec (  0.0%)
Sigma-vector construction              ...       13.724 sec ( 12.5%)
  <D|H|D>(0-ext)                       ...        0.109 sec (  0.8% of sigma)
  <D|H|D>(2-ext Fock)                  ...        0.002 sec (  0.0% of sigma)
  <D|H|D>(2-ext)                       ...        0.597 sec (  4.4% of sigma)
  <D|H|D>(4-ext)                       ...        2.519 sec ( 18.4% of sigma)
  <D|H|D>(4-ext-corr)                  ...        8.334 sec ( 60.7% of sigma)
  CCSD doubles correction              ...        0.016 sec (  0.1% of sigma)
  <S|H|S>                              ...        0.126 sec (  0.9% of sigma)
  <S|H|D>(1-ext)                       ...        0.026 sec (  0.2% of sigma)
  <S|H|D>(3-ext)                       ...        0.063 sec (  0.5% of sigma)
  Fock-dressing                        ...        0.722 sec (  5.3% of sigma)
  Singles amplitudes                   ...        0.038 sec (  0.3% of sigma)
  (ik|jl)-dressing                     ...        0.077 sec (  0.6% of sigma)
  (ij|ab),(ia|jb)-dressing             ...        0.183 sec (  1.3% of sigma)
  Pair energies                        ...        0.002 sec (  0.0% of sigma)
Total Time for computing EOM-CCSD      ...       58.446 sec ( 53.2% of ALL)
  Dressing integrals                   ...        0.463 sec (  0.8% of (EOM))
  EOM Singles                          ...        1.044 sec (  1.8% of (EOM))
  EOM Doubles                          ...       50.819 sec ( 87.0% of (EOM))
  Build Hamiltonian                    ...        0.611 sec (  1.0% of (EOM))
  Diagonalize Hamiltonian              ...        0.086 sec (  0.1% of (EOM))
  Ritz vectors                         ...        1.200 sec (  2.1% of (EOM))
  Residual vectors                     ...        1.347 sec (  2.3% of (EOM))
One-particle density matrix            ...        0.047 sec (  0.0%)


Maximum memory used throughout the entire MDCI-calculation: 571.6 MB

-------------------------   --------------------
FINAL SINGLE POINT ENERGY       -95.475966221790
-------------------------   --------------------


                            ***************************************
                            *     ORCA property calculations      *
                            ***************************************

                                    ---------------------
                                    Active property flags
                                    ---------------------
   (+) Dipole Moment


------------------------------------------------------------------------------
                       ORCA ELECTRIC PROPERTIES CALCULATION
------------------------------------------------------------------------------

Dipole Moment Calculation                       ... on
Quadrupole Moment Calculation                   ... off
Polarizability Calculation                      ... off
GBWName                                         ... 000006.gbw
Electron density file                           ... 000006.scfp
The origin for moment calculation is the CENTER OF MASS  = (-0.038563, -0.064281  0.000000)

-------------
DIPOLE MOMENT
-------------
                                X             Y             Z
Electronic contribution:     -0.17802      -1.00727       0.00000
Nuclear contribution   :      0.69414       1.15705       0.00000
                        -----------------------------------------
Total Dipole Moment    :      0.51612       0.14978       0.00000
                        -----------------------------------------
Magnitude (a.u.)       :      0.53741
Magnitude (Debye)      :      1.36600



--------------------
Rotational spectrum 
--------------------
 
Rotational constants in cm-1:     3.474609     0.765529     0.734935 
Rotational constants in MHz : 104166.157176 22949.993415 22032.811960 

 Dipole components along the rotational axes: 
x,y,z [a.u.] :    -0.119951     0.000000    -0.523856 
x,y,z [Debye]:    -0.304892     0.000000    -1.331535 

 

                           *** MDCI DENSITY ***

------------------------------------------------------------------------------
                       ORCA ELECTRIC PROPERTIES CALCULATION
------------------------------------------------------------------------------

Dipole Moment Calculation                       ... on
Quadrupole Moment Calculation                   ... off
Polarizability Calculation                      ... off
GBWName                                         ... 000006.gbw
Electron density file                           ... 000006.mdcip
The origin for moment calculation is the CENTER OF MASS  = (-0.038563, -0.064281  0.000000)

-------------
DIPOLE MOMENT
-------------
                                X             Y             Z
Electronic contribution:     -0.20348      -1.00807       0.00000
Nuclear contribution   :      0.69414       1.15705       0.00000
                        -----------------------------------------
Total Dipole Moment    :      0.49065       0.14898       0.00000
                        -----------------------------------------
Magnitude (a.u.)       :      0.51277
Magnitude (Debye)      :      1.30336



--------------------
Rotational spectrum 
--------------------
 
Rotational constants in cm-1:     3.474609     0.765529     0.734935 
Rotational constants in MHz : 104166.157176 22949.993415 22032.811960 

 Dipole components along the rotational axes: 
x,y,z [a.u.] :    -0.120607     0.000000    -0.498385 
x,y,z [Debye]:    -0.306559     0.000000    -1.266794 

 

Timings for individual modules:

Sum of individual times         ...      126.848 sec (=   2.114 min)
GTO integral calculation        ...        0.682 sec (=   0.011 min)   0.5 %
SCF iterations                  ...       15.946 sec (=   0.266 min)  12.6 %
MDCI module                     ...      110.219 sec (=   1.837 min)  86.9 %
                             ****ORCA TERMINATED NORMALLY****
TOTAL RUN TIME: 0 days 0 hours 2 minutes 7 seconds 384 msec
