
                                        *****************
                                        * O   R   C   A *
                                        *****************

                                            #,                                       
                                            ###                                      
                                            ####                                     
                                            #####                                    
                                            ######                                   
                                           ########,                                 
                                     ,,################,,,,,                         
                               ,,#################################,,                 
                          ,,##########################################,,             
                       ,#########################################, ''#####,          
                    ,#############################################,,   '####,        
                  ,##################################################,,,,####,       
                ,###########''''           ''''###############################       
              ,#####''   ,,,,##########,,,,          '''####'''          '####       
            ,##' ,,,,###########################,,,                        '##       
           ' ,,###''''                  '''############,,,                           
         ,,##''                                '''############,,,,        ,,,,,,###''
      ,#''                                            '''#######################'''  
     '                                                          ''''####''''         
             ,#######,   #######,   ,#######,      ##                                
            ,#'     '#,  ##    ##  ,#'     '#,    #''#        ######   ,####,        
            ##       ##  ##   ,#'  ##            #'  '#       #        #'  '#        
            ##       ##  #######   ##           ,######,      #####,   #    #        
            '#,     ,#'  ##    ##  '#,     ,#' ,#      #,         ##   #,  ,#        
             '#######'   ##     ##  '#######'  #'      '#     #####' # '####'        



                  #######################################################
                  #                        -***-                        #
                  #          Department of theory and spectroscopy      #
                  #    Directorship and core code : Frank Neese         #
                  #        Max Planck Institute fuer Kohlenforschung    #
                  #                Kaiser Wilhelm Platz 1               #
                  #                 D-45470 Muelheim/Ruhr               #
                  #                      Germany                        #
                  #                                                     #
                  #                  All rights reserved                #
                  #                        -***-                        #
                  #######################################################


                         Program Version 5.0.0 -  RELEASE  -
                                (SVN: $Rev: 19529$)
                ($Date: 2021-06-28 11:36:33 +0200 (Mo, 28 Jun 2021) $)


 With contributions from (in alphabetic order):
   Daniel Aravena         : Magnetic Suceptibility
   Michael Atanasov       : Ab Initio Ligand Field Theory (pilot matlab implementation)
   Alexander A. Auer      : GIAO ZORA, VPT2 properties, NMR spectrum
   Ute Becker             : Parallelization
   Giovanni Bistoni       : ED, misc. LED, open-shell LED, HFLD
   Martin Brehm           : Molecular dynamics
   Dmytro Bykov           : SCF Hessian
   Vijay G. Chilkuri      : MRCI spin determinant printing, contributions to CSF-ICE
   Dipayan Datta          : RHF DLPNO-CCSD density
   Achintya Kumar Dutta   : EOM-CC, STEOM-CC
   Dmitry Ganyushin       : Spin-Orbit,Spin-Spin,Magnetic field MRCI
   Miquel Garcia          : C-PCM Hessian, Gaussian charge scheme
   Yang Guo               : DLPNO-NEVPT2, F12-NEVPT2, CIM, IAO-localization
   Andreas Hansen         : Spin unrestricted coupled pair/coupled cluster methods
   Benjamin Helmich-Paris : MC-RPA, TRAH-SCF, COSX integrals
   Lee Huntington         : MR-EOM, pCC
   Robert Izsak           : Overlap fitted RIJCOSX, COSX-SCS-MP3, EOM
   Marcus Kettner         : VPT2
   Christian Kollmar      : KDIIS, OOCD, Brueckner-CCSD(T), CCSD density, CASPT2, CASPT2-K
   Simone Kossmann        : Meta GGA functionals, TD-DFT gradient, OOMP2, MP2 Hessian
   Martin Krupicka        : Initial AUTO-CI
   Lucas Lang             : DCDCAS
   Marvin Lechner         : AUTO-CI (C++ implementation), FIC-MRCC
   Dagmar Lenk            : GEPOL surface, SMD
   Dimitrios Liakos       : Extrapolation schemes; Compound Job, initial MDCI parallelization
   Dimitrios Manganas     : Further ROCIS development; embedding schemes
   Dimitrios Pantazis     : SARC Basis sets
   Anastasios Papadopoulos: AUTO-CI, single reference methods and gradients
   Taras Petrenko         : DFT Hessian,TD-DFT gradient, ASA, ECA, R-Raman, ABS, FL, XAS/XES, NRVS
   Peter Pinski           : DLPNO-MP2, DLPNO-MP2 Gradient
   Christoph Reimann      : Effective Core Potentials
   Marius Retegan         : Local ZFS, SOC
   Christoph Riplinger    : Optimizer, TS searches, QM/MM, DLPNO-CCSD(T), (RO)-DLPNO pert. Triples
   Tobias Risthaus        : Range-separated hybrids, TD-DFT gradient, RPA, STAB
   Michael Roemelt        : Original ROCIS implementation
   Masaaki Saitow         : Open-shell DLPNO-CCSD energy and density
   Barbara Sandhoefer     : DKH picture change effects
   Avijit Sen             : IP-ROCIS
   Kantharuban Sivalingam : CASSCF convergence, NEVPT2, FIC-MRCI
   Bernardo de Souza      : ESD, SOC TD-DFT
   Georgi Stoychev        : AutoAux, RI-MP2 NMR
   Willem Van den Heuvel  : Paramagnetic NMR
   Boris Wezisla          : Elementary symmetry handling
   Frank Wennmohs         : Technical directorship


 We gratefully acknowledge several colleagues who have allowed us to
 interface, adapt or use parts of their codes:
   Stefan Grimme, W. Hujo, H. Kruse, P. Pracht,  : VdW corrections, initial TS optimization,
                  C. Bannwarth, S. Ehlert          DFT functionals, gCP, sTDA/sTD-DF
   Ed Valeev, F. Pavosevic, A. Kumar             : LibInt (2-el integral package), F12 methods
   Garnet Chan, S. Sharma, J. Yang, R. Olivares  : DMRG
   Ulf Ekstrom                                   : XCFun DFT Library
   Mihaly Kallay                                 : mrcc  (arbitrary order and MRCC methods)
   Jiri Pittner, Ondrej Demel                    : Mk-CCSD
   Frank Weinhold                                : gennbo (NPA and NBO analysis)
   Christopher J. Cramer and Donald G. Truhlar   : smd solvation model
   Lars Goerigk                                  : TD-DFT with DH, B97 family of functionals
   V. Asgeirsson, H. Jonsson                     : NEB implementation
   FAccTs GmbH                                   : IRC, NEB, NEB-TS, DLPNO-Multilevel, CI-OPT
                                                   MM, QMMM, 2- and 3-layer-ONIOM, Crystal-QMMM,
                                                   LR-CPCM, SF, NACMEs, symmetry and pop. for TD-DFT,
                                                   nearIR, NL-DFT gradient (VV10), updates on ESD,
                                                   ML-optimized integration grids
   S Lehtola, MJT Oliveira, MAL Marques          : LibXC Library
   Liviu Ungur et al                             : ANISO software


 Your calculation uses the libint2 library for the computation of 2-el integrals
 For citations please refer to: http://libint.valeyev.net

 Your ORCA version has been built with support for libXC version: 5.1.0
 For citations please refer to: https://tddft.org/programs/libxc/

 This ORCA versions uses:
   CBLAS   interface :  Fast vector & matrix operations
   LAPACKE interface :  Fast linear algebra routines
   SCALAPACK package :  Parallel linear algebra routines
   Shared memory     :  Shared parallel matrices
   BLAS/LAPACK       :  OpenBLAS 0.3.15  USE64BITINT DYNAMIC_ARCH NO_AFFINITY Haswell SINGLE_THREADED
        Core in use  :  Haswell
   Copyright (c) 2011-2014, The OpenBLAS Project




***************************************
The coordinates will be read from file: 000013.xyz
***************************************


================================================================================

----- Orbital basis set information -----
Your calculation utilizes the basis: aug-cc-pVTZ 
    H, B-Ne : Obtained from the ccRepo (grant-hill.group.shef.ac.uk/ccrepo) Feb. 2017
              R. A. Kendall, T. H. Dunning, Jr., R. J. Harrison, J. Chem. Phys. 96, 6796 (1992)
         He : Obtained from the ccRepo (grant-hill.group.shef.ac.uk/ccrepo) Feb. 2017
              D. E. Woon, T. H. Dunning, Jr., J. Chem. Phys. 100, 2975 (1994)
  Li-Be, Na : Obtained from the ccRepo (grant-hill.group.shef.ac.uk/ccrepo) Feb. 2017
              B. P. Prascher, D. E. Woon, K. A. Peterson, T. H. Dunning, Jr., A. K. Wilson, Theor. Chem. Acc. 128, 69 (2011)
         Mg : Obtained from the Peterson Research Group Website (tyr0.chem.wsu.edu/~kipeters) Feb. 2017
              B. P. Prascher, D. E. Woon, K. A. Peterson, T. H. Dunning, Jr., A. K. Wilson, Theor. Chem. Acc. 128, 69 (2011)
      Al-Ar : Obtained from the ccRepo (grant-hill.group.shef.ac.uk/ccrepo) Feb. 2017
              D. E. Woon, T. H. Dunning, Jr., J. Chem. Phys. 98, 1358 (1993)
      Sc-Zn : Obtained from the ccRepo (grant-hill.group.shef.ac.uk/ccrepo) Feb. 2017
              N. B. Balabanov, K. A. Peterson, J. Chem. Phys. 123, 064107 (2005)
              N. B. Balabanov, K. A. Peterson, J. Chem. Phys. 125, 074110 (2006)
      Ga-Kr : Obtained from the ccRepo (grant-hill.group.shef.ac.uk/ccrepo) Feb. 2017
              A. K. Wilson, D. E. Woon, K. A. Peterson, T. H. Dunning, Jr., J. Chem. Phys. 110, 7667 (1999)
     Ag, Au : Obtained from the Peterson Research Group Website (tyr0.chem.wsu.edu/~kipeters) Feb. 2017
              K. A. Peterson, C. Puzzarini, Theor. Chem. Acc. 114, 283 (2005)

----- AuxJ basis set information -----
Your calculation utilizes the auxiliary basis: def2/J
   F. Weigend, Phys. Chem. Chem. Phys. 8, 1057 (2006).

----- AuxC basis set information -----
Your calculation utilizes the auxiliary basis: aug-cc-pVTZ/C 
  H-He, B-F, Al-Ar, Ga-Kr : Obtained from the EMSL Basis Set Exchange (bse.pnl.gov) Feb. 2017
                            F. Weigend, A. Kohn, C. Hattig, J. Chem. Phys. 116, 3175 (2002)
                   Be, Mg : Obtained from the TURBOMOLE 7.0 basis set library
                            C. Haettig, Phys. Chem. Chem. Phys. 7, 59 (2005)
                       Ne : Obtained from the EMSL Basis Set Exchange (bse.pnl.gov) Feb. 2017
                            C. Haettig, Phys. Chem. Chem. Phys. 7, 59 (2005)
                            F. Weigend, A. Kohn, C. Hattig, J. Chem. Phys. 116, 3175 (2002)
                    Sc-Zn : Obtained from the EMSL Basis Set Exchange (bse.pnl.gov) Feb. 2017
                            J. G. Hill, J. A. Platts, J. Chem. Phys. 128, 044104 (2008)

================================================================================
                                        WARNINGS
                       Please study these warnings very carefully!
================================================================================


WARNING: Post HF methods need fully converged wavefunctions
  ===> : Setting SCFConvForced true
         You can overwrite this default with %scf ConvForced false 


WARNING: MDCI localization with Augmented Hessian Foster-Boys
  ===> : Switching off randomization!

INFO   : the flag for use of the SHARK integral package has been found!

================================================================================
                                       INPUT FILE
================================================================================
NAME = 000013.com
|  1> !STEOM-DLPNO-CCSD aug-cc-pVTZ aug-cc-pVTZ/C def2/J TightSCF PrintMOs
|  2> 
|  3> *xyzfile 0 1 000013.xyz
|  4> 
|  5> %MaxCore 64000
|  6> %scf
|  7>  MaxIter 150
|  8> end
|  9> 
| 10> %pal nprocs 8
| 11> end
| 12> 
| 13> %mdci
| 14>  nroots 10
| 15>  DoRootwise true
| 16> end
| 17> 
| 18>                          ****END OF INPUT****
================================================================================

                       ****************************
                       * Single Point Calculation *
                       ****************************

---------------------------------
CARTESIAN COORDINATES (ANGSTROEM)
---------------------------------
  C      0.000000    0.000000    0.597322
  C      0.000000    0.000000   -0.597322
  H      0.000000    0.000000    1.661338
  H      0.000000    0.000000   -1.661338

----------------------------
CARTESIAN COORDINATES (A.U.)
----------------------------
  NO LB      ZA    FRAG     MASS         X           Y           Z
   0 C     6.0000    0    12.011    0.000000    0.000000    1.128775
   1 C     6.0000    0    12.011    0.000000    0.000000   -1.128775
   2 H     1.0000    0     1.008    0.000000    0.000000    3.139474
   3 H     1.0000    0     1.008    0.000000    0.000000   -3.139474

--------------------------------
INTERNAL COORDINATES (ANGSTROEM)
--------------------------------
 C      0   0   0     0.000000000000     0.00000000     0.00000000
 C      1   0   0     1.194644000000     0.00000000     0.00000000
 H      1   2   0     1.064016000000   179.99999809     0.00000000
 H      2   1   3     1.064016000000   179.99999809     0.00000000

---------------------------
INTERNAL COORDINATES (A.U.)
---------------------------
 C      0   0   0     0.000000000000     0.00000000     0.00000000
 C      1   0   0     2.257549987532     0.00000000     0.00000000
 H      1   2   0     2.010698842110   179.99999809     0.00000000
 H      2   1   3     2.010698842110   179.99999809     0.00000000

---------------------
BASIS SET INFORMATION
---------------------
There are 2 groups of distinct atoms

 Group   1 Type C   : 19s6p3d2f contracted to 5s4p3d2f pattern {88111/3111/111/11}
 Group   2 Type H   : 6s3p2d contracted to 4s3p2d pattern {3111/111/11}

Atom   0C    basis set group =>   1
Atom   1C    basis set group =>   1
Atom   2H    basis set group =>   2
Atom   3H    basis set group =>   2
---------------------------------
AUXILIARY/J BASIS SET INFORMATION
---------------------------------
There are 2 groups of distinct atoms

 Group   1 Type C   : 12s5p4d2f1g contracted to 6s4p3d1f1g pattern {711111/2111/211/2/1}
 Group   2 Type H   : 5s2p1d contracted to 3s1p1d pattern {311/2/1}

Atom   0C    basis set group =>   1
Atom   1C    basis set group =>   1
Atom   2H    basis set group =>   2
Atom   3H    basis set group =>   2
---------------------------------
AUXILIARY/C BASIS SET INFORMATION
---------------------------------
There are 2 groups of distinct atoms

 Group   1 Type C   : 9s7p6d4f2g contracted to 9s7p6d4f2g pattern {111111111/1111111/111111/1111/11}
 Group   2 Type H   : 5s4p3d2f contracted to 5s4p3d2f pattern {11111/1111/111/11}

Atom   0C    basis set group =>   1
Atom   1C    basis set group =>   1
Atom   2H    basis set group =>   2
Atom   3H    basis set group =>   2


           ************************************************************
           *        Program running with 8 parallel MPI-processes     *
           *              working on a common directory               *
           ************************************************************
------------------------------------------------------------------------------
                           ORCA GTO INTEGRAL CALCULATION
------------------------------------------------------------------------------
------------------------------------------------------------------------------
                   ___                                                        
                  /   \      - P O W E R E D   B Y -                         
                 /     \                                                     
                 |  |  |   _    _      __       _____    __    __             
                 |  |  |  | |  | |    /  \     |  _  \  |  |  /  |          
                  \  \/   | |  | |   /    \    | | | |  |  | /  /          
                 / \  \   | |__| |  /  /\  \   | |_| |  |  |/  /          
                |  |  |   |  __  | /  /__\  \  |    /   |      \           
                |  |  |   | |  | | |   __   |  |    \   |  |\   \          
                \     /   | |  | | |  |  |  |  | |\  \  |  | \   \       
                 \___/    |_|  |_| |__|  |__|  |_| \__\ |__|  \__/        
                                                                              
                      - O R C A' S   B I G   F R I E N D -                    
                                      &                                       
                       - I N T E G R A L  F E E D E R -                       
                                                                              
 v1 FN, 2020, v2 2021                                                         
------------------------------------------------------------------------------


Reading SHARK input file 000013.SHARKINP.tmp ... ok
----------------------
SHARK INTEGRAL PACKAGE
----------------------

Number of atoms                             ...      4
Number of basis functions                   ...    138
Number of shells                            ...     46
Maximum angular momentum                    ...      3
Integral batch strategy                     ... SHARK/LIBINT Hybrid
RI-J (if used) integral strategy            ... SPLIT-RIJ (Revised 2003 algorithm where possible)
Printlevel                                  ...      1
Contraction scheme used                     ... SEGMENTED contraction
Coulomb Range Separation                    ... NOT USED
Exchange Range Separation                   ... NOT USED
Finite Nucleus Model                        ... NOT USED
Auxiliary Coulomb fitting basis             ... AVAILABLE
   # of basis functions in Aux-J            ...    120
   # of shells in Aux-J                     ...     40
   Maximum angular momentum in Aux-J        ...      4
Auxiliary J/K fitting basis                 ... NOT available
Auxiliary Correlation fitting basis         ... AVAILABLE
   # of basis functions in Aux-C            ...    304
   # of shells in Aux-C                     ...     84
   Maximum angular momentum in Aux-C        ...      4
Auxiliary 'external' fitting basis          ... NOT available
Integral threshold                          ...     2.500000e-11
Primitive cut-off                           ...     2.500000e-12
Primitive pair pre-selection threshold      ...     2.500000e-12

Calculating pre-screening integrals         ... done (  0.2 sec) Dimension = 46
Organizing shell pair data                  ... done (  0.4 sec)
Shell pair information
Total number of shell pairs                 ...      1081
Shell pairs after pre-screening             ...      1081
Total number of primitive shell pairs       ...      3527
Primitive shell pairs kept                  ...      3256
          la=0 lb=0:    171 shell pairs
          la=1 lb=0:    252 shell pairs
          la=1 lb=1:    105 shell pairs
          la=2 lb=0:    180 shell pairs
          la=2 lb=1:    140 shell pairs
          la=2 lb=2:     55 shell pairs
          la=3 lb=0:     72 shell pairs
          la=3 lb=1:     56 shell pairs
          la=3 lb=2:     40 shell pairs
          la=3 lb=3:     10 shell pairs

Calculating one electron integrals          ... done (  0.0 sec)
Calculating RI/J V-Matrix + Cholesky decomp.... done (  0.1 sec)
Calculating RI/C V-Matrix + Cholesky decomp.... done (  0.2 sec)
Calculating Nuclear repulsion               ... done (  0.0 sec) ENN=     24.885284823626 Eh

SHARK setup successfully completed in   1.1 seconds

Maximum memory used throughout the entire GTOINT-calculation: 17.2 MB


           ************************************************************
           *        Program running with 8 parallel MPI-processes     *
           *              working on a common directory               *
           ************************************************************
-------------------------------------------------------------------------------
                                 ORCA SCF
-------------------------------------------------------------------------------

------------
SCF SETTINGS
------------
Hamiltonian:
 Ab initio Hamiltonian  Method          .... Hartree-Fock(GTOs)


General Settings:
 Integral files         IntName         .... 000013
 Hartree-Fock type      HFTyp           .... RHF
 Total Charge           Charge          ....    0
 Multiplicity           Mult            ....    1
 Number of Electrons    NEL             ....   14
 Basis Dimension        Dim             ....  138
 Nuclear Repulsion      ENuc            ....     24.8852848236 Eh

Convergence Acceleration:
 DIIS                   CNVDIIS         .... on
   Start iteration      DIISMaxIt       ....    12
   Startup error        DIISStart       ....  0.200000
   # of expansion vecs  DIISMaxEq       ....     5
   Bias factor          DIISBfac        ....   1.050
   Max. coefficient     DIISMaxC        ....  10.000
 Trust-Rad. Augm. Hess. CNVTRAH         .... auto
   Auto Start mean grad. ratio tolernc. ....  1.125000
   Auto Start start iteration           ....    20
   Auto Start num. interpolation iter.  ....    10
   Max. Number of Micro iterations      ....    16
   Max. Number of Macro iterations      .... Maxiter - #DIIS iter
   Number of Davidson start vectors     ....     2
   Converg. threshold I  (grad. norm)   ....   1.000e-05
   Converg. threshold II (energy diff.) ....   1.000e-08
   Grad. Scal. Fac. for Micro threshold ....   0.100
   Minimum threshold for Micro iter.    ....   0.010
   NR start threshold (gradient norm)   ....   0.001
   Initial trust radius                 ....   0.400
   Minimum AH scaling param. (alpha)    ....   1.000
   Maximum AH scaling param. (alpha)    .... 1000.000
   Orbital update algorithm             .... Taylor
   White noise on init. David. guess    .... on
   Maximum white noise                  ....   0.010
   Quad. conv. algorithm                .... NR
 SOSCF                  CNVSOSCF        .... on
   Start iteration      SOSCFMaxIt      ....   150
   Startup grad/error   SOSCFStart      ....  0.003300
 Level Shifting         CNVShift        .... on
   Level shift para.    LevelShift      ....    0.2500
   Turn off err/grad.   ShiftErr        ....    0.0010
 Zerner damping         CNVZerner       .... off
 Static damping         CNVDamp         .... on
   Fraction old density DampFac         ....    0.7000
   Max. Damping (<1)    DampMax         ....    0.9800
   Min. Damping (>=0)   DampMin         ....    0.0000
   Turn off err/grad.   DampErr         ....    0.1000
 Fernandez-Rico         CNVRico         .... off

SCF Procedure:
 Maximum # iterations   MaxIter         ....   150
 SCF integral mode      SCFMode         .... Direct
   Integral package                     .... SHARK and LIBINT hybrid scheme
 Reset frequency        DirectResetFreq ....    20
 Integral Threshold     Thresh          ....  2.500e-11 Eh
 Primitive CutOff       TCut            ....  2.500e-12 Eh

Convergence Tolerance:
 Convergence Check Mode ConvCheckMode   .... Total+1el-Energy
 Convergence forced     ConvForced      .... 1
 Energy Change          TolE            ....  1.000e-08 Eh
 1-El. energy change                    ....  1.000e-05 Eh
 Orbital Gradient       TolG            ....  1.000e-05
 Orbital Rotation angle TolX            ....  1.000e-05
 DIIS Error             TolErr          ....  5.000e-07


Diagonalization of the overlap matrix:
Smallest eigenvalue                        ... 8.286e-06
Time for diagonalization                   ...    0.010 sec
Threshold for overlap eigenvalues          ... 1.000e-08
Number of eigenvalues below threshold      ... 0
Time for construction of square roots      ...    0.006 sec
Total time needed                          ...    0.017 sec

Time for model grid setup =    0.219 sec

------------------------------
INITIAL GUESS: MODEL POTENTIAL
------------------------------
Loading Hartree-Fock densities                     ... done
Calculating cut-offs                               ... done
Initializing the effective Hamiltonian             ... done
Setting up the integral package (SHARK)            ... done
Starting the Coulomb interaction                   ... done (   0.2 sec)
Reading the grid                                   ... done
Mapping shells                                     ... done
Starting the XC term evaluation                    ... done (   0.0 sec)
Transforming the Hamiltonian                       ... done (   0.0 sec)
Diagonalizing the Hamiltonian                      ... done (   0.0 sec)
Back transforming the eigenvectors                 ... done (   0.0 sec)
Now organizing SCF variables                       ... done
                      ------------------
                      INITIAL GUESS DONE (   0.5 sec)
                      ------------------
--------------
SCF ITERATIONS
--------------
ITER       Energy         Delta-E        Max-DP      RMS-DP      [F,P]     Damp
               ***  Starting incremental Fock matrix formation  ***
  0    -76.7324021306   0.000000000000 0.07409947  0.00140210  0.1861405 0.7000
  1    -76.7731628017  -0.040760671070 0.04676877  0.00098763  0.1280194 0.7000
                               ***Turning on DIIS***
  2    -76.7988180139  -0.025655212225 0.09800173  0.00227693  0.0870494 0.0000
  3    -76.6919053239   0.106912690040 0.01095997  0.00044031  0.0254075 0.0000
  4    -76.8300426054  -0.138137281555 0.00819482  0.00023712  0.0039218 0.0000
                      *** Initiating the SOSCF procedure ***
                           *** Shutting down DIIS ***
                      *** Re-Reading the Fockian *** 
                      *** Removing any level shift *** 
ITER      Energy       Delta-E        Grad      Rot      Max-DP    RMS-DP
  5    -76.84602103  -0.0159784260  0.000567  0.000567  0.001999  0.000053
               *** Restarting incremental Fock matrix formation ***
  6    -76.85076464  -0.0047436045  0.000177  0.000256  0.000391  0.000010
  7    -76.85076530  -0.0000006632  0.000058  0.000083  0.000182  0.000004
  8    -76.85076537  -0.0000000709  0.000011  0.000009  0.000028  0.000001
                 **** Energy Check signals convergence ****
              ***Rediagonalizing the Fockian in SOSCF/NRSCF***

               *****************************************************
               *                     SUCCESS                       *
               *           SCF CONVERGED AFTER   9 CYCLES          *
               *****************************************************


----------------
TOTAL SCF ENERGY
----------------

Total Energy       :          -76.85076537 Eh           -2091.21564 eV

Components:
Nuclear Repulsion  :           24.88528482 Eh             677.16303 eV
Electronic Energy  :         -101.73605020 Eh           -2768.37867 eV
One Electron Energy:         -151.90441462 Eh           -4133.52927 eV
Two Electron Energy:           50.16836442 Eh            1365.15060 eV

Virial components:
Potential Energy   :         -153.56725366 Eh           -4178.77742 eV
Kinetic Energy     :           76.71648829 Eh            2087.56178 eV
Virial Ratio       :            2.00175030


---------------
SCF CONVERGENCE
---------------

  Last Energy change         ...   -1.5990e-09  Tolerance :   1.0000e-08
  Last MAX-Density change    ...    6.7109e-06  Tolerance :   1.0000e-07
  Last RMS-Density change    ...    2.0310e-07  Tolerance :   5.0000e-09
  Last Orbital Gradient      ...    1.9884e-06  Tolerance :   1.0000e-05
  Last Orbital Rotation      ...    2.1236e-06  Tolerance :   1.0000e-05

             **** THE GBW FILE WAS UPDATED (000013.gbw) ****
             **** DENSITY 000013.scfp WAS UPDATED ****
             **** ENERGY FILE WAS UPDATED (000013.en.tmp) ****
             **** THE GBW FILE WAS UPDATED (000013.gbw) ****
             **** DENSITY 000013.scfp WAS UPDATED ****
----------------
ORBITAL ENERGIES
----------------

  NO   OCC          E(Eh)            E(eV) 
   0   2.0000     -11.241300      -305.8913 
   1   2.0000     -11.237286      -305.7821 
   2   2.0000      -1.032896       -28.1065 
   3   2.0000      -0.765672       -20.8350 
   4   2.0000      -0.680943       -18.5294 
   5   2.0000      -0.412871       -11.2348 
   6   2.0000      -0.412871       -11.2348 
   7   0.0000       0.031062         0.8452 
   8   0.0000       0.032634         0.8880 
   9   0.0000       0.093079         2.5328 
  10   0.0000       0.093079         2.5328 
  11   0.0000       0.095395         2.5958 
  12   0.0000       0.095395         2.5958 
  13   0.0000       0.107210         2.9173 
  14   0.0000       0.111143         3.0244 
  15   0.0000       0.143340         3.9005 
  16   0.0000       0.192465         5.2373 
  17   0.0000       0.192465         5.2373 
  18   0.0000       0.228453         6.2165 
  19   0.0000       0.258604         7.0370 
  20   0.0000       0.276844         7.5333 
  21   0.0000       0.276844         7.5333 
  22   0.0000       0.281140         7.6502 
  23   0.0000       0.300651         8.1811 
  24   0.0000       0.300651         8.1811 
  25   0.0000       0.379122        10.3164 
  26   0.0000       0.388169        10.5626 
  27   0.0000       0.388169        10.5626 
  28   0.0000       0.399691        10.8761 
  29   0.0000       0.399691        10.8761 
  30   0.0000       0.412996        11.2382 
  31   0.0000       0.421251        11.4628 
  32   0.0000       0.426793        11.6136 
  33   0.0000       0.426793        11.6136 
  34   0.0000       0.485546        13.2124 
  35   0.0000       0.485546        13.2124 
  36   0.0000       0.510810        13.8999 
  37   0.0000       0.592008        16.1094 
  38   0.0000       0.602874        16.4050 
  39   0.0000       0.602874        16.4050 
  40   0.0000       0.653211        17.7748 
  41   0.0000       0.847331        23.0571 
  42   0.0000       0.847331        23.0571 
  43   0.0000       0.894040        24.3281 
  44   0.0000       0.894040        24.3281 
  45   0.0000       0.898842        24.4587 
  46   0.0000       0.902292        24.5526 
  47   0.0000       0.937552        25.5121 
  48   0.0000       0.937552        25.5121 
  49   0.0000       0.978677        26.6312 
  50   0.0000       1.010247        27.4902 
  51   0.0000       1.010247        27.4902 
  52   0.0000       1.028736        27.9933 
  53   0.0000       1.028736        27.9933 
  54   0.0000       1.029439        28.0125 
  55   0.0000       1.029666        28.0186 
  56   0.0000       1.029666        28.0186 
  57   0.0000       1.053046        28.6548 
  58   0.0000       1.053046        28.6548 
  59   0.0000       1.141575        31.0638 
  60   0.0000       1.185754        32.2660 
  61   0.0000       1.185754        32.2660 
  62   0.0000       1.194413        32.5016 
  63   0.0000       1.194413        32.5016 
  64   0.0000       1.210399        32.9366 
  65   0.0000       1.298520        35.3345 
  66   0.0000       1.298520        35.3345 
  67   0.0000       1.387067        37.7440 
  68   0.0000       1.407815        38.3086 
  69   0.0000       1.407815        38.3086 
  70   0.0000       1.545874        42.0654 
  71   0.0000       1.545874        42.0654 
  72   0.0000       1.641121        44.6572 
  73   0.0000       1.641121        44.6572 
  74   0.0000       1.767308        48.0909 
  75   0.0000       1.767308        48.0909 
  76   0.0000       1.790929        48.7337 
  77   0.0000       1.924980        52.3814 
  78   0.0000       1.924980        52.3814 
  79   0.0000       1.932873        52.5961 
  80   0.0000       1.998896        54.3927 
  81   0.0000       2.036124        55.4058 
  82   0.0000       2.036124        55.4058 
  83   0.0000       2.184078        59.4318 
  84   0.0000       2.201910        59.9170 
  85   0.0000       2.356452        64.1223 
  86   0.0000       2.356452        64.1223 
  87   0.0000       2.806580        76.3709 
  88   0.0000       2.811361        76.5010 
  89   0.0000       2.811361        76.5010 
  90   0.0000       3.009939        81.9046 
  91   0.0000       3.068609        83.5011 
  92   0.0000       3.168759        86.2263 
  93   0.0000       3.168759        86.2263 
  94   0.0000       3.213164        87.4347 
  95   0.0000       3.213164        87.4347 
  96   0.0000       3.332481        90.6814 
  97   0.0000       3.332481        90.6814 
  98   0.0000       3.359389        91.4136 
  99   0.0000       3.359389        91.4136 
 100   0.0000       3.444142        93.7199 
 101   0.0000       3.444142        93.7199 
 102   0.0000       3.577824        97.3576 
 103   0.0000       3.577824        97.3576 
 104   0.0000       3.646819        99.2350 
 105   0.0000       3.703222       100.7698 
 106   0.0000       3.703222       100.7698 
 107   0.0000       3.735398       101.6453 
 108   0.0000       3.830944       104.2453 
 109   0.0000       3.830944       104.2453 
 110   0.0000       3.863327       105.1265 
 111   0.0000       3.863327       105.1265 
 112   0.0000       3.906840       106.3105 
 113   0.0000       4.118810       112.0785 
 114   0.0000       4.118810       112.0785 
 115   0.0000       4.169402       113.4552 
 116   0.0000       4.169402       113.4552 
 117   0.0000       4.335805       117.9833 
 118   0.0000       4.684733       127.4781 
 119   0.0000       4.684733       127.4781 
 120   0.0000       4.719532       128.4250 
 121   0.0000       4.745230       129.1243 
 122   0.0000       4.745230       129.1243 
 123   0.0000       4.808197       130.8377 
 124   0.0000       4.808197       130.8377 
 125   0.0000       5.040082       137.1476 
 126   0.0000       5.040082       137.1476 
 127   0.0000       5.282193       143.7358 
 128   0.0000       5.423869       147.5910 
 129   0.0000       5.873133       159.8161 
 130   0.0000       5.873133       159.8161 
 131   0.0000       6.232021       169.5819 
 132   0.0000       6.719043       182.8344 
 133   0.0000       6.811730       185.3566 
 134   0.0000       6.811730       185.3566 
 135   0.0000       7.068306       192.3384 
 136   0.0000      13.834749       376.4627 
 137   0.0000      20.005532       544.3782 
------------------
MOLECULAR ORBITALS
------------------
                      0         1         2         3         4         5   
                 -11.24130 -11.23729  -1.03290  -0.76567  -0.68094  -0.41287
                   2.00000   2.00000   2.00000   2.00000   2.00000   2.00000
                  --------  --------  --------  --------  --------  --------
  0C   1s        -0.691405  0.693091 -0.016462  0.003556  0.001288  0.000000
  0C   2s        -0.001168  0.003094  0.388215 -0.264245  0.013489  0.000000
  0C   3s        -0.030879  0.030749  0.079818 -0.052896  0.001398  0.000000
  0C   4s        -0.001376  0.023701  0.196305 -0.621476  0.198435  0.000000
  0C   5s         0.000883 -0.019270 -0.011040 -0.316013  0.014811  0.000000
  0C   1pz       -0.000317  0.000881 -0.099549 -0.111195  0.218537  0.000000
  0C   1px       -0.000000 -0.000000  0.000000  0.000000  0.000000 -0.047834
  0C   1py       -0.000000 -0.000000 -0.000000 -0.000000 -0.000000  0.212010
  0C   2pz        0.003615 -0.009431 -0.032902 -0.110280  0.231586 -0.000000
  0C   2px       -0.000000  0.000000 -0.000000 -0.000000 -0.000000 -0.064570
  0C   2py        0.000000  0.000000  0.000000  0.000000 -0.000000  0.286186
  0C   3pz       -0.003740 -0.040205  0.000819  0.039170  0.170665  0.000000
  0C   3px       -0.000000  0.000000 -0.000000 -0.000000 -0.000000 -0.041860
  0C   3py        0.000000  0.000000  0.000000  0.000000 -0.000000  0.185529
  0C   4pz       -0.000192  0.003477 -0.009103  0.064474  0.002619 -0.000000
  0C   4px       -0.000000  0.000000 -0.000000 -0.000000  0.000000 -0.002810
  0C   4py        0.000000  0.000000  0.000000  0.000000  0.000000  0.012455
  0C   1dz2      -0.000927  0.001297  0.023248 -0.013334 -0.003229  0.000000
  0C   1dxz       0.000000  0.000000 -0.000000 -0.000000  0.000000  0.003746
  0C   1dyz      -0.000000  0.000000  0.000000  0.000000 -0.000000 -0.016605
  0C   1dx2y2     0.000000 -0.000000 -0.000000  0.000000  0.000000  0.000000
  0C   1dxy      -0.000000 -0.000000  0.000000 -0.000000 -0.000000 -0.000000
  0C   2dz2       0.004177 -0.000771  0.040283 -0.052238  0.017716  0.000000
  0C   2dxz      -0.000000 -0.000000  0.000000  0.000000  0.000000  0.004895
  0C   2dyz      -0.000000 -0.000000 -0.000000 -0.000000  0.000000 -0.021695
  0C   2dx2y2    -0.000000  0.000000 -0.000000 -0.000000 -0.000000  0.000000
  0C   2dxy       0.000000  0.000000 -0.000000 -0.000000  0.000000 -0.000000
  0C   3dz2       0.001817  0.000090 -0.004633 -0.049953 -0.002132 -0.000000
  0C   3dxz       0.000000 -0.000000  0.000000  0.000000  0.000000 -0.002565
  0C   3dyz      -0.000000 -0.000000 -0.000000 -0.000000  0.000000  0.011369
  0C   3dx2y2    -0.000000  0.000000  0.000000  0.000000  0.000000  0.000000
  0C   3dxy      -0.000000  0.000000 -0.000000 -0.000000  0.000000 -0.000000
  0C   1f0        0.000160 -0.000555 -0.000390  0.000508  0.005654 -0.000000
  0C   1f+1      -0.000000  0.000000 -0.000000 -0.000000 -0.000000 -0.002144
  0C   1f-1       0.000000  0.000000  0.000000  0.000000 -0.000000  0.009505
  0C   1f+2      -0.000000  0.000000 -0.000000 -0.000000  0.000000  0.000000
  0C   1f-2      -0.000000 -0.000000  0.000000  0.000000 -0.000000  0.000000
  0C   1f+3      -0.000000  0.000000  0.000000 -0.000000 -0.000000 -0.000000
  0C   1f-3      -0.000000  0.000000 -0.000000  0.000000 -0.000000  0.000000
  0C   2f0       -0.000462 -0.003589  0.001921 -0.017173  0.009745  0.000000
  0C   2f+1      -0.000000  0.000000 -0.000000 -0.000000 -0.000000  0.000941
  0C   2f-1       0.000000  0.000000  0.000000  0.000000  0.000000 -0.004169
  0C   2f+2       0.000000  0.000000  0.000000  0.000000  0.000000  0.000000
  0C   2f-2      -0.000000  0.000000  0.000000  0.000000  0.000000 -0.000000
  0C   2f+3       0.000000 -0.000000 -0.000000  0.000000  0.000000 -0.000000
  0C   2f-3      -0.000000 -0.000000  0.000000  0.000000  0.000000 -0.000000
  1C   1s        -0.691405 -0.693091 -0.016462 -0.003556  0.001288  0.000000
  1C   2s        -0.001168 -0.003094  0.388215  0.264245  0.013489 -0.000000
  1C   3s        -0.030879 -0.030749  0.079818  0.052896  0.001398 -0.000000
  1C   4s        -0.001376 -0.023701  0.196305  0.621476  0.198435  0.000000
  1C   5s         0.000883  0.019270 -0.011040  0.316013  0.014811 -0.000000
  1C   1pz        0.000317  0.000881  0.099549 -0.111195 -0.218537 -0.000000
  1C   1px        0.000000  0.000000  0.000000 -0.000000 -0.000000 -0.047834
  1C   1py        0.000000  0.000000 -0.000000  0.000000  0.000000  0.212010
  1C   2pz       -0.003615 -0.009431  0.032902 -0.110280 -0.231586 -0.000000
  1C   2px       -0.000000 -0.000000  0.000000  0.000000 -0.000000 -0.064570
  1C   2py       -0.000000 -0.000000 -0.000000 -0.000000  0.000000  0.286186
  1C   3pz        0.003740 -0.040205 -0.000819  0.039170 -0.170665  0.000000
  1C   3px        0.000000 -0.000000  0.000000  0.000000  0.000000 -0.041860
  1C   3py       -0.000000 -0.000000 -0.000000 -0.000000  0.000000  0.185529
  1C   4pz        0.000192  0.003477  0.009103  0.064474 -0.002619 -0.000000
  1C   4px        0.000000 -0.000000  0.000000  0.000000 -0.000000 -0.002810
  1C   4py       -0.000000 -0.000000 -0.000000 -0.000000  0.000000  0.012455
  1C   1dz2      -0.000927 -0.001297  0.023248  0.013334 -0.003229 -0.000000
  1C   1dxz       0.000000  0.000000 -0.000000 -0.000000 -0.000000 -0.003746
  1C   1dyz       0.000000 -0.000000 -0.000000  0.000000 -0.000000  0.016605
  1C   1dx2y2    -0.000000  0.000000  0.000000 -0.000000 -0.000000 -0.000000
  1C   1dxy       0.000000 -0.000000 -0.000000 -0.000000 -0.000000  0.000000
  1C   2dz2       0.004177  0.000771  0.040283  0.052238  0.017716  0.000000
  1C   2dxz      -0.000000 -0.000000  0.000000  0.000000  0.000000 -0.004895
  1C   2dyz      -0.000000 -0.000000 -0.000000 -0.000000  0.000000  0.021695
  1C   2dx2y2     0.000000  0.000000  0.000000  0.000000  0.000000  0.000000
  1C   2dxy      -0.000000  0.000000  0.000000 -0.000000  0.000000 -0.000000
  1C   3dz2       0.001817 -0.000090 -0.004633  0.049953 -0.002132 -0.000000
  1C   3dxz       0.000000 -0.000000  0.000000  0.000000  0.000000  0.002565
  1C   3dyz      -0.000000 -0.000000 -0.000000 -0.000000  0.000000 -0.011369
  1C   3dx2y2     0.000000  0.000000  0.000000 -0.000000 -0.000000  0.000000
  1C   3dxy      -0.000000 -0.000000  0.000000  0.000000 -0.000000  0.000000
  1C   1f0       -0.000160 -0.000555  0.000390  0.000508 -0.005654 -0.000000
  1C   1f+1       0.000000 -0.000000  0.000000  0.000000  0.000000 -0.002144
  1C   1f-1      -0.000000 -0.000000 -0.000000 -0.000000  0.000000  0.009505
  1C   1f+2      -0.000000  0.000000 -0.000000 -0.000000 -0.000000  0.000000
  1C   1f-2      -0.000000  0.000000  0.000000 -0.000000 -0.000000 -0.000000
  1C   1f+3      -0.000000 -0.000000  0.000000  0.000000  0.000000 -0.000000
  1C   1f-3       0.000000 -0.000000 -0.000000  0.000000  0.000000  0.000000
  1C   2f0        0.000462 -0.003589 -0.001921 -0.017173 -0.009745 -0.000000
  1C   2f+1       0.000000 -0.000000  0.000000  0.000000  0.000000  0.000941
  1C   2f-1      -0.000000  0.000000  0.000000 -0.000000  0.000000 -0.004169
  1C   2f+2       0.000000 -0.000000  0.000000  0.000000  0.000000 -0.000000
  1C   2f-2      -0.000000 -0.000000  0.000000 -0.000000 -0.000000  0.000000
  1C   2f+3      -0.000000 -0.000000 -0.000000  0.000000 -0.000000 -0.000000
  1C   2f-3       0.000000  0.000000  0.000000 -0.000000 -0.000000 -0.000000
  2H   1s        -0.000381  0.000486  0.043314 -0.130007  0.129678  0.000000
  2H   2s        -0.005717  0.012462 -0.033152 -0.102359  0.160206 -0.000000
  2H   3s         0.001673  0.033587 -0.038422  0.072268 -0.072031 -0.000000
  2H   4s        -0.000136 -0.001091  0.004656 -0.026791 -0.003283  0.000000
  2H   1pz       -0.000051 -0.000157 -0.003011  0.013277 -0.012558 -0.000000
  2H   1px       -0.000000 -0.000000 -0.000000 -0.000000  0.000000 -0.000827
  2H   1py       -0.000000  0.000000  0.000000 -0.000000  0.000000  0.003666
  2H   2pz        0.002014 -0.002572  0.039706  0.000210 -0.016597  0.000000
  2H   2px        0.000000 -0.000000  0.000000  0.000000  0.000000 -0.003498
  2H   2py        0.000000 -0.000000 -0.000000 -0.000000 -0.000000  0.015502
  2H   3pz       -0.001228 -0.008147  0.028805 -0.010147  0.028406  0.000000
  2H   3px        0.000000  0.000000 -0.000000 -0.000000 -0.000000  0.002317
  2H   3py        0.000000 -0.000000 -0.000000  0.000000 -0.000000 -0.010270
  2H   1dz2       0.000224 -0.000147 -0.003748 -0.003182  0.005015 -0.000000
  2H   1dxz      -0.000000  0.000000 -0.000000 -0.000000 -0.000000  0.000152
  2H   1dyz       0.000000  0.000000  0.000000  0.000000 -0.000000 -0.000673
  2H   1dx2y2    -0.000000  0.000000  0.000000  0.000000  0.000000  0.000000
  2H   1dxy       0.000000  0.000000 -0.000000  0.000000 -0.000000 -0.000000
  2H   2dz2       0.000123  0.000204 -0.014032 -0.001401  0.005050  0.000000
  2H   2dxz      -0.000000 -0.000000  0.000000  0.000000  0.000000 -0.000006
  2H   2dyz      -0.000000  0.000000  0.000000 -0.000000  0.000000  0.000028
  2H   2dx2y2    -0.000000 -0.000000 -0.000000 -0.000000  0.000000 -0.000000
  2H   2dxy       0.000000 -0.000000  0.000000  0.000000 -0.000000  0.000000
  3H   1s        -0.000381 -0.000486  0.043314  0.130007  0.129678 -0.000000
  3H   2s        -0.005717 -0.012462 -0.033152  0.102359  0.160206 -0.000000
  3H   3s         0.001673 -0.033587 -0.038422 -0.072268 -0.072031  0.000000
  3H   4s        -0.000136  0.001091  0.004656  0.026791 -0.003283 -0.000000
  3H   1pz        0.000051 -0.000157  0.003011  0.013277  0.012558 -0.000000
  3H   1px        0.000000 -0.000000  0.000000  0.000000 -0.000000 -0.000827
  3H   1py       -0.000000  0.000000  0.000000  0.000000  0.000000  0.003666
  3H   2pz       -0.002014 -0.002572 -0.039706  0.000210  0.016597 -0.000000
  3H   2px       -0.000000  0.000000 -0.000000 -0.000000  0.000000 -0.003498
  3H   2py        0.000000 -0.000000 -0.000000  0.000000 -0.000000  0.015502
  3H   3pz        0.001228 -0.008147 -0.028805 -0.010147 -0.028406  0.000000
  3H   3px        0.000000 -0.000000  0.000000  0.000000  0.000000  0.002317
  3H   3py        0.000000 -0.000000 -0.000000 -0.000000  0.000000 -0.010270
  3H   1dz2       0.000224  0.000147 -0.003748  0.003182  0.005015 -0.000000
  3H   1dxz      -0.000000  0.000000 -0.000000 -0.000000 -0.000000 -0.000152
  3H   1dyz       0.000000  0.000000 -0.000000  0.000000  0.000000  0.000673
  3H   1dx2y2    -0.000000 -0.000000  0.000000 -0.000000 -0.000000 -0.000000
  3H   1dxy      -0.000000 -0.000000 -0.000000  0.000000 -0.000000  0.000000
  3H   2dz2       0.000123 -0.000204 -0.014032  0.001401  0.005050 -0.000000
  3H   2dxz      -0.000000 -0.000000  0.000000  0.000000  0.000000  0.000006
  3H   2dyz       0.000000 -0.000000 -0.000000 -0.000000 -0.000000 -0.000028
  3H   2dx2y2     0.000000 -0.000000  0.000000  0.000000  0.000000 -0.000000
  3H   2dxy      -0.000000  0.000000 -0.000000 -0.000000  0.000000 -0.000000
                      6         7         8         9        10        11   
                  -0.41287   0.03106   0.03263   0.09308   0.09308   0.09540
                   2.00000   0.00000   0.00000   0.00000   0.00000   0.00000
                  --------  --------  --------  --------  --------  --------
  0C   1s         0.000000 -0.007870 -0.002800  0.000000 -0.000000 -0.000000
  0C   2s         0.000000  0.016610 -0.037391  0.000000  0.000000 -0.000000
  0C   3s         0.000000 -0.015195 -0.028591 -0.000000 -0.000000 -0.000000
  0C   4s         0.000000  1.153239  3.566206  0.000000  0.000000 -0.000000
  0C   5s         0.000000  2.734409 23.388693  0.000000  0.000000  0.000000
  0C   1pz        0.000000  0.011251 -0.013092  0.000000  0.000000 -0.000000
  0C   1px        0.212010 -0.000000  0.000000  0.045225 -0.004337 -0.028105
  0C   1py        0.047834 -0.000000  0.000000 -0.004337 -0.045225 -0.044952
  0C   2pz        0.000000  0.199154  0.060676  0.000000 -0.000000  0.000000
  0C   2px        0.286186 -0.000000  0.000000  0.176656 -0.016942 -0.001480
  0C   2py        0.064570 -0.000000 -0.000000 -0.016942 -0.176656 -0.002367
  0C   3pz        0.000000  0.545975  0.424722  0.000000  0.000000  0.000000
  0C   3px        0.185529  0.000000  0.000000  2.290239 -0.219647  0.083066
  0C   3py        0.041860 -0.000000 -0.000000 -0.219647 -2.290239  0.132861
  0C   4pz       -0.000000  0.801076 -7.838091 -0.000000 -0.000000  0.000000
  0C   4px        0.012455  0.000000  0.000000  2.947243 -0.282657  0.383766
  0C   4py        0.002810 -0.000000 -0.000000 -0.282657 -2.947243  0.613817
  0C   1dz2      -0.000000  0.005827 -0.000827  0.000000  0.000000  0.000000
  0C   1dxz      -0.016605  0.000000  0.000000  0.006999 -0.000671  0.002187
  0C   1dyz      -0.003746  0.000000 -0.000000 -0.000671 -0.006999  0.003497
  0C   1dx2y2     0.000000  0.000000 -0.000000 -0.000000  0.000000 -0.000000
  0C   1dxy      -0.000000 -0.000000  0.000000 -0.000000  0.000000  0.000000
  0C   2dz2       0.000000  0.153432  0.173578  0.000000  0.000000  0.000000
  0C   2dxz      -0.021695 -0.000000 -0.000000 -0.093508  0.008968 -0.016602
  0C   2dyz      -0.004895  0.000000  0.000000  0.008968  0.093508 -0.026554
  0C   2dx2y2    -0.000000 -0.000000  0.000000  0.000000 -0.000000  0.000000
  0C   2dxy      -0.000000  0.000000  0.000000 -0.000000  0.000000  0.000000
  0C   3dz2      -0.000000  0.435037  0.529460  0.000000  0.000000  0.000000
  0C   3dxz       0.011369 -0.000000 -0.000000 -1.476896  0.141643  0.239759
  0C   3dyz       0.002565  0.000000  0.000000  0.141643  1.476896  0.383483
  0C   3dx2y2    -0.000000 -0.000000 -0.000000  0.000000 -0.000000  0.000000
  0C   3dxy       0.000000 -0.000000  0.000000 -0.000000 -0.000000  0.000000
  0C   1f0        0.000000  0.004704  0.005138 -0.000000 -0.000000  0.000000
  0C   1f+1       0.009505 -0.000000  0.000000  0.004553 -0.000437 -0.000994
  0C   1f-1       0.002144 -0.000000 -0.000000 -0.000437 -0.004553 -0.001590
  0C   1f+2      -0.000000  0.000000  0.000000  0.000000 -0.000000  0.000000
  0C   1f-2       0.000000 -0.000000 -0.000000 -0.000000  0.000000  0.000000
  0C   1f+3      -0.000000  0.000000 -0.000000  0.000000 -0.000000 -0.000000
  0C   1f-3      -0.000000 -0.000000  0.000000  0.000000  0.000000  0.000000
  0C   2f0        0.000000  0.008414  0.087162  0.000000  0.000000 -0.000000
  0C   2f+1      -0.004169  0.000000  0.000000  0.109752 -0.010526 -0.054136
  0C   2f-1      -0.000941 -0.000000 -0.000000 -0.010526 -0.109752 -0.086587
  0C   2f+2       0.000000 -0.000000 -0.000000 -0.000000  0.000000 -0.000000
  0C   2f-2       0.000000 -0.000000  0.000000 -0.000000  0.000000 -0.000000
  0C   2f+3       0.000000 -0.000000 -0.000000  0.000000 -0.000000 -0.000000
  0C   2f-3      -0.000000 -0.000000 -0.000000  0.000000  0.000000  0.000000
  1C   1s        -0.000000 -0.007870  0.002800  0.000000 -0.000000 -0.000000
  1C   2s        -0.000000  0.016610  0.037391 -0.000000 -0.000000 -0.000000
  1C   3s        -0.000000 -0.015195  0.028591 -0.000000 -0.000000 -0.000000
  1C   4s         0.000000  1.153239 -3.566206  0.000000 -0.000000  0.000000
  1C   5s         0.000000  2.734409-23.388693 -0.000000 -0.000000  0.000000
  1C   1pz       -0.000000 -0.011251 -0.013092  0.000000  0.000000  0.000000
  1C   1px        0.212010 -0.000000  0.000000 -0.045225  0.004337 -0.028105
  1C   1py        0.047834 -0.000000 -0.000000  0.004337  0.045225 -0.044952
  1C   2pz       -0.000000 -0.199154  0.060676 -0.000000 -0.000000 -0.000000
  1C   2px        0.286186 -0.000000 -0.000000 -0.176656  0.016942 -0.001480
  1C   2py        0.064570 -0.000000  0.000000  0.016942  0.176656 -0.002367
  1C   3pz       -0.000000 -0.545975  0.424722  0.000000  0.000000  0.000000
  1C   3px        0.185529 -0.000000 -0.000000 -2.290239  0.219647  0.083066
  1C   3py        0.041860  0.000000  0.000000  0.219647  2.290239  0.132861
  1C   4pz       -0.000000 -0.801076 -7.838091 -0.000000 -0.000000 -0.000000
  1C   4px        0.012455 -0.000000 -0.000000 -2.947243  0.282657  0.383766
  1C   4py        0.002810  0.000000  0.000000  0.282657  2.947243  0.613817
  1C   1dz2       0.000000  0.005827  0.000827 -0.000000 -0.000000  0.000000
  1C   1dxz       0.016605 -0.000000  0.000000  0.006999 -0.000671 -0.002187
  1C   1dyz       0.003746 -0.000000 -0.000000 -0.000671 -0.006999 -0.003497
  1C   1dx2y2     0.000000  0.000000  0.000000  0.000000 -0.000000 -0.000000
  1C   1dxy      -0.000000  0.000000 -0.000000  0.000000  0.000000  0.000000
  1C   2dz2       0.000000  0.153432 -0.173578  0.000000 -0.000000  0.000000
  1C   2dxz       0.021695 -0.000000 -0.000000 -0.093508  0.008968  0.016602
  1C   2dyz       0.004895  0.000000  0.000000  0.008968  0.093508  0.026554
  1C   2dx2y2     0.000000 -0.000000 -0.000000 -0.000000  0.000000 -0.000000
  1C   2dxy      -0.000000 -0.000000  0.000000 -0.000000 -0.000000 -0.000000
  1C   3dz2      -0.000000  0.435037 -0.529460 -0.000000 -0.000000  0.000000
  1C   3dxz      -0.011369 -0.000000 -0.000000 -1.476896  0.141643 -0.239759
  1C   3dyz      -0.002565  0.000000  0.000000  0.141643  1.476896 -0.383483
  1C   3dx2y2     0.000000  0.000000  0.000000 -0.000000 -0.000000  0.000000
  1C   3dxy      -0.000000  0.000000 -0.000000  0.000000  0.000000 -0.000000
  1C   1f0       -0.000000 -0.004704  0.005138 -0.000000 -0.000000 -0.000000
  1C   1f+1       0.009505 -0.000000 -0.000000 -0.004553  0.000437 -0.000994
  1C   1f-1       0.002144  0.000000  0.000000  0.000437  0.004553 -0.001590
  1C   1f+2      -0.000000 -0.000000  0.000000  0.000000 -0.000000  0.000000
  1C   1f-2       0.000000 -0.000000  0.000000 -0.000000  0.000000  0.000000
  1C   1f+3      -0.000000 -0.000000 -0.000000 -0.000000  0.000000 -0.000000
  1C   1f-3      -0.000000 -0.000000 -0.000000 -0.000000 -0.000000  0.000000
  1C   2f0       -0.000000 -0.008414  0.087162 -0.000000  0.000000  0.000000
  1C   2f+1      -0.004169 -0.000000 -0.000000 -0.109752  0.010526 -0.054136
  1C   2f-1      -0.000941  0.000000  0.000000  0.010526  0.109752 -0.086587
  1C   2f+2       0.000000  0.000000 -0.000000 -0.000000  0.000000 -0.000000
  1C   2f-2       0.000000 -0.000000 -0.000000  0.000000  0.000000 -0.000000
  1C   2f+3       0.000000  0.000000  0.000000 -0.000000  0.000000 -0.000000
  1C   2f-3      -0.000000  0.000000  0.000000 -0.000000 -0.000000  0.000000
  2H   1s        -0.000000  0.014991 -0.000246  0.000000  0.000000 -0.000000
  2H   2s        -0.000000 -0.342673 -0.504941 -0.000000 -0.000000 -0.000000
  2H   3s        -0.000000 -2.324277 -3.214575 -0.000000 -0.000000 -0.000000
  2H   4s        -0.000000 -2.076503  7.127137  0.000000  0.000000 -0.000000
  2H   1pz       -0.000000 -0.001916  0.003624 -0.000000 -0.000000  0.000000
  2H   1px        0.003666 -0.000000  0.000000  0.006976 -0.000669 -0.002590
  2H   1py        0.000827  0.000000 -0.000000 -0.000669 -0.006976 -0.004143
  2H   2pz        0.000000  0.165861  0.155966  0.000000  0.000000  0.000000
  2H   2px        0.015502  0.000000 -0.000000 -0.057970  0.005560  0.050253
  2H   2py        0.003498 -0.000000  0.000000  0.005560  0.057970  0.080378
  2H   3pz        0.000000  0.431031  0.837366  0.000000  0.000000  0.000000
  2H   3px       -0.010270  0.000000  0.000000  0.538452 -0.051641 -0.302046
  2H   3py       -0.002317 -0.000000 -0.000000 -0.051641 -0.538452 -0.483108
  2H   1dz2      -0.000000 -0.009194 -0.005212 -0.000000 -0.000000 -0.000000
  2H   1dxz      -0.000673 -0.000000  0.000000  0.001330 -0.000128 -0.003430
  2H   1dyz      -0.000152 -0.000000 -0.000000 -0.000128 -0.001330 -0.005486
  2H   1dx2y2    -0.000000 -0.000000 -0.000000 -0.000000  0.000000 -0.000000
  2H   1dxy       0.000000 -0.000000  0.000000 -0.000000 -0.000000  0.000000
  2H   2dz2      -0.000000 -0.026738 -0.030523 -0.000000 -0.000000  0.000000
  2H   2dxz       0.000028 -0.000000 -0.000000  0.037823 -0.003627  0.011588
  2H   2dyz       0.000006  0.000000  0.000000 -0.003627 -0.037823  0.018535
  2H   2dx2y2    -0.000000  0.000000  0.000000  0.000000 -0.000000  0.000000
  2H   2dxy      -0.000000  0.000000 -0.000000  0.000000  0.000000 -0.000000
  3H   1s         0.000000  0.014991  0.000246 -0.000000 -0.000000 -0.000000
  3H   2s        -0.000000 -0.342673  0.504941 -0.000000  0.000000 -0.000000
  3H   3s        -0.000000 -2.324277  3.214575  0.000000  0.000000  0.000000
  3H   4s        -0.000000 -2.076503 -7.127137 -0.000000 -0.000000 -0.000000
  3H   1pz       -0.000000  0.001916  0.003624 -0.000000 -0.000000  0.000000
  3H   1px        0.003666 -0.000000 -0.000000 -0.006976  0.000669 -0.002590
  3H   1py        0.000827  0.000000  0.000000  0.000669  0.006976 -0.004143
  3H   2pz       -0.000000 -0.165861  0.155966 -0.000000  0.000000 -0.000000
  3H   2px        0.015502  0.000000  0.000000  0.057970 -0.005560  0.050253
  3H   2py        0.003498 -0.000000 -0.000000 -0.005560 -0.057970  0.080378
  3H   3pz       -0.000000 -0.431031  0.837366  0.000000  0.000000  0.000000
  3H   3px       -0.010270  0.000000 -0.000000 -0.538452  0.051641 -0.302046
  3H   3py       -0.002317 -0.000000  0.000000  0.051641  0.538452 -0.483108
  3H   1dz2      -0.000000 -0.009194  0.005212 -0.000000 -0.000000 -0.000000
  3H   1dxz       0.000673 -0.000000  0.000000  0.001330 -0.000128  0.003430
  3H   1dyz       0.000152 -0.000000 -0.000000 -0.000128 -0.001330  0.005486
  3H   1dx2y2     0.000000  0.000000  0.000000 -0.000000  0.000000  0.000000
  3H   1dxy      -0.000000  0.000000 -0.000000  0.000000  0.000000 -0.000000
  3H   2dz2       0.000000 -0.026738  0.030523  0.000000 -0.000000 -0.000000
  3H   2dxz      -0.000028  0.000000 -0.000000  0.037823 -0.003627 -0.011588
  3H   2dyz      -0.000006 -0.000000  0.000000 -0.003627 -0.037823 -0.018535
  3H   2dx2y2     0.000000  0.000000 -0.000000 -0.000000  0.000000 -0.000000
  3H   2dxy       0.000000 -0.000000  0.000000 -0.000000  0.000000 -0.000000
                     12        13        14        15        16        17   
                   0.09540   0.10721   0.11114   0.14334   0.19247   0.19247
                   0.00000   0.00000   0.00000   0.00000   0.00000   0.00000
                  --------  --------  --------  --------  --------  --------
  0C   1s        -0.000000 -0.018729 -0.005404  0.023487 -0.000000  0.000000
  0C   2s        -0.000000 -0.056526  0.061625  0.123709  0.000000  0.000000
  0C   3s        -0.000000 -0.056085 -0.033386  0.080640  0.000000  0.000000
  0C   4s         0.000000 -1.435315  7.923527 -2.951825 -0.000000 -0.000000
  0C   5s        -0.000000 -0.146871 53.954995 -6.482653 -0.000000 -0.000000
  0C   1pz       -0.000000  0.028055  0.020458  0.043674  0.000000  0.000000
  0C   1px        0.044952  0.000000 -0.000000  0.000000  0.158138 -0.038728
  0C   1py       -0.028105 -0.000000  0.000000 -0.000000 -0.038728 -0.158138
  0C   2pz        0.000000  0.336136  0.167494 -0.427791  0.000000  0.000000
  0C   2px        0.002367 -0.000000  0.000000 -0.000000  0.043379 -0.010624
  0C   2py       -0.001480 -0.000000 -0.000000  0.000000 -0.010624 -0.043379
  0C   3pz        0.000000 -1.299670  1.560562 -1.429265 -0.000000 -0.000000
  0C   3px       -0.132861  0.000000  0.000000 -0.000000 -3.186947  0.780489
  0C   3py        0.083066 -0.000000 -0.000000  0.000000  0.780489  3.186947
  0C   4pz        0.000000 -2.801617-16.685341 -2.207570  0.000000  0.000000
  0C   4px       -0.613817  0.000000 -0.000000 -0.000000 -2.372908  0.581129
  0C   4py        0.383766  0.000000  0.000000  0.000000  0.581129  2.372908
  0C   1dz2       0.000000  0.002433 -0.001124 -0.006418 -0.000000 -0.000000
  0C   1dxz      -0.003497  0.000000  0.000000 -0.000000  0.013818 -0.003384
  0C   1dyz       0.002187  0.000000 -0.000000  0.000000 -0.003384 -0.013818
  0C   1dx2y2    -0.000000 -0.000000 -0.000000 -0.000000 -0.000000 -0.000000
  0C   1dxy      -0.000000 -0.000000 -0.000000 -0.000000 -0.000000  0.000000
  0C   2dz2       0.000000  0.194403  0.395750 -0.375073 -0.000000 -0.000000
  0C   2dxz       0.026554  0.000000 -0.000000  0.000000  0.207503 -0.050818
  0C   2dyz      -0.016602  0.000000  0.000000 -0.000000 -0.050818 -0.207503
  0C   2dx2y2     0.000000  0.000000  0.000000  0.000000 -0.000000  0.000000
  0C   2dxy      -0.000000  0.000000  0.000000  0.000000 -0.000000  0.000000
  0C   3dz2       0.000000  0.918668  1.220381 -1.179083 -0.000000 -0.000000
  0C   3dxz      -0.383483 -0.000000 -0.000000  0.000000  2.339250 -0.572886
  0C   3dyz       0.239759  0.000000  0.000000 -0.000000 -0.572886 -2.339250
  0C   3dx2y2    -0.000000 -0.000000 -0.000000  0.000000 -0.000000  0.000000
  0C   3dxy      -0.000000 -0.000000  0.000000  0.000000  0.000000  0.000000
  0C   1f0       -0.000000  0.016043  0.009760 -0.011037  0.000000  0.000000
  0C   1f+1       0.001590 -0.000000  0.000000 -0.000000 -0.008351  0.002045
  0C   1f-1      -0.000994 -0.000000 -0.000000  0.000000  0.002045  0.008351
  0C   1f+2       0.000000 -0.000000  0.000000 -0.000000  0.000000  0.000000
  0C   1f-2       0.000000 -0.000000  0.000000 -0.000000 -0.000000  0.000000
  0C   1f+3       0.000000 -0.000000 -0.000000 -0.000000  0.000000 -0.000000
  0C   1f-3       0.000000  0.000000  0.000000 -0.000000  0.000000  0.000000
  0C   2f0        0.000000 -0.089040  0.205043 -0.023062  0.000000  0.000000
  0C   2f+1       0.086587  0.000000  0.000000 -0.000000 -0.171876  0.042093
  0C   2f-1      -0.054136 -0.000000 -0.000000  0.000000  0.042093  0.171876
  0C   2f+2      -0.000000  0.000000 -0.000000  0.000000  0.000000 -0.000000
  0C   2f-2      -0.000000 -0.000000  0.000000 -0.000000  0.000000 -0.000000
  0C   2f+3       0.000000  0.000000 -0.000000  0.000000  0.000000 -0.000000
  0C   2f-3       0.000000  0.000000 -0.000000  0.000000  0.000000  0.000000
  1C   1s        -0.000000 -0.018729  0.005404  0.023487 -0.000000  0.000000
  1C   2s        -0.000000 -0.056526 -0.061625  0.123709 -0.000000 -0.000000
  1C   3s        -0.000000 -0.056085  0.033386  0.080640  0.000000 -0.000000
  1C   4s         0.000000 -1.435315 -7.923527 -2.951825 -0.000000  0.000000
  1C   5s         0.000000 -0.146871-53.954995 -6.482653  0.000000  0.000000
  1C   1pz        0.000000 -0.028055  0.020458 -0.043674  0.000000  0.000000
  1C   1px        0.044952 -0.000000  0.000000 -0.000000 -0.158138  0.038728
  1C   1py       -0.028105 -0.000000 -0.000000  0.000000  0.038728  0.158138
  1C   2pz       -0.000000 -0.336136  0.167494  0.427791  0.000000  0.000000
  1C   2px        0.002367 -0.000000 -0.000000  0.000000 -0.043379  0.010624
  1C   2py       -0.001480 -0.000000  0.000000 -0.000000  0.010624  0.043379
  1C   3pz        0.000000  1.299670  1.560562  1.429265 -0.000000 -0.000000
  1C   3px       -0.132861 -0.000000 -0.000000  0.000000  3.186947 -0.780489
  1C   3py        0.083066  0.000000  0.000000 -0.000000 -0.780489 -3.186947
  1C   4pz        0.000000  2.801617-16.685341  2.207570  0.000000  0.000000
  1C   4px       -0.613817 -0.000000  0.000000  0.000000  2.372908 -0.581129
  1C   4py        0.383766 -0.000000 -0.000000 -0.000000 -0.581129 -2.372908
  1C   1dz2       0.000000  0.002433  0.001124 -0.006418  0.000000  0.000000
  1C   1dxz       0.003497 -0.000000  0.000000 -0.000000  0.013818 -0.003384
  1C   1dyz      -0.002187  0.000000 -0.000000  0.000000 -0.003384 -0.013818
  1C   1dx2y2    -0.000000  0.000000  0.000000 -0.000000 -0.000000  0.000000
  1C   1dxy       0.000000  0.000000 -0.000000  0.000000  0.000000  0.000000
  1C   2dz2       0.000000  0.194403 -0.395750 -0.375073 -0.000000  0.000000
  1C   2dxz      -0.026554  0.000000 -0.000000  0.000000  0.207503 -0.050818
  1C   2dyz       0.016602  0.000000  0.000000 -0.000000 -0.050818 -0.207503
  1C   2dx2y2    -0.000000  0.000000 -0.000000  0.000000  0.000000 -0.000000
  1C   2dxy      -0.000000 -0.000000  0.000000 -0.000000  0.000000  0.000000
  1C   3dz2       0.000000  0.918668 -1.220381 -1.179083  0.000000  0.000000
  1C   3dxz       0.383483 -0.000000 -0.000000  0.000000  2.339250 -0.572886
  1C   3dyz      -0.239759  0.000000  0.000000 -0.000000 -0.572886 -2.339250
  1C   3dx2y2    -0.000000  0.000000  0.000000 -0.000000 -0.000000  0.000000
  1C   3dxy       0.000000  0.000000 -0.000000 -0.000000 -0.000000 -0.000000
  1C   1f0       -0.000000 -0.016043  0.009760  0.011037  0.000000  0.000000
  1C   1f+1       0.001590 -0.000000 -0.000000  0.000000  0.008351 -0.002045
  1C   1f-1      -0.000994  0.000000  0.000000 -0.000000 -0.002045 -0.008351
  1C   1f+2      -0.000000  0.000000  0.000000  0.000000 -0.000000  0.000000
  1C   1f-2      -0.000000  0.000000  0.000000  0.000000  0.000000  0.000000
  1C   1f+3       0.000000 -0.000000 -0.000000 -0.000000 -0.000000  0.000000
  1C   1f-3       0.000000  0.000000 -0.000000 -0.000000 -0.000000 -0.000000
  1C   2f0        0.000000  0.089040  0.205043  0.023062  0.000000 -0.000000
  1C   2f+1       0.086587  0.000000 -0.000000  0.000000  0.171876 -0.042093
  1C   2f-1      -0.054136  0.000000  0.000000 -0.000000 -0.042093 -0.171876
  1C   2f+2      -0.000000 -0.000000 -0.000000 -0.000000  0.000000 -0.000000
  1C   2f-2       0.000000 -0.000000 -0.000000 -0.000000 -0.000000 -0.000000
  1C   2f+3       0.000000 -0.000000  0.000000  0.000000 -0.000000  0.000000
  1C   2f-3       0.000000 -0.000000  0.000000  0.000000 -0.000000 -0.000000
  2H   1s        -0.000000 -0.000620  0.007981  0.010971 -0.000000  0.000000
  2H   2s        -0.000000 -0.343690 -1.144714  0.987084  0.000000  0.000000
  2H   3s        -0.000000  0.280745 -7.934419  6.575278  0.000000  0.000000
  2H   4s        -0.000000  0.545850 11.070438  2.959949 -0.000000 -0.000000
  2H   1pz       -0.000000  0.005439 -0.000807 -0.005221  0.000000  0.000000
  2H   1px        0.004143  0.000000  0.000000  0.000000  0.003994 -0.000978
  2H   1py       -0.002590 -0.000000 -0.000000 -0.000000 -0.000978 -0.003994
  2H   2pz        0.000000  0.198129  0.319683 -0.461511 -0.000000  0.000000
  2H   2px       -0.080378 -0.000000 -0.000000 -0.000000  0.140538 -0.034418
  2H   2py        0.050253  0.000000  0.000000  0.000000 -0.034418 -0.140538
  2H   3pz        0.000000 -0.262688  1.907590 -1.255648 -0.000000 -0.000000
  2H   3px        0.483108 -0.000000  0.000000 -0.000000 -0.564344  0.138209
  2H   3py       -0.302046 -0.000000 -0.000000  0.000000  0.138209  0.564344
  2H   1dz2      -0.000000 -0.014551 -0.009739  0.026376 -0.000000 -0.000000
  2H   1dxz       0.005486  0.000000  0.000000 -0.000000 -0.005720  0.001401
  2H   1dyz      -0.003430 -0.000000 -0.000000  0.000000  0.001401  0.005720
  2H   1dx2y2    -0.000000  0.000000 -0.000000  0.000000 -0.000000  0.000000
  2H   1dxy      -0.000000  0.000000  0.000000  0.000000  0.000000  0.000000
  2H   2dz2       0.000000 -0.095307 -0.057393  0.071459 -0.000000 -0.000000
  2H   2dxz      -0.018535  0.000000 -0.000000  0.000000 -0.069591  0.017043
  2H   2dyz       0.011588  0.000000  0.000000 -0.000000  0.017043  0.069591
  2H   2dx2y2     0.000000 -0.000000  0.000000 -0.000000  0.000000  0.000000
  2H   2dxy       0.000000  0.000000 -0.000000 -0.000000 -0.000000  0.000000
  3H   1s        -0.000000 -0.000620 -0.007981  0.010971 -0.000000 -0.000000
  3H   2s         0.000000 -0.343690  1.144714  0.987084  0.000000 -0.000000
  3H   3s        -0.000000  0.280745  7.934419  6.575278 -0.000000 -0.000000
  3H   4s         0.000000  0.545850-11.070438  2.959949  0.000000  0.000000
  3H   1pz        0.000000 -0.005439 -0.000807  0.005221  0.000000  0.000000
  3H   1px        0.004143  0.000000 -0.000000  0.000000 -0.003994  0.000978
  3H   1py       -0.002590 -0.000000  0.000000 -0.000000  0.000978  0.003994
  3H   2pz       -0.000000 -0.198129  0.319683  0.461511  0.000000  0.000000
  3H   2px       -0.080378 -0.000000  0.000000 -0.000000 -0.140538  0.034418
  3H   2py        0.050253 -0.000000 -0.000000  0.000000  0.034418  0.140538
  3H   3pz       -0.000000  0.262688  1.907590  1.255648 -0.000000 -0.000000
  3H   3px        0.483108 -0.000000 -0.000000  0.000000  0.564344 -0.138209
  3H   3py       -0.302046  0.000000  0.000000  0.000000 -0.138209 -0.564344
  3H   1dz2      -0.000000 -0.014551  0.009739  0.026376  0.000000  0.000000
  3H   1dxz      -0.005486 -0.000000  0.000000 -0.000000 -0.005720  0.001401
  3H   1dyz       0.003430 -0.000000 -0.000000  0.000000  0.001401  0.005720
  3H   1dx2y2    -0.000000 -0.000000  0.000000 -0.000000 -0.000000 -0.000000
  3H   1dxy       0.000000  0.000000 -0.000000 -0.000000 -0.000000  0.000000
  3H   2dz2      -0.000000 -0.095307  0.057393  0.071459  0.000000  0.000000
  3H   2dxz       0.018535  0.000000 -0.000000 -0.000000 -0.069591  0.017043
  3H   2dyz      -0.011588  0.000000  0.000000  0.000000  0.017043  0.069591
  3H   2dx2y2    -0.000000 -0.000000 -0.000000 -0.000000  0.000000 -0.000000
  3H   2dxy      -0.000000 -0.000000  0.000000  0.000000  0.000000 -0.000000
                     18        19        20        21        22        23   
                   0.22845   0.25860   0.27684   0.27684   0.28114   0.30065
                   0.00000   0.00000   0.00000   0.00000   0.00000   0.00000
                  --------  --------  --------  --------  --------  --------
  0C   1s        -0.017623 -0.018131  0.000000  0.000000  0.022276 -0.000000
  0C   2s         0.016387 -0.194469  0.000000  0.000000  0.035727  0.000000
  0C   3s        -0.106564 -0.136389 -0.000000  0.000000  0.086424  0.000000
  0C   4s         8.649074 12.552499  0.000000  0.000000 -1.287318 -0.000000
  0C   5s        44.438168 85.782637  0.000000 -0.000000  0.526373 -0.000000
  0C   1pz        0.014357 -0.048115 -0.000000  0.000000  0.123891  0.000000
  0C   1px        0.000000  0.000000 -0.000497 -0.035213  0.000000 -0.000000
  0C   1py       -0.000000 -0.000000 -0.035213  0.000497 -0.000000 -0.000000
  0C   2pz       -1.084712  0.278077  0.000000 -0.000000 -0.576669  0.000000
  0C   2px        0.000000  0.000000 -0.000540 -0.038233 -0.000000 -0.000000
  0C   2py       -0.000000 -0.000000 -0.038233  0.000540  0.000000 -0.000000
  0C   3pz        3.291087  5.326133 -0.000000 -0.000000  1.093612  0.000000
  0C   3px        0.000000  0.000000 -0.037263 -2.639277  0.000000 -0.000000
  0C   3py       -0.000000 -0.000000 -2.639277  0.037263 -0.000000 -0.000000
  0C   4pz       -8.925657-22.459321 -0.000000  0.000000  3.004134  0.000000
  0C   4px       -0.000000  0.000000 -0.007787 -0.551564  0.000000 -0.000000
  0C   4py        0.000000  0.000000 -0.551564  0.007787 -0.000000 -0.000000
  0C   1dz2       0.014887  0.005503  0.000000 -0.000000 -0.035742 -0.000000
  0C   1dxz       0.000000  0.000000  0.000153  0.010849 -0.000000 -0.000000
  0C   1dyz      -0.000000 -0.000000  0.010849 -0.000153  0.000000 -0.000000
  0C   1dx2y2    -0.000000 -0.000000  0.000000 -0.000000  0.000000 -0.000000
  0C   1dxy       0.000000 -0.000000 -0.000000 -0.000000  0.000000 -0.027451
  0C   2dz2       0.763483  0.739690  0.000000 -0.000000 -0.539480 -0.000000
  0C   2dxz      -0.000000 -0.000000 -0.003171 -0.224599  0.000000  0.000000
  0C   2dyz       0.000000  0.000000 -0.224599  0.003171 -0.000000  0.000000
  0C   2dx2y2     0.000000  0.000000 -0.000000  0.000000 -0.000000  0.000000
  0C   2dxy       0.000000  0.000000 -0.000000 -0.000000 -0.000000  0.038496
  0C   3dz2       2.703762  2.103998 -0.000000  0.000000 -1.139226 -0.000000
  0C   3dxz      -0.000000 -0.000000 -0.022711 -1.608618  0.000000  0.000000
  0C   3dyz       0.000000  0.000000 -1.608618  0.022711 -0.000000  0.000000
  0C   3dx2y2    -0.000000 -0.000000  0.000000  0.000000  0.000000 -0.000001
  0C   3dxy       0.000000  0.000000 -0.000000 -0.000000 -0.000000 -0.572365
  0C   1f0       -0.062532  0.022468  0.000000 -0.000000 -0.029589  0.000000
  0C   1f+1       0.000000  0.000000 -0.000017 -0.001193 -0.000000 -0.000000
  0C   1f-1      -0.000000 -0.000000 -0.001193  0.000017  0.000000 -0.000000
  0C   1f+2       0.000000  0.000000 -0.000000  0.000000  0.000000  0.000000
  0C   1f-2       0.000000  0.000000 -0.000000 -0.000000  0.000000  0.011136
  0C   1f+3      -0.000000 -0.000000 -0.000000 -0.000000 -0.000000 -0.000000
  0C   1f-3      -0.000000  0.000000  0.000000 -0.000000 -0.000000 -0.000000
  0C   2f0        0.340376  0.398473  0.000000 -0.000000  0.122565 -0.000000
  0C   2f+1       0.000000  0.000000 -0.004225 -0.299254  0.000000  0.000000
  0C   2f-1      -0.000000 -0.000000 -0.299254  0.004225 -0.000000 -0.000000
  0C   2f+2      -0.000000 -0.000000  0.000000 -0.000000  0.000000 -0.000000
  0C   2f-2      -0.000000 -0.000000  0.000000  0.000000  0.000000 -0.037733
  0C   2f+3      -0.000000 -0.000000 -0.000000 -0.000000  0.000000  0.000000
  0C   2f-3      -0.000000 -0.000000  0.000000 -0.000000  0.000000 -0.000000
  1C   1s         0.017623  0.018131  0.000000 -0.000000  0.022276 -0.000000
  1C   2s        -0.016387  0.194469 -0.000000 -0.000000  0.035727 -0.000000
  1C   3s         0.106564  0.136389 -0.000000  0.000000  0.086424 -0.000000
  1C   4s        -8.649074-12.552499 -0.000000 -0.000000 -1.287318  0.000000
  1C   5s       -44.438168-85.782637 -0.000000  0.000000  0.526373  0.000000
  1C   1pz        0.014357 -0.048115  0.000000 -0.000000 -0.123891 -0.000000
  1C   1px       -0.000000 -0.000000 -0.000497 -0.035213  0.000000 -0.000000
  1C   1py        0.000000  0.000000 -0.035213  0.000497 -0.000000 -0.000000
  1C   2pz       -1.084712  0.278077 -0.000000 -0.000000  0.576669  0.000000
  1C   2px       -0.000000 -0.000000 -0.000540 -0.038233  0.000000  0.000000
  1C   2py        0.000000  0.000000 -0.038233  0.000540 -0.000000  0.000000
  1C   3pz        3.291087  5.326133 -0.000000 -0.000000 -1.093612  0.000000
  1C   3px       -0.000000 -0.000000 -0.037263 -2.639277  0.000000  0.000000
  1C   3py        0.000000  0.000000 -2.639277  0.037263 -0.000000  0.000000
  1C   4pz       -8.925657-22.459321  0.000000  0.000000 -3.004134  0.000000
  1C   4px        0.000000 -0.000000 -0.007787 -0.551564  0.000000  0.000000
  1C   4py       -0.000000 -0.000000 -0.551564  0.007787 -0.000000  0.000000
  1C   1dz2      -0.014887 -0.005503  0.000000 -0.000000 -0.035742 -0.000000
  1C   1dxz       0.000000  0.000000 -0.000153 -0.010849  0.000000 -0.000000
  1C   1dyz      -0.000000 -0.000000 -0.010849  0.000153 -0.000000 -0.000000
  1C   1dx2y2     0.000000  0.000000 -0.000000  0.000000 -0.000000 -0.000000
  1C   1dxy      -0.000000 -0.000000  0.000000 -0.000000  0.000000 -0.027451
  1C   2dz2      -0.763483 -0.739690  0.000000 -0.000000 -0.539480  0.000000
  1C   2dxz      -0.000000 -0.000000  0.003171  0.224599 -0.000000  0.000000
  1C   2dyz       0.000000  0.000000  0.224599 -0.003171  0.000000  0.000000
  1C   2dx2y2    -0.000000 -0.000000  0.000000 -0.000000  0.000000  0.000000
  1C   2dxy       0.000000  0.000000 -0.000000  0.000000  0.000000  0.038496
  1C   3dz2      -2.703762 -2.103998 -0.000000 -0.000000 -1.139226  0.000000
  1C   3dxz      -0.000000 -0.000000  0.022711  1.608618 -0.000000  0.000000
  1C   3dyz       0.000000  0.000000  1.608618 -0.022711  0.000000  0.000000
  1C   3dx2y2     0.000000  0.000000 -0.000000  0.000000 -0.000000 -0.000001
  1C   3dxy      -0.000000 -0.000000  0.000000  0.000000  0.000000 -0.572365
  1C   1f0       -0.062532  0.022468 -0.000000 -0.000000  0.029589  0.000000
  1C   1f+1      -0.000000 -0.000000 -0.000017 -0.001193  0.000000  0.000000
  1C   1f-1       0.000000  0.000000 -0.001193  0.000017 -0.000000  0.000000
  1C   1f+2       0.000000  0.000000 -0.000000  0.000000 -0.000000 -0.000000
  1C   1f-2       0.000000  0.000000 -0.000000 -0.000000 -0.000000 -0.011136
  1C   1f+3      -0.000000 -0.000000 -0.000000 -0.000000  0.000000  0.000000
  1C   1f-3      -0.000000 -0.000000  0.000000 -0.000000 -0.000000 -0.000000
  1C   2f0        0.340376  0.398473 -0.000000 -0.000000 -0.122565  0.000000
  1C   2f+1      -0.000000 -0.000000 -0.004225 -0.299254  0.000000  0.000000
  1C   2f-1       0.000000  0.000000 -0.299254  0.004225 -0.000000  0.000000
  1C   2f+2      -0.000000 -0.000000  0.000000 -0.000000  0.000000  0.000000
  1C   2f-2      -0.000000 -0.000000  0.000000  0.000000  0.000000  0.037733
  1C   2f+3       0.000000  0.000000 -0.000000 -0.000000  0.000000  0.000000
  1C   2f-3       0.000000  0.000000  0.000000 -0.000000  0.000000  0.000000
  2H   1s        -0.031683  0.035873  0.000000 -0.000000 -0.068463 -0.000000
  2H   2s        -1.472591 -2.187765 -0.000000  0.000000  0.926878  0.000000
  2H   3s       -10.556007-17.154449  0.000000  0.000000  1.353977  0.000000
  2H   4s         3.465093 11.405841  0.000000 -0.000000 -0.585677 -0.000000
  2H   1pz       -0.012571  0.016038  0.000000 -0.000000 -0.021339  0.000000
  2H   1px        0.000000  0.000000 -0.000225 -0.015960  0.000000  0.000000
  2H   1py       -0.000000 -0.000000 -0.015960  0.000225 -0.000000 -0.000000
  2H   2pz       -0.003165  0.679740  0.000000 -0.000000 -0.562933 -0.000000
  2H   2px       -0.000000 -0.000000  0.005551  0.393182 -0.000000 -0.000000
  2H   2py        0.000000  0.000000  0.393182 -0.005551  0.000000 -0.000000
  2H   3pz       -0.157705  4.711901  0.000000 -0.000000 -1.490803 -0.000000
  2H   3px        0.000000  0.000000  0.048970  3.468472 -0.000000 -0.000000
  2H   3py       -0.000000 -0.000000  3.468472 -0.048970  0.000000 -0.000000
  2H   1dz2       0.012066 -0.023262 -0.000000  0.000000  0.032415 -0.000000
  2H   1dxz       0.000000  0.000000 -0.000041 -0.002893 -0.000000  0.000000
  2H   1dyz      -0.000000 -0.000000 -0.002893  0.000041  0.000000  0.000000
  2H   1dx2y2    -0.000000 -0.000000 -0.000000  0.000000  0.000000 -0.000000
  2H   1dxy       0.000000  0.000000 -0.000000 -0.000000 -0.000000 -0.006251
  2H   2dz2       0.351825 -0.118099 -0.000000  0.000000  0.247707 -0.000000
  2H   2dxz      -0.000000 -0.000000 -0.005549 -0.393059  0.000000  0.000000
  2H   2dyz       0.000000  0.000000 -0.393059  0.005549 -0.000000 -0.000000
  2H   2dx2y2     0.000000  0.000000 -0.000000  0.000000 -0.000000  0.000000
  2H   2dxy      -0.000000 -0.000000  0.000000  0.000000  0.000000  0.049847
  3H   1s         0.031683 -0.035873  0.000000 -0.000000 -0.068463 -0.000000
  3H   2s         1.472591  2.187765 -0.000000  0.000000  0.926878  0.000000
  3H   3s        10.556007 17.154449 -0.000000 -0.000000  1.353977 -0.000000
  3H   4s        -3.465093-11.405841 -0.000000  0.000000 -0.585677  0.000000
  3H   1pz       -0.012571  0.016038 -0.000000  0.000000  0.021339  0.000000
  3H   1px       -0.000000 -0.000000 -0.000225 -0.015960  0.000000  0.000000
  3H   1py        0.000000  0.000000 -0.015960  0.000225 -0.000000  0.000000
  3H   2pz       -0.003165  0.679740 -0.000000  0.000000  0.562933  0.000000
  3H   2px        0.000000  0.000000  0.005551  0.393182 -0.000000 -0.000000
  3H   2py       -0.000000 -0.000000  0.393182 -0.005551  0.000000 -0.000000
  3H   3pz       -0.157705  4.711901 -0.000000 -0.000000  1.490803  0.000000
  3H   3px       -0.000000 -0.000000  0.048970  3.468472 -0.000000 -0.000000
  3H   3py        0.000000  0.000000  3.468472 -0.048970  0.000000 -0.000000
  3H   1dz2      -0.012066  0.023262 -0.000000  0.000000  0.032415  0.000000
  3H   1dxz       0.000000  0.000000  0.000041  0.002893 -0.000000 -0.000000
  3H   1dyz      -0.000000 -0.000000  0.002893 -0.000041  0.000000 -0.000000
  3H   1dx2y2     0.000000  0.000000  0.000000  0.000000 -0.000000 -0.000000
  3H   1dxy      -0.000000 -0.000000  0.000000  0.000000 -0.000000 -0.006251
  3H   2dz2      -0.351825  0.118099 -0.000000  0.000000  0.247707  0.000000
  3H   2dxz       0.000000 -0.000000  0.005549  0.393059 -0.000000 -0.000000
  3H   2dyz       0.000000  0.000000  0.393059 -0.005549  0.000000 -0.000000
  3H   2dx2y2    -0.000000 -0.000000  0.000000 -0.000000  0.000000  0.000000
  3H   2dxy       0.000000  0.000000  0.000000 -0.000000 -0.000000  0.049847
                     24        25        26        27        28        29   
                   0.30065   0.37912   0.38817   0.38817   0.39969   0.39969
                   0.00000   0.00000   0.00000   0.00000   0.00000   0.00000
                  --------  --------  --------  --------  --------  --------
  0C   1s         0.000000 -0.066062 -0.000000 -0.000000  0.000000 -0.000000
  0C   2s        -0.000000 -0.059793 -0.000000  0.000000  0.000000 -0.000000
  0C   3s        -0.000000 -0.085398 -0.000000 -0.000000 -0.000000 -0.000000
  0C   4s         0.000000-12.033882 -0.000000  0.000000  0.000000 -0.000000
  0C   5s         0.000000  5.249404  0.000000  0.000000 -0.000000  0.000000
  0C   1pz        0.000000 -0.029919 -0.000000  0.000000  0.000000  0.000000
  0C   1px        0.000000 -0.000000  0.031885 -0.074684 -0.000000 -0.000000
  0C   1py       -0.000000 -0.000000 -0.074684 -0.031885 -0.000000 -0.000000
  0C   2pz       -0.000000  0.418188  0.000000  0.000000 -0.000000  0.000000
  0C   2px        0.000000 -0.000000  0.083086 -0.194614 -0.000000 -0.000000
  0C   2py       -0.000000 -0.000000 -0.194614 -0.083086 -0.000000 -0.000000
  0C   3pz       -0.000000 -6.425355  0.000000  0.000000 -0.000000  0.000000
[...]

------------------------------------------
NATURAL ORBITALS FOR STATE    2
------------------------------------------

Making the (pseudo)densities                       ... done

------------------------------------------
NATURAL ORBITALS FOR STATE    3
------------------------------------------

Making the (pseudo)densities                       ... done

------------------------------------------
NATURAL ORBITALS FOR STATE    4
------------------------------------------

Making the (pseudo)densities                       ... done

------------------------------------------
NATURAL ORBITALS FOR STATE    5
------------------------------------------

Making the (pseudo)densities                       ... done

------------------------------------------
NATURAL ORBITALS FOR STATE    6
------------------------------------------

Making the (pseudo)densities                       ... done

------------------------------------------
NATURAL ORBITALS FOR STATE    7
------------------------------------------

Making the (pseudo)densities                       ... done

------------------------------------------
NATURAL ORBITALS FOR STATE    8
------------------------------------------

Making the (pseudo)densities                       ... done

------------------------------------------
NATURAL ORBITALS FOR STATE    9
------------------------------------------

Making the (pseudo)densities                       ... done

------------------------------------------
NATURAL ORBITALS FOR STATE   10
------------------------------------------

Making the (pseudo)densities                       ... done

------------------------------------------
STATE AVERAGED NATURAL ORBITALS FOR ACTIVE SPACE SELECTION
------------------------------------------

Solving eigenvalue problem for the occupied space  ... done
Solving eigenvalue problem for the virtual space   ... done
After automatic selection of the active space:
 No of roots active in IP calculation:    2  
 No of roots active in EA calculation:    7  
Testing the validity of the selected OCC active space ... 
  --- complex eigenvalues and eigenvectors
OK !

Testing the validity of the selected VIRT active space ... 
  --- complex eigenvalues and eigenvectors
OK !

After auto-adaptation of the active space:
 No of roots active in IP calculation:    2  
 No of roots active in EA calculation:    7  
done (    2.3)

---------------------------------------------------
            RHF EOM-DLPNO-CCSD CALCULATION
---------------------------------------------------

EOM type                                   ... IP-EOM
Eigenvectors                               ... RHS
Solver                                     ... Davidson
K(R) Formation                             ... MO
Convergence check                          ... for each root separately
Convergence threshold                      ... 1.00E-05
Root homing                                ... on
Preconditioning update                     ... CIS
Reduced space size (times number of roots) ... 40
Number of roots in the CIS initial guess   ... 2
Number of roots to be optimized            ... 2
Solving roots                              ... separately
Number of amplitudes to be optimized       ... 3280

--------------------------------
AUTOMATIC CHOICE OF INCORE LEVEL
--------------------------------

Memory available                           ...  63944.49 MB
Memory needed for Residual-vectors         ...      0.01 MB
Memory needed for Ritz-vectors             ...      0.02 MB
Memory needed for Sigma-vectors            ...      0.49 MB
Memory needed for State-vectors            ...      0.49 MB
 -> Final InCoreLevel    ... 5


Dressing integrals for EOM-DLPNO-CCSD            ... done (    0.0)
Building the initial guess                 ... done (    0.0)

BATCH   1 OF   2

Iter    Delta-E          Residual              Time
---------------------------------------------------
  0   0.488385060635   0.039324804114         0.010
  1   0.059334998062   0.002148015858         0.010
  2   0.002726427598   0.000205494967         0.011
  3   0.000240896095   0.000013307569         0.012
  4   0.000013582604   0.000001720691         0.010

      *** CONVERGENCE OF RESIDUAL NORM REACHED ***
        --- The EOM iterations have converged ---

BATCH   2 OF   2

Iter    Delta-E          Residual              Time
---------------------------------------------------
  0   0.488385060634   0.039324804114         0.009
  1   0.059334998061   0.002148015859         0.010
  2   0.002726427599   0.000205494967         0.011
  3   0.000240896095   0.000013307569         0.012
  4   0.000013582604   0.000001720691         0.010

      *** CONVERGENCE OF RESIDUAL NORM REACHED ***
        --- The EOM iterations have converged ---

----------------------
EOM-CCSD RESULTS (RHS)
----------------------

IROOT=  1:  0.426069 au    11.594 eV   93511.4 cm**-1
  Amplitude    Excitation
   0.699079     6 -> x
Percentage singles character=     95.94

IROOT=  2:  0.426069 au    11.594 eV   93511.4 cm**-1
  Amplitude    Excitation
   0.699079     5 -> x
Percentage singles character=     96.86


IP STATE=  0:  percentage singles     95.938 
IP STATE=  1:  percentage singles     96.859 
 Final no active IP roots:    2  
 EOMIP-CCSD done in (    0.2)

---------------------------------------------------
            RHF EOM-DLPNO-CCSD CALCULATION
---------------------------------------------------

EOM type                                   ... EA-EOM
Eigenvectors                               ... RHS
Solver                                     ... Davidson
K(R) Formation                             ... MO
Convergence check                          ... for each root separately
Convergence threshold                      ... 1.00E-05
Root homing                                ... on
Preconditioning update                     ... CIS
Reduced space size (times number of roots) ... 40
Number of roots in the CIS initial guess   ... 7
Number of roots to be optimized            ... 7
Solving roots                              ... separately
Number of amplitudes to be optimized       ... 85936

--------------------------------
AUTOMATIC CHOICE OF INCORE LEVEL
--------------------------------

Memory available                           ...  31943.23 MB
Memory needed for 3-ext integrals          ...      6.07 MB
Memory needed for 4-ext integrals          ...     27.07 MB
Memory needed for Residual-vectors         ...      0.27 MB
Memory needed for Ritz-vectors             ...      1.86 MB
Memory needed for Sigma-vectors            ...     10.61 MB
Memory needed for State-vectors            ...     10.61 MB
 -> Final InCoreLevel    ... 5


Dressing integrals for EOM-DLPNO-CCSD            ... done (    0.0)
Building the initial guess                 ... done (    0.0)

BATCH   1 OF   7

Iter    Delta-E          Residual              Time
---------------------------------------------------
  0   0.053733698756   0.014907799786         0.390
  1   0.023229631262   0.003023564630         0.392
  2   0.002675330216   0.000609026126         0.396
  3   0.000065047418   0.000051990479         0.502
  4   0.000057552086   0.000004702141         0.417

      *** CONVERGENCE OF RESIDUAL NORM REACHED ***
        --- The EOM iterations have converged ---

BATCH   2 OF   7

Iter    Delta-E          Residual              Time
---------------------------------------------------
  0   0.068618251055   0.021500544304         0.385
  1   0.031666339556   0.004197354416         0.398
  2   0.005385667201   0.001621044209         0.397
  3   0.000681595130   0.000187716215         0.625
  4   0.000060981167   0.000009988218         0.392

      *** CONVERGENCE OF RESIDUAL NORM REACHED ***
        --- The EOM iterations have converged ---

BATCH   3 OF   7

Iter    Delta-E          Residual              Time
---------------------------------------------------
  0   0.110454058899   0.020213249819         0.380
  1   0.021267585992   0.001329084064         0.395
  2   0.000763939035   0.000068537524         0.399
  3   0.000005208380   0.000007231981         0.461

      *** CONVERGENCE OF RESIDUAL NORM REACHED ***
        --- The EOM iterations have converged ---

BATCH   4 OF   7

Iter    Delta-E          Residual              Time
---------------------------------------------------
  0   0.110469949176   0.020226416650         0.387
  1   0.021283891294   0.001330203461         0.391
  2   0.000763558430   0.000068519955         0.396
  3   0.000005257040   0.000007225112         0.396

      *** CONVERGENCE OF RESIDUAL NORM REACHED ***
        --- The EOM iterations have converged ---

BATCH   5 OF   7

Iter    Delta-E          Residual              Time
---------------------------------------------------
  0   0.143030861420   0.032018645739         0.400
  1   0.040393294174   0.003481647210         0.394
  2   0.002185806284   0.000384793360         0.390
  3   0.000148416791   0.030598617192         0.493
  4   0.000560897134   0.000178764634         0.895
  5   0.000177934043   0.000028488261         0.969
  6   0.000022462055   0.000011549171         1.127
  7   0.000025503705   0.000008360578         0.599

      *** CONVERGENCE OF RESIDUAL NORM REACHED ***
        --- The EOM iterations have converged ---

BATCH   6 OF   7

Iter    Delta-E          Residual              Time
---------------------------------------------------
  0   0.220527739834   0.113924544246         0.414
  1   0.129369635042   0.007458213653         0.379
  2   0.008721290455   0.001034507553         0.547
  3   0.118225380647   0.029197026772         0.599
  4   0.117687399472   0.000008562104         0.408

      *** CONVERGENCE OF RESIDUAL NORM REACHED ***
        --- The EOM iterations have converged ---

BATCH   7 OF   7

Iter    Delta-E          Residual              Time
---------------------------------------------------
  0   0.220528495966   0.113932543131         0.390
  1   0.129370933654   0.007457859547         0.390
  2   0.008720845984   0.001034127244         0.467
  3   0.118241249339   0.029209130406         0.616
  4   0.117703120479   0.000008560434         0.422

      *** CONVERGENCE OF RESIDUAL NORM REACHED ***
        --- The EOM iterations have converged ---

----------------------
EOM-CCSD RESULTS (RHS)
----------------------

IROOT=  1:  0.027951 au     0.761 eV    6134.6 cm**-1
  Amplitude    Excitation
   0.705584     x ->   7
Percentage singles character=     99.66

IROOT=  2:  0.030824 au     0.839 eV    6765.0 cm**-1
  Amplitude    Excitation
   0.705664     x ->   8
Percentage singles character=     99.81

IROOT=  3:  0.088428 au     2.406 eV   19407.6 cm**-1
  Amplitude    Excitation
  -0.388560     x ->  11
  -0.588697     x ->  12
Percentage singles character=     99.34

IROOT=  4:  0.088428 au     2.406 eV   19407.6 cm**-1
  Amplitude    Excitation
  -0.588697     x ->  11
   0.388560     x ->  12
Percentage singles character=     99.34

IROOT=  5:  0.101039 au     2.749 eV   22175.5 cm**-1
  Amplitude    Excitation
   0.703840     x ->  13
Percentage singles character=     99.34

IROOT=  6:  0.082975 au     2.258 eV   18210.9 cm**-1
  Amplitude    Excitation
  -0.599631     x ->   9
   0.344791     x ->  10
  -0.101503     x ->  16
Percentage singles character=     98.30

IROOT=  7:  0.082975 au     2.258 eV   18210.9 cm**-1
  Amplitude    Excitation
  -0.344791     x ->   9
  -0.599631     x ->  10
  -0.101503     x ->  17
Percentage singles character=     98.30


EA STATE=  0:  percentage singles     99.656 
EA STATE=  1:  percentage singles     99.808 
EA STATE=  2:  percentage singles     99.337 
EA STATE=  3:  percentage singles     99.337 
EA STATE=  4:  percentage singles     99.343 
EA STATE=  5:  percentage singles     98.298 
EA STATE=  6:  percentage singles     98.298 
 Final no active EA roots:    7  
 EOMEA-CCSD done in (   17.7)


*** Conversion of amplitudes and coefficient from local/PNO basis to NO basis ***

Preparation for recanonicalization  done in (    0.3)
Conversion of coefficients ... 
 Conversion done in (    0.0)
Update of the Fock Matrix ... 
 Updated Fock matrix in (    0.0)
Update of orbital energies ... done

---------------------------- Integral TRANSFORMATION --------------------------

                   <<<<< W A R N I N G >>>>>
 PNOSigmaOpt 0 is only possible for coupled pair type LPNO methods!
 --->>> changing to PNOSigmaOpt 2


--------------------
RI-METRIC GENERATION
--------------------

Time for V**-1/2 generation:     0.180 sec

-----------------
RI-TRANSFORMATION (AUX index driven)
-----------------

Dimension of the orbital-basis         ... 138
Dimension of the aux-basis             ... 304
Transformation of internal MOs         ...    2-   6
Transformation of internal/external MOs...    2-   6 to    7- 137
Number Format for Storage              ... Double (8 Byte)
Integral mode                          ... Direct

First Phase: integral generation and transformation of MO indices
  Aux angular momentum 0               ... done (    0.003 sec)
  Aux angular momentum 1               ... done (    0.004 sec)
  Aux angular momentum 2               ... done (    0.005 sec)
  Aux angular momentum 3               ... done (    0.005 sec)
  Aux angular momentum 4               ... done (    0.003 sec)
Closing buffer VIJ ( 0.00 GB; CompressionRatio= 0.91)
Closing buffer VIA ( 0.00 GB; CompressionRatio= 1.00)
  Phase 1 completed in     0.147 sec
Second Phase: sorting and transformation of aux index

IJ-Transformation
Memory available                       ... 64000 MB 
Max. # MO pairs treated in a batch     ... 1    
# of internal orbitals                 ... 5
# batches for internal orbitals        ... 1
Closing buffer IJV ( 0.00 GB; CompressionRatio= 1.00)
(ij|v) transformation done in     0.152 sec

IA-Transformation
Memory available                       ... 64000 MB 
Max. # MO pairs treated in a batch     ... 1    
# of internal orbitals                 ... 5
# batches for internal orbitals        ... 1
Closing buffer IAV ( 0.00 GB; CompressionRatio= 1.00)
(ia|v) transformation done in     0.092 sec

  Phase 2 completed in     0.250 sec
RI-Integral transformation completed in     0.397 sec

-----------------------
RI-FORMATION OF (ik|jl)
-----------------------

Max core memory to be used            ... 64000 MB
Memory needed per MO                  ...   0.0 MB
# of MOs treated in a batch           ... 1
# of batches needed                   ... 1
Data format used                      ... DOUBLE
 done (    0.000 sec)
Closing buffer KIJ ( 0.00 GB; CompressionRatio= 0.94)
(ik|jl) transformation completed in     0.003 sec

-----------------------
RI-FORMATION OF (ik|ja)
-----------------------

Max core memory to be used            ... 64000 MB
Memory needed per MO                  ...   0.0 MB
# of MOs treated in a batch           ... 1
# of batches needed                   ... 1
Data format used                      ... DOUBLE
 done (    0.001 sec)
Closing buffer KIJ ( 0.00 GB; CompressionRatio= 1.00)
(ik|ja) transformation completed in     0.036 sec

-----------------------
RI-FORMATION OF (ij|ka)
-----------------------

Max core memory to be used            ... 64000 MB
Memory needed per MO pair             ...   0.0 MB
# of MO pairs included in trafo       ... 15
# of MO pairs treated in a batch      ... 2
# of batches needed                   ... 1
Data format used                      ... DOUBLE
 done (    0.001 sec)
Closing buffer JIJ ( 0.00 GB; CompressionRatio= 1.00)
(ij|ka) transformation completed in     0.004 sec

-----------------------
RI-FORMATION OF (ia|jb)
-----------------------

Max core memory to be used            ... 64000 MB
Memory needed per MO                  ...   0.4 MB
# of MOs treated in a batch           ... 1
# of batches needed                   ... 1
Data format used                      ... DOUBLE
 done (    0.285 sec)
Closing buffer KIJ ( 0.00 GB; CompressionRatio= 1.00)
(ia|jb) transformation completed in     0.325 sec

------------------------------
INTEGRAL RI-(ij|ab)
------------------------------

Orbital Window                         ...    2..   6 -    7.. 137
Memory available                       ...  64000 MB

Reading internal integrals             ... done (    0.000 sec)
Generating and transforming integrals  ...
  Aux angular momentum 0               ... done (    0.005 sec)
  Aux angular momentum 1               ... done (    0.008 sec)
  Aux angular momentum 2               ... done (    0.075 sec)
  Aux angular momentum 3               ... done (    0.097 sec)
  Aux angular momentum 4               ... done (    0.092 sec)
  (v|ab)                               ... done (    0.277 sec)
Orthogonalizing and resorting integrals...
  (a|vb)                               ... done (    0.691 sec)
Generating ij|ab                       ...
  (ij|ab)                              ... done (    0.152 sec)

(ij|ab) transformation completed in     1.325 sec
Closing buffer IJAB[0] ( 0.00 GB; CompressionRatio= 1.00)
 Integral transformation done in (    2.3)
  Making IJABD,IAJBD    ... done (    2.5)
Performing recanonicalization
Recanonicalization of T (ground state) amplitudes ... 
 T amplitudes recanonicalization done in (    0.6)
Recanonicalization of IP amplitudes ... 
 IP amplitudes recanonicalization done in (    0.0)
Recanonicalization of EA amplitudes ... 
 EA amplitudes recanonicalization done in (    1.4)
  Making FD             ... done (    0.8)
  Making IKJADs,IKJAD   ... done (    0.0)

---------------------------------------------------
           RHF STEOM-CCSD CALCULATION
---------------------------------------------------

EOM type                                   ... STEOM
Multiplicity                               ... singlet
Solver                                     ... Davidson
Convergence check                          ... for each root separately
Convergence threshold                      ... 1.00E-05
Root homing                                ... on
Preconditioning update                     ... CIS
Reduced space size (times number of roots) ... 40
Number of roots in the CIS initial guess   ... 400
Number of roots to be optimized            ... 10
Number of amplitudes to be optimized       ... 655

--------------------------------
AUTOMATIC CHOICE OF INCORE LEVEL
--------------------------------

Memory available                           ...  64000.00 MB
Memory needed for SIP and SEA amplitudes   ...      4.63 MB
 -> Final InCoreLevel    ... 1


Making SIP amplitudes for STEOM-CCSD       ... done (    0.0)
Making SEA amplitudes for STEOM-CCSD       ... done (    0.1)
Dressing integrals for STEOM-CCSD          ... 
Dressing of Occ / Occ block ... done (    0.0)
Dressing of Virt / Virt block ... done (    0.0)

---------------------
CHAIN OF SPHERES GRID
---------------------

General Integration Accuracy     IntAcc      ... 4.020
Radial Grid Type                 RadialGrid  ... OptM3 with GC (2021)
Angular Grid (max. ang.)         AngularGrid ... 2 (Lebedev-110)
Angular grid pruning method      GridPruning ... 4 (adaptive)
Weight generation scheme         WeightScheme... Becke
Basis function cutoff            BFCut       ... 1.0000e-11
Integration weight cutoff        WCut        ... 1.0000e-14
Angular grids for H and He will be reduced by one unit
Partially contracted basis set               ... on
Rotationally invariant grid construction     ... off

Total number of grid points                  ...     6350
Total number of batches                      ...      100
Average number of points per batch           ...       63
Average number of grid points per atom       ...     1588
UseSFitting                                  ... on


ORCA finished by error termination in MDCI
Calling Command: mpirun -np 8  /home/Lib/ORCA_500/orca_mdci_mpi 000013.mdciinp.tmp 000013 
[file orca_tools/qcmsg.cpp, line 458]: 
  .... aborting the run

