
                                        *****************
                                        * O   R   C   A *
                                        *****************

                                            #,                                       
                                            ###                                      
                                            ####                                     
                                            #####                                    
                                            ######                                   
                                           ########,                                 
                                     ,,################,,,,,                         
                               ,,#################################,,                 
                          ,,##########################################,,             
                       ,#########################################, ''#####,          
                    ,#############################################,,   '####,        
                  ,##################################################,,,,####,       
                ,###########''''           ''''###############################       
              ,#####''   ,,,,##########,,,,          '''####'''          '####       
            ,##' ,,,,###########################,,,                        '##       
           ' ,,###''''                  '''############,,,                           
         ,,##''                                '''############,,,,        ,,,,,,###''
      ,#''                                            '''#######################'''  
     '                                                          ''''####''''         
             ,#######,   #######,   ,#######,      ##                                
            ,#'     '#,  ##    ##  ,#'     '#,    #''#        ######   ,####,        
            ##       ##  ##   ,#'  ##            #'  '#       #        #'  '#        
            ##       ##  #######   ##           ,######,      #####,   #    #        
            '#,     ,#'  ##    ##  '#,     ,#' ,#      #,         ##   #,  ,#        
             '#######'   ##     ##  '#######'  #'      '#     #####' # '####'        



                  #######################################################
                  #                        -***-                        #
                  #          Department of theory and spectroscopy      #
                  #    Directorship and core code : Frank Neese         #
                  #        Max Planck Institute fuer Kohlenforschung    #
                  #                Kaiser Wilhelm Platz 1               #
                  #                 D-45470 Muelheim/Ruhr               #
                  #                      Germany                        #
                  #                                                     #
                  #                  All rights reserved                #
                  #                        -***-                        #
                  #######################################################


                         Program Version 5.0.0 -  RELEASE  -
                                (SVN: $Rev: 19529$)
                ($Date: 2021-06-28 11:36:33 +0200 (Mo, 28 Jun 2021) $)


 With contributions from (in alphabetic order):
   Daniel Aravena         : Magnetic Suceptibility
   Michael Atanasov       : Ab Initio Ligand Field Theory (pilot matlab implementation)
   Alexander A. Auer      : GIAO ZORA, VPT2 properties, NMR spectrum
   Ute Becker             : Parallelization
   Giovanni Bistoni       : ED, misc. LED, open-shell LED, HFLD
   Martin Brehm           : Molecular dynamics
   Dmytro Bykov           : SCF Hessian
   Vijay G. Chilkuri      : MRCI spin determinant printing, contributions to CSF-ICE
   Dipayan Datta          : RHF DLPNO-CCSD density
   Achintya Kumar Dutta   : EOM-CC, STEOM-CC
   Dmitry Ganyushin       : Spin-Orbit,Spin-Spin,Magnetic field MRCI
   Miquel Garcia          : C-PCM Hessian, Gaussian charge scheme
   Yang Guo               : DLPNO-NEVPT2, F12-NEVPT2, CIM, IAO-localization
   Andreas Hansen         : Spin unrestricted coupled pair/coupled cluster methods
   Benjamin Helmich-Paris : MC-RPA, TRAH-SCF, COSX integrals
   Lee Huntington         : MR-EOM, pCC
   Robert Izsak           : Overlap fitted RIJCOSX, COSX-SCS-MP3, EOM
   Marcus Kettner         : VPT2
   Christian Kollmar      : KDIIS, OOCD, Brueckner-CCSD(T), CCSD density, CASPT2, CASPT2-K
   Simone Kossmann        : Meta GGA functionals, TD-DFT gradient, OOMP2, MP2 Hessian
   Martin Krupicka        : Initial AUTO-CI
   Lucas Lang             : DCDCAS
   Marvin Lechner         : AUTO-CI (C++ implementation), FIC-MRCC
   Dagmar Lenk            : GEPOL surface, SMD
   Dimitrios Liakos       : Extrapolation schemes; Compound Job, initial MDCI parallelization
   Dimitrios Manganas     : Further ROCIS development; embedding schemes
   Dimitrios Pantazis     : SARC Basis sets
   Anastasios Papadopoulos: AUTO-CI, single reference methods and gradients
   Taras Petrenko         : DFT Hessian,TD-DFT gradient, ASA, ECA, R-Raman, ABS, FL, XAS/XES, NRVS
   Peter Pinski           : DLPNO-MP2, DLPNO-MP2 Gradient
   Christoph Reimann      : Effective Core Potentials
   Marius Retegan         : Local ZFS, SOC
   Christoph Riplinger    : Optimizer, TS searches, QM/MM, DLPNO-CCSD(T), (RO)-DLPNO pert. Triples
   Tobias Risthaus        : Range-separated hybrids, TD-DFT gradient, RPA, STAB
   Michael Roemelt        : Original ROCIS implementation
   Masaaki Saitow         : Open-shell DLPNO-CCSD energy and density
   Barbara Sandhoefer     : DKH picture change effects
   Avijit Sen             : IP-ROCIS
   Kantharuban Sivalingam : CASSCF convergence, NEVPT2, FIC-MRCI
   Bernardo de Souza      : ESD, SOC TD-DFT
   Georgi Stoychev        : AutoAux, RI-MP2 NMR
   Willem Van den Heuvel  : Paramagnetic NMR
   Boris Wezisla          : Elementary symmetry handling
   Frank Wennmohs         : Technical directorship


 We gratefully acknowledge several colleagues who have allowed us to
 interface, adapt or use parts of their codes:
   Stefan Grimme, W. Hujo, H. Kruse, P. Pracht,  : VdW corrections, initial TS optimization,
                  C. Bannwarth, S. Ehlert          DFT functionals, gCP, sTDA/sTD-DF
   Ed Valeev, F. Pavosevic, A. Kumar             : LibInt (2-el integral package), F12 methods
   Garnet Chan, S. Sharma, J. Yang, R. Olivares  : DMRG
   Ulf Ekstrom                                   : XCFun DFT Library
   Mihaly Kallay                                 : mrcc  (arbitrary order and MRCC methods)
   Jiri Pittner, Ondrej Demel                    : Mk-CCSD
   Frank Weinhold                                : gennbo (NPA and NBO analysis)
   Christopher J. Cramer and Donald G. Truhlar   : smd solvation model
   Lars Goerigk                                  : TD-DFT with DH, B97 family of functionals
   V. Asgeirsson, H. Jonsson                     : NEB implementation
   FAccTs GmbH                                   : IRC, NEB, NEB-TS, DLPNO-Multilevel, CI-OPT
                                                   MM, QMMM, 2- and 3-layer-ONIOM, Crystal-QMMM,
                                                   LR-CPCM, SF, NACMEs, symmetry and pop. for TD-DFT,
                                                   nearIR, NL-DFT gradient (VV10), updates on ESD,
                                                   ML-optimized integration grids
   S Lehtola, MJT Oliveira, MAL Marques          : LibXC Library
   Liviu Ungur et al                             : ANISO software


 Your calculation uses the libint2 library for the computation of 2-el integrals
 For citations please refer to: http://libint.valeyev.net

 Your ORCA version has been built with support for libXC version: 5.1.0
 For citations please refer to: https://tddft.org/programs/libxc/

 This ORCA versions uses:
   CBLAS   interface :  Fast vector & matrix operations
   LAPACKE interface :  Fast linear algebra routines
   SCALAPACK package :  Parallel linear algebra routines
   Shared memory     :  Shared parallel matrices
   BLAS/LAPACK       :  OpenBLAS 0.3.15  USE64BITINT DYNAMIC_ARCH NO_AFFINITY Haswell SINGLE_THREADED
        Core in use  :  Haswell
   Copyright (c) 2011-2014, The OpenBLAS Project




***************************************
The coordinates will be read from file: 000026.xyz
***************************************


================================================================================

----- Orbital basis set information -----
Your calculation utilizes the basis: aug-cc-pVTZ 
    H, B-Ne : Obtained from the ccRepo (grant-hill.group.shef.ac.uk/ccrepo) Feb. 2017
              R. A. Kendall, T. H. Dunning, Jr., R. J. Harrison, J. Chem. Phys. 96, 6796 (1992)
         He : Obtained from the ccRepo (grant-hill.group.shef.ac.uk/ccrepo) Feb. 2017
              D. E. Woon, T. H. Dunning, Jr., J. Chem. Phys. 100, 2975 (1994)
  Li-Be, Na : Obtained from the ccRepo (grant-hill.group.shef.ac.uk/ccrepo) Feb. 2017
              B. P. Prascher, D. E. Woon, K. A. Peterson, T. H. Dunning, Jr., A. K. Wilson, Theor. Chem. Acc. 128, 69 (2011)
         Mg : Obtained from the Peterson Research Group Website (tyr0.chem.wsu.edu/~kipeters) Feb. 2017
              B. P. Prascher, D. E. Woon, K. A. Peterson, T. H. Dunning, Jr., A. K. Wilson, Theor. Chem. Acc. 128, 69 (2011)
      Al-Ar : Obtained from the ccRepo (grant-hill.group.shef.ac.uk/ccrepo) Feb. 2017
              D. E. Woon, T. H. Dunning, Jr., J. Chem. Phys. 98, 1358 (1993)
      Sc-Zn : Obtained from the ccRepo (grant-hill.group.shef.ac.uk/ccrepo) Feb. 2017
              N. B. Balabanov, K. A. Peterson, J. Chem. Phys. 123, 064107 (2005)
              N. B. Balabanov, K. A. Peterson, J. Chem. Phys. 125, 074110 (2006)
      Ga-Kr : Obtained from the ccRepo (grant-hill.group.shef.ac.uk/ccrepo) Feb. 2017
              A. K. Wilson, D. E. Woon, K. A. Peterson, T. H. Dunning, Jr., J. Chem. Phys. 110, 7667 (1999)
     Ag, Au : Obtained from the Peterson Research Group Website (tyr0.chem.wsu.edu/~kipeters) Feb. 2017
              K. A. Peterson, C. Puzzarini, Theor. Chem. Acc. 114, 283 (2005)

----- AuxJ basis set information -----
Your calculation utilizes the auxiliary basis: def2/J
   F. Weigend, Phys. Chem. Chem. Phys. 8, 1057 (2006).

----- AuxC basis set information -----
Your calculation utilizes the auxiliary basis: aug-cc-pVTZ/C 
  H-He, B-F, Al-Ar, Ga-Kr : Obtained from the EMSL Basis Set Exchange (bse.pnl.gov) Feb. 2017
                            F. Weigend, A. Kohn, C. Hattig, J. Chem. Phys. 116, 3175 (2002)
                   Be, Mg : Obtained from the TURBOMOLE 7.0 basis set library
                            C. Haettig, Phys. Chem. Chem. Phys. 7, 59 (2005)
                       Ne : Obtained from the EMSL Basis Set Exchange (bse.pnl.gov) Feb. 2017
                            C. Haettig, Phys. Chem. Chem. Phys. 7, 59 (2005)
                            F. Weigend, A. Kohn, C. Hattig, J. Chem. Phys. 116, 3175 (2002)
                    Sc-Zn : Obtained from the EMSL Basis Set Exchange (bse.pnl.gov) Feb. 2017
                            J. G. Hill, J. A. Platts, J. Chem. Phys. 128, 044104 (2008)

================================================================================
                                        WARNINGS
                       Please study these warnings very carefully!
================================================================================


WARNING: Post HF methods need fully converged wavefunctions
  ===> : Setting SCFConvForced true
         You can overwrite this default with %scf ConvForced false 


WARNING: MDCI localization with Augmented Hessian Foster-Boys
  ===> : Switching off randomization!

INFO   : the flag for use of the SHARK integral package has been found!

================================================================================
                                       INPUT FILE
================================================================================
NAME = 000026.com
|  1> !STEOM-DLPNO-CCSD aug-cc-pVTZ aug-cc-pVTZ/C def2/J TightSCF PrintMOs
|  2> 
|  3> *xyzfile 0 1 000026.xyz
|  4> 
|  5> %MaxCore 64000
|  6> %scf
|  7>  MaxIter 150
|  8> end
|  9> 
| 10> %pal nprocs 8
| 11> end
| 12> 
| 13> %mdci
| 14>  nroots 10
| 15>  DoRootwise true
| 16> end
| 17> 
| 18>                          ****END OF INPUT****
================================================================================

                       ****************************
                       * Single Point Calculation *
                       ****************************

---------------------------------
CARTESIAN COORDINATES (ANGSTROEM)
---------------------------------
  O     -1.023804   -0.438792   -0.000000
  C      0.000000    0.418952    0.000000
  O      1.152985    0.109983    0.000000
  H     -0.656942   -1.333012   -0.000000
  H     -0.376499    1.449770   -0.000000

----------------------------
CARTESIAN COORDINATES (A.U.)
----------------------------
  NO LB      ZA    FRAG     MASS         X           Y           Z
   0 O     8.0000    0    15.999   -1.934709   -0.829197   -0.000000
   1 C     6.0000    0    12.011    0.000000    0.791705    0.000000
   2 O     8.0000    0    15.999    2.178826    0.207838    0.000000
   3 H     1.0000    0     1.008   -1.241440   -2.519028   -0.000000
   4 H     1.0000    0     1.008   -0.711480    2.739668   -0.000000

--------------------------------
INTERNAL COORDINATES (ANGSTROEM)
--------------------------------
 O      0   0   0     0.000000000000     0.00000000     0.00000000
 C      1   0   0     1.335626968862     0.00000000     0.00000000
 O      2   1   0     1.193665050668   125.04241203     0.00000000
 H      1   2   3     0.966549085895   107.64996543     0.00000000
 H      2   1   3     1.097423002367   109.89194393   180.00000000

---------------------------
INTERNAL COORDINATES (A.U.)
---------------------------
 O      0   0   0     0.000000000000     0.00000000     0.00000000
 C      1   0   0     2.523969188229     0.00000000     0.00000000
 O      2   1   0     2.255700041396   125.04241203     0.00000000
 H      1   2   3     1.826513067333   107.64996543     0.00000000
 H      2   1   3     2.073828927540   109.89194393   180.00000000

---------------------
BASIS SET INFORMATION
---------------------
There are 3 groups of distinct atoms

 Group   1 Type O   : 19s6p3d2f contracted to 5s4p3d2f pattern {88111/3111/111/11}
 Group   2 Type C   : 19s6p3d2f contracted to 5s4p3d2f pattern {88111/3111/111/11}
 Group   3 Type H   : 6s3p2d contracted to 4s3p2d pattern {3111/111/11}

Atom   0O    basis set group =>   1
Atom   1C    basis set group =>   2
Atom   2O    basis set group =>   1
Atom   3H    basis set group =>   3
Atom   4H    basis set group =>   3
---------------------------------
AUXILIARY/J BASIS SET INFORMATION
---------------------------------
There are 3 groups of distinct atoms

 Group   1 Type O   : 12s5p4d2f1g contracted to 6s4p3d1f1g pattern {711111/2111/211/2/1}
 Group   2 Type C   : 12s5p4d2f1g contracted to 6s4p3d1f1g pattern {711111/2111/211/2/1}
 Group   3 Type H   : 5s2p1d contracted to 3s1p1d pattern {311/2/1}

Atom   0O    basis set group =>   1
Atom   1C    basis set group =>   2
Atom   2O    basis set group =>   1
Atom   3H    basis set group =>   3
Atom   4H    basis set group =>   3
---------------------------------
AUXILIARY/C BASIS SET INFORMATION
---------------------------------
There are 3 groups of distinct atoms

 Group   1 Type O   : 9s7p6d4f2g contracted to 9s7p6d4f2g pattern {111111111/1111111/111111/1111/11}
 Group   2 Type C   : 9s7p6d4f2g contracted to 9s7p6d4f2g pattern {111111111/1111111/111111/1111/11}
 Group   3 Type H   : 5s4p3d2f contracted to 5s4p3d2f pattern {11111/1111/111/11}

Atom   0O    basis set group =>   1
Atom   1C    basis set group =>   2
Atom   2O    basis set group =>   1
Atom   3H    basis set group =>   3
Atom   4H    basis set group =>   3


           ************************************************************
           *        Program running with 8 parallel MPI-processes     *
           *              working on a common directory               *
           ************************************************************
------------------------------------------------------------------------------
                           ORCA GTO INTEGRAL CALCULATION
------------------------------------------------------------------------------
------------------------------------------------------------------------------
                   ___                                                        
                  /   \      - P O W E R E D   B Y -                         
                 /     \                                                     
                 |  |  |   _    _      __       _____    __    __             
                 |  |  |  | |  | |    /  \     |  _  \  |  |  /  |          
                  \  \/   | |  | |   /    \    | | | |  |  | /  /          
                 / \  \   | |__| |  /  /\  \   | |_| |  |  |/  /          
                |  |  |   |  __  | /  /__\  \  |    /   |      \           
                |  |  |   | |  | | |   __   |  |    \   |  |\   \          
                \     /   | |  | | |  |  |  |  | |\  \  |  | \   \       
                 \___/    |_|  |_| |__|  |__|  |_| \__\ |__|  \__/        
                                                                              
                      - O R C A' S   B I G   F R I E N D -                    
                                      &                                       
                       - I N T E G R A L  F E E D E R -                       
                                                                              
 v1 FN, 2020, v2 2021                                                         
------------------------------------------------------------------------------


Reading SHARK input file 000026.SHARKINP.tmp ... ok
----------------------
SHARK INTEGRAL PACKAGE
----------------------

Number of atoms                             ...      5
Number of basis functions                   ...    184
Number of shells                            ...     60
Maximum angular momentum                    ...      3
Integral batch strategy                     ... SHARK/LIBINT Hybrid
RI-J (if used) integral strategy            ... SPLIT-RIJ (Revised 2003 algorithm where possible)
Printlevel                                  ...      1
Contraction scheme used                     ... SEGMENTED contraction
Coulomb Range Separation                    ... NOT USED
Exchange Range Separation                   ... NOT USED
Finite Nucleus Model                        ... NOT USED
Auxiliary Coulomb fitting basis             ... AVAILABLE
   # of basis functions in Aux-J            ...    169
   # of shells in Aux-J                     ...     55
   Maximum angular momentum in Aux-J        ...      4
Auxiliary J/K fitting basis                 ... NOT available
Auxiliary Correlation fitting basis         ... AVAILABLE
   # of basis functions in Aux-C            ...    410
   # of shells in Aux-C                     ...    112
   Maximum angular momentum in Aux-C        ...      4
Auxiliary 'external' fitting basis          ... NOT available
Integral threshold                          ...     2.500000e-11
Primitive cut-off                           ...     2.500000e-12
Primitive pair pre-selection threshold      ...     2.500000e-12

Calculating pre-screening integrals         ... done (  0.1 sec) Dimension = 60
Organizing shell pair data                  ... done (  0.0 sec)
Shell pair information
Total number of shell pairs                 ...      1830
Shell pairs after pre-screening             ...      1830
Total number of primitive shell pairs       ...      6511
Primitive shell pairs kept                  ...      5626
          la=0 lb=0:    276 shell pairs
          la=1 lb=0:    414 shell pairs
          la=1 lb=1:    171 shell pairs
          la=2 lb=0:    299 shell pairs
          la=2 lb=1:    234 shell pairs
          la=2 lb=2:     91 shell pairs
          la=3 lb=0:    138 shell pairs
          la=3 lb=1:    108 shell pairs
          la=3 lb=2:     78 shell pairs
          la=3 lb=3:     21 shell pairs

Calculating one electron integrals          ... done (  0.0 sec)
Calculating RI/J V-Matrix + Cholesky decomp.... done (  0.0 sec)
Calculating RI/C V-Matrix + Cholesky decomp.... done (  0.0 sec)
Calculating Nuclear repulsion               ... done (  0.0 sec) ENN=     70.574129367420 Eh

SHARK setup successfully completed in   0.2 seconds

Maximum memory used throughout the entire GTOINT-calculation: 17.3 MB


           ************************************************************
           *        Program running with 8 parallel MPI-processes     *
           *              working on a common directory               *
           ************************************************************
-------------------------------------------------------------------------------
                                 ORCA SCF
-------------------------------------------------------------------------------

------------
SCF SETTINGS
------------
Hamiltonian:
 Ab initio Hamiltonian  Method          .... Hartree-Fock(GTOs)


General Settings:
 Integral files         IntName         .... 000026
 Hartree-Fock type      HFTyp           .... RHF
 Total Charge           Charge          ....    0
 Multiplicity           Mult            ....    1
 Number of Electrons    NEL             ....   24
 Basis Dimension        Dim             ....  184
 Nuclear Repulsion      ENuc            ....     70.5741293674 Eh

Convergence Acceleration:
 DIIS                   CNVDIIS         .... on
   Start iteration      DIISMaxIt       ....    12
   Startup error        DIISStart       ....  0.200000
   # of expansion vecs  DIISMaxEq       ....     5
   Bias factor          DIISBfac        ....   1.050
   Max. coefficient     DIISMaxC        ....  10.000
 Trust-Rad. Augm. Hess. CNVTRAH         .... auto
   Auto Start mean grad. ratio tolernc. ....  1.125000
   Auto Start start iteration           ....    20
   Auto Start num. interpolation iter.  ....    10
   Max. Number of Micro iterations      ....    16
   Max. Number of Macro iterations      .... Maxiter - #DIIS iter
   Number of Davidson start vectors     ....     2
   Converg. threshold I  (grad. norm)   ....   1.000e-05
   Converg. threshold II (energy diff.) ....   1.000e-08
   Grad. Scal. Fac. for Micro threshold ....   0.100
   Minimum threshold for Micro iter.    ....   0.010
   NR start threshold (gradient norm)   ....   0.001
   Initial trust radius                 ....   0.400
   Minimum AH scaling param. (alpha)    ....   1.000
   Maximum AH scaling param. (alpha)    .... 1000.000
   Orbital update algorithm             .... Taylor
   White noise on init. David. guess    .... on
   Maximum white noise                  ....   0.010
   Quad. conv. algorithm                .... NR
 SOSCF                  CNVSOSCF        .... on
   Start iteration      SOSCFMaxIt      ....   150
   Startup grad/error   SOSCFStart      ....  0.003300
 Level Shifting         CNVShift        .... on
   Level shift para.    LevelShift      ....    0.2500
   Turn off err/grad.   ShiftErr        ....    0.0010
 Zerner damping         CNVZerner       .... off
 Static damping         CNVDamp         .... on
   Fraction old density DampFac         ....    0.7000
   Max. Damping (<1)    DampMax         ....    0.9800
   Min. Damping (>=0)   DampMin         ....    0.0000
   Turn off err/grad.   DampErr         ....    0.1000
 Fernandez-Rico         CNVRico         .... off

SCF Procedure:
 Maximum # iterations   MaxIter         ....   150
 SCF integral mode      SCFMode         .... Direct
   Integral package                     .... SHARK and LIBINT hybrid scheme
 Reset frequency        DirectResetFreq ....    20
 Integral Threshold     Thresh          ....  2.500e-11 Eh
 Primitive CutOff       TCut            ....  2.500e-12 Eh

Convergence Tolerance:
 Convergence Check Mode ConvCheckMode   .... Total+1el-Energy
 Convergence forced     ConvForced      .... 1
 Energy Change          TolE            ....  1.000e-08 Eh
 1-El. energy change                    ....  1.000e-05 Eh
 Orbital Gradient       TolG            ....  1.000e-05
 Orbital Rotation angle TolX            ....  1.000e-05
 DIIS Error             TolErr          ....  5.000e-07


Diagonalization of the overlap matrix:
Smallest eigenvalue                        ... 6.815e-05
Time for diagonalization                   ...    0.008 sec
Threshold for overlap eigenvalues          ... 1.000e-08
Number of eigenvalues below threshold      ... 0
Time for construction of square roots      ...    0.007 sec
Total time needed                          ...    0.016 sec

Time for model grid setup =    0.034 sec

------------------------------
INITIAL GUESS: MODEL POTENTIAL
------------------------------
Loading Hartree-Fock densities                     ... done
Calculating cut-offs                               ... done
Initializing the effective Hamiltonian             ... done
Setting up the integral package (SHARK)            ... done
Starting the Coulomb interaction                   ... done (   0.0 sec)
Reading the grid                                   ... done
Mapping shells                                     ... done
Starting the XC term evaluation                    ... done (   0.0 sec)
Transforming the Hamiltonian                       ... done (   0.0 sec)
Diagonalizing the Hamiltonian                      ... done (   0.0 sec)
Back transforming the eigenvectors                 ... done (   0.0 sec)
Now organizing SCF variables                       ... done
                      ------------------
                      INITIAL GUESS DONE (   0.1 sec)
                      ------------------
--------------
SCF ITERATIONS
--------------
ITER       Energy         Delta-E        Max-DP      RMS-DP      [F,P]     Damp
               ***  Starting incremental Fock matrix formation  ***
  0   -188.7035654391   0.000000000000 0.02756425  0.00070572  0.3337075 0.7000
  1   -188.7555486234  -0.051983184372 0.01957150  0.00051119  0.2003631 0.7000
                               ***Turning on DIIS***
  2   -188.7846235291  -0.029074905683 0.01380204  0.00033658  0.1119438 0.7000
  3   -189.0575647588  -0.272941229659 0.03291903  0.00079081  0.0829627 0.0000
  4   -188.8381087663   0.219455992490 0.00376578  0.00011562  0.0084384 0.0000
  5   -188.8451025474  -0.006993781068 0.00158264  0.00005718  0.0042603 0.0000
                      *** Initiating the SOSCF procedure ***
                           *** Shutting down DIIS ***
                      *** Re-Reading the Fockian *** 
                      *** Removing any level shift *** 
ITER      Energy       Delta-E        Grad      Rot      Max-DP    RMS-DP
  6   -188.84126584   0.0038367045  0.001951  0.001951  0.001234  0.000030
               *** Restarting incremental Fock matrix formation ***
  7   -188.84525079  -0.0039849494  0.000587  0.000909  0.000525  0.000015
  8   -188.84525839  -0.0000076024  0.000515  0.001721  0.000857  0.000019
  9   -188.84526167  -0.0000032747  0.000142  0.000231  0.000140  0.000003
 10   -188.84526195  -0.0000002851  0.000039  0.000054  0.000026  0.000001
 11   -188.84526197  -0.0000000159  0.000010  0.000023  0.000022  0.000000
 12   -188.84526197  -0.0000000028  0.000003  0.000004  0.000004  0.000000
                  ***Gradient check signals convergence***
              ***Rediagonalizing the Fockian in SOSCF/NRSCF***

               *****************************************************
               *                     SUCCESS                       *
               *           SCF CONVERGED AFTER  13 CYCLES          *
               *****************************************************


----------------
TOTAL SCF ENERGY
----------------

Total Energy       :         -188.84526197 Eh           -5138.74083 eV

Components:
Nuclear Repulsion  :           70.57412937 Eh            1920.41969 eV
Electronic Energy  :         -259.41939134 Eh           -7059.16052 eV
One Electron Energy:         -398.79942348 Eh          -10851.88401 eV
Two Electron Energy:          139.38003214 Eh            3792.72349 eV

Virial components:
Potential Energy   :         -377.40630695 Eh          -10269.74772 eV
Kinetic Energy     :          188.56104498 Eh            5131.00689 eV
Virial Ratio       :            2.00150729


---------------
SCF CONVERGENCE
---------------

  Last Energy change         ...   -8.1457e-11  Tolerance :   1.0000e-08
  Last MAX-Density change    ...    1.0813e-06  Tolerance :   1.0000e-07
  Last RMS-Density change    ...    3.2270e-08  Tolerance :   5.0000e-09
  Last Orbital Gradient      ...    1.0342e-06  Tolerance :   1.0000e-05
  Last Orbital Rotation      ...    1.0540e-06  Tolerance :   1.0000e-05

             **** THE GBW FILE WAS UPDATED (000026.gbw) ****
             **** DENSITY 000026.scfp WAS UPDATED ****
             **** ENERGY FILE WAS UPDATED (000026.en.tmp) ****
             **** THE GBW FILE WAS UPDATED (000026.gbw) ****
             **** DENSITY 000026.scfp WAS UPDATED ****
----------------
ORBITAL ENERGIES
----------------

  NO   OCC          E(Eh)            E(eV) 
   0   2.0000     -20.628648      -561.3341 
   1   2.0000     -20.566536      -559.6439 
   2   2.0000     -11.395087      -310.0761 
   3   2.0000      -1.483068       -40.3563 
   4   2.0000      -1.382035       -37.6071 
   5   2.0000      -0.898912       -24.4606 
   6   2.0000      -0.728810       -19.8319 
   7   2.0000      -0.715156       -19.4604 
   8   2.0000      -0.641924       -17.4676 
   9   2.0000      -0.605776       -16.4840 
  10   2.0000      -0.499052       -13.5799 
  11   2.0000      -0.474691       -12.9170 
  12   0.0000       0.029421         0.8006 
  13   0.0000       0.037398         1.0177 
  14   0.0000       0.074239         2.0201 
  15   0.0000       0.080465         2.1896 
  16   0.0000       0.107213         2.9174 
  17   0.0000       0.134355         3.6560 
  18   0.0000       0.146543         3.9876 
  19   0.0000       0.150787         4.1031 
  20   0.0000       0.160982         4.3806 
  21   0.0000       0.174308         4.7432 
  22   0.0000       0.183449         4.9919 
  23   0.0000       0.225419         6.1340 
  24   0.0000       0.227845         6.2000 
  25   0.0000       0.241148         6.5620 
  26   0.0000       0.269601         7.3362 
  27   0.0000       0.284434         7.7398 
  28   0.0000       0.286205         7.7880 
  29   0.0000       0.312800         8.5117 
  30   0.0000       0.318500         8.6668 
  31   0.0000       0.333613         9.0781 
  32   0.0000       0.365681         9.9507 
  33   0.0000       0.392605        10.6833 
  34   0.0000       0.400926        10.9098 
  35   0.0000       0.404710        11.0127 
  36   0.0000       0.443168        12.0592 
  37   0.0000       0.456314        12.4169 
  38   0.0000       0.499421        13.5899 
  39   0.0000       0.522570        14.2199 
  40   0.0000       0.539183        14.6719 
  41   0.0000       0.569183        15.4883 
  42   0.0000       0.603077        16.4106 
  43   0.0000       0.631276        17.1779 
  44   0.0000       0.688495        18.7349 
  45   0.0000       0.717490        19.5239 
  46   0.0000       0.721418        19.6308 
  47   0.0000       0.760046        20.6819 
  48   0.0000       0.771892        21.0043 
  49   0.0000       0.793912        21.6035 
  50   0.0000       0.822934        22.3932 
  51   0.0000       0.843275        22.9467 
  52   0.0000       0.852392        23.1948 
  53   0.0000       0.888920        24.1887 
  54   0.0000       0.893412        24.3110 
  55   0.0000       0.914804        24.8931 
  56   0.0000       0.925374        25.1807 
  57   0.0000       0.929669        25.2976 
  58   0.0000       0.932877        25.3849 
  59   0.0000       0.959243        26.1023 
  60   0.0000       0.977199        26.5910 
  61   0.0000       1.011554        27.5258 
  62   0.0000       1.021688        27.8015 
  63   0.0000       1.024293        27.8724 
  64   0.0000       1.046456        28.4755 
  65   0.0000       1.064435        28.9647 
  66   0.0000       1.093359        29.7518 
  67   0.0000       1.126214        30.6458 
  68   0.0000       1.159116        31.5411 
  69   0.0000       1.177670        32.0460 
  70   0.0000       1.247187        33.9377 
  71   0.0000       1.262112        34.3438 
  72   0.0000       1.307815        35.5874 
  73   0.0000       1.356980        36.9253 
  74   0.0000       1.399575        38.0844 
  75   0.0000       1.413225        38.4558 
  76   0.0000       1.419868        38.6366 
  77   0.0000       1.466786        39.9133 
  78   0.0000       1.479483        40.2588 
  79   0.0000       1.500124        40.8204 
  80   0.0000       1.563727        42.5512 
  81   0.0000       1.599977        43.5376 
  82   0.0000       1.631472        44.3946 
  83   0.0000       1.671821        45.4926 
  84   0.0000       1.672596        45.5136 
  85   0.0000       1.763406        47.9847 
  86   0.0000       1.822053        49.5806 
  87   0.0000       1.939977        52.7894 
  88   0.0000       1.947947        53.0063 
  89   0.0000       2.020787        54.9884 
  90   0.0000       2.053442        55.8770 
  91   0.0000       2.107922        57.3595 
  92   0.0000       2.223853        60.5141 
  93   0.0000       2.289590        62.3029 
  94   0.0000       2.331371        63.4398 
  95   0.0000       2.368019        64.4371 
  96   0.0000       2.371141        64.5220 
  97   0.0000       2.378316        64.7173 
  98   0.0000       2.426505        66.0286 
  99   0.0000       2.439203        66.3741 
 100   0.0000       2.454015        66.7772 
 101   0.0000       2.523543        68.6691 
 102   0.0000       2.544214        69.2316 
 103   0.0000       2.544514        69.2397 
 104   0.0000       2.604009        70.8587 
 105   0.0000       2.622537        71.3629 
 106   0.0000       2.630047        71.5672 
 107   0.0000       2.693293        73.2882 
 108   0.0000       2.718569        73.9760 
 109   0.0000       2.813383        76.5560 
 110   0.0000       2.827640        76.9440 
 111   0.0000       2.879083        78.3438 
 112   0.0000       2.889954        78.6397 
 113   0.0000       2.891943        78.6938 
 114   0.0000       2.928760        79.6956 
 115   0.0000       2.964965        80.6808 
 116   0.0000       3.143998        85.5525 
 117   0.0000       3.181678        86.5778 
 118   0.0000       3.264946        88.8437 
 119   0.0000       3.356586        91.3373 
 120   0.0000       3.368850        91.6711 
 121   0.0000       3.541667        96.3737 
 122   0.0000       3.577446        97.3473 
 123   0.0000       3.628807        98.7449 
 124   0.0000       3.772152       102.6455 
 125   0.0000       3.789428       103.1156 
 126   0.0000       3.853105       104.8483 
 127   0.0000       3.908309       106.3505 
 128   0.0000       4.018117       109.3385 
 129   0.0000       4.078411       110.9792 
 130   0.0000       4.100069       111.5685 
 131   0.0000       4.111226       111.8721 
 132   0.0000       4.190565       114.0311 
 133   0.0000       4.214134       114.6724 
 134   0.0000       4.319147       117.5300 
 135   0.0000       4.332335       117.8888 
 136   0.0000       4.370266       118.9210 
 137   0.0000       4.413462       120.0964 
 138   0.0000       4.582430       124.6943 
 139   0.0000       4.681698       127.3955 
 140   0.0000       4.691040       127.6497 
 141   0.0000       4.719279       128.4181 
 142   0.0000       4.780003       130.0705 
 143   0.0000       4.908938       133.5790 
 144   0.0000       5.025262       136.7443 
 145   0.0000       5.159920       140.4086 
 146   0.0000       5.182465       141.0221 
 147   0.0000       5.215128       141.9108 
 148   0.0000       5.286171       143.8440 
 149   0.0000       5.349501       145.5673 
 150   0.0000       5.389151       146.6463 
 151   0.0000       5.544414       150.8712 
 152   0.0000       5.691971       154.8864 
 153   0.0000       5.957967       162.1245 
 154   0.0000       6.226600       169.4344 
 155   0.0000       6.283715       170.9886 
 156   0.0000       6.522067       177.4745 
 157   0.0000       6.604736       179.7240 
 158   0.0000       6.645824       180.8421 
 159   0.0000       6.763125       184.0340 
 160   0.0000       6.792364       184.8296 
 161   0.0000       6.833178       185.9402 
 162   0.0000       6.946389       189.0209 
 163   0.0000       7.002666       190.5522 
 164   0.0000       7.163018       194.9156 
 165   0.0000       7.173211       195.1930 
 166   0.0000       7.194716       195.7782 
 167   0.0000       7.221263       196.5006 
 168   0.0000       7.278205       198.0500 
 169   0.0000       7.308983       198.8875 
 170   0.0000       7.319836       199.1829 
 171   0.0000       7.404929       201.4983 
 172   0.0000       7.505934       204.2468 
 173   0.0000       7.521798       204.6785 
 174   0.0000       7.580585       206.2782 
 175   0.0000       7.697912       209.4708 
 176   0.0000       7.800165       212.2533 
 177   0.0000       7.822804       212.8693 
 178   0.0000       7.993664       217.5187 
 179   0.0000       8.168711       222.2819 
 180   0.0000       8.512478       231.6363 
 181   0.0000      14.860462       404.3737 
 182   0.0000      16.213880       441.2021 
 183   0.0000      17.208388       468.2640 
------------------
MOLECULAR ORBITALS
------------------
                      0         1         2         3         4         5   
                 -20.62865 -20.56654 -11.39509  -1.48307  -1.38203  -0.89891
                   2.00000   2.00000   2.00000   2.00000   2.00000   2.00000
                  --------  --------  --------  --------  --------  --------
  0O   1s         0.975223 -0.000312  0.000034  0.006501 -0.004981 -0.000191
  0O   2s        -0.001704 -0.000042  0.000489 -0.384689  0.310070  0.088588
  0O   3s         0.043793  0.000044  0.000209 -0.099113  0.079717  0.026050
  0O   4s        -0.000945 -0.000992  0.001577 -0.180944  0.194268  0.052845
  0O   5s        -0.000258 -0.001289  0.001613 -0.018191  0.008168  0.017718
  0O   1pz       -0.000000 -0.000000 -0.000000 -0.000000  0.000000  0.000000
  0O   1px        0.001812  0.000039  0.000228 -0.045672  0.017584 -0.044735
  0O   1py       -0.000350  0.000012  0.000194 -0.004638 -0.005156 -0.190948
  0O   2pz        0.000000  0.000000  0.000000 -0.000000 -0.000000  0.000000
  0O   2px       -0.001935 -0.000248  0.000311 -0.062061  0.030812 -0.056878
  0O   2py       -0.000047 -0.000054  0.000262 -0.005017 -0.004093 -0.236002
  0O   3pz       -0.000000  0.000000  0.000000  0.000000  0.000000 -0.000000
  0O   3px       -0.001318 -0.000296  0.001378 -0.000931  0.010373 -0.034321
  0O   3py        0.000920  0.000294  0.000248  0.005534  0.002275 -0.096837
  0O   4pz        0.000000  0.000000  0.000000  0.000000  0.000000  0.000000
  0O   4px        0.000176  0.000025  0.000205  0.003042  0.002278  0.002403
  0O   4py       -0.000184 -0.000235  0.000727 -0.001218 -0.006309 -0.008672
  0O   1dz2      -0.000095  0.000013 -0.000024  0.003283 -0.001933  0.000094
  0O   1dxz      -0.000000 -0.000000 -0.000000  0.000000  0.000000  0.000000
  0O   1dyz      -0.000000 -0.000000 -0.000000 -0.000000 -0.000000  0.000000
  0O   1dx2y2    -0.000032 -0.000018  0.000014  0.000148 -0.001219 -0.003084
  0O   1dxy       0.000008  0.000003  0.000120 -0.001502  0.000228 -0.008572
  0O   2dz2       0.000636  0.000063  0.000189  0.007638 -0.007995  0.002685
  0O   2dxz      -0.000000  0.000000  0.000000  0.000000  0.000000 -0.000000
  0O   2dyz       0.000000  0.000000  0.000000 -0.000000  0.000000  0.000000
  0O   2dx2y2     0.000223  0.000080 -0.000030 -0.001445 -0.001999 -0.004171
  0O   2dxy      -0.000402 -0.000109 -0.000671 -0.005073  0.007200 -0.024204
  0O   3dz2       0.000064  0.000209  0.000087 -0.004430 -0.001262  0.002634
  0O   3dxz       0.000000  0.000000  0.000000  0.000000  0.000000 -0.000000
  0O   3dyz       0.000000  0.000000 -0.000000  0.000000  0.000000  0.000000
  0O   3dx2y2    -0.000279  0.000139  0.000617  0.000966 -0.001486  0.000195
  0O   3dxy       0.000090  0.000222 -0.000421  0.002155  0.003069 -0.006170
  0O   1f0       -0.000000 -0.000000  0.000000 -0.000000  0.000000  0.000000
  0O   1f+1       0.000030  0.000017  0.000036  0.001659 -0.001029  0.000899
  0O   1f-1       0.000045  0.000002  0.000040  0.000263 -0.000136  0.002781
  0O   1f+2      -0.000000  0.000000 -0.000000 -0.000000  0.000000  0.000000
  0O   1f-2       0.000000 -0.000000 -0.000000 -0.000000  0.000000 -0.000000
  0O   1f+3       0.000015  0.000001 -0.000007 -0.001497  0.001740 -0.001726
  0O   1f-3      -0.000010  0.000028  0.000060  0.001958 -0.001565 -0.000042
  0O   2f0        0.000000 -0.000000 -0.000000 -0.000000  0.000000  0.000000
  0O   2f+1       0.000083 -0.000067  0.000109  0.000797 -0.001104  0.000757
  0O   2f-1      -0.000100  0.000002  0.000098  0.000249 -0.000750  0.001366
  0O   2f+2       0.000000  0.000000  0.000000 -0.000000  0.000000  0.000000
  0O   2f-2       0.000000  0.000000  0.000000  0.000000  0.000000  0.000000
  0O   2f+3      -0.000228 -0.000082  0.000006  0.000109  0.000507 -0.000184
  0O   2f-3       0.000301 -0.000006  0.000772  0.001782 -0.004099  0.005168
  1C   1s         0.000308 -0.000477  0.979442  0.013405  0.005688  0.004838
  1C   2s         0.000678 -0.001102  0.003002 -0.256380 -0.111542 -0.322795
  1C   3s        -0.000246 -0.000207  0.041505 -0.055347 -0.024965 -0.072785
  1C   4s         0.000135 -0.000006  0.008184 -0.127799 -0.039006 -0.226336
  1C   5s         0.000432  0.000471  0.000860 -0.008339  0.007871 -0.013483
  1C   1pz        0.000000  0.000000  0.000000  0.000000  0.000000 -0.000000
  1C   1px        0.000022 -0.000234 -0.000704 -0.012876 -0.127148  0.093227
  1C   1py        0.000009  0.000055 -0.000934  0.050493 -0.005813 -0.052531
  1C   2pz       -0.000000  0.000000 -0.000000 -0.000000 -0.000000  0.000000
  1C   2px       -0.002026 -0.002974  0.002286  0.001206 -0.106162  0.106957
  1C   2py       -0.001575  0.001282  0.000680  0.043102 -0.017641 -0.078847
  1C   3pz       -0.000000  0.000000 -0.000000 -0.000000 -0.000000  0.000000
  1C   3px        0.001011  0.000253 -0.001192  0.018804  0.016533  0.035478
  1C   3py       -0.001363 -0.000360  0.004474 -0.014576 -0.009040 -0.075545
  1C   4pz       -0.000000  0.000000 -0.000000 -0.000000 -0.000000 -0.000000
  1C   4px       -0.000203 -0.000202  0.000142 -0.000389 -0.000576 -0.001023
  1C   4py       -0.000132 -0.000132  0.000343  0.000240 -0.001545  0.001255
  1C   1dz2      -0.000153  0.000174 -0.001004  0.013039  0.004599  0.007823
  1C   1dxz       0.000000 -0.000000 -0.000000 -0.000000 -0.000000 -0.000000
  1C   1dyz       0.000000 -0.000000 -0.000000  0.000000  0.000000 -0.000000
  1C   1dx2y2     0.000047 -0.000349  0.000373 -0.007951 -0.010644  0.000148
  1C   1dxy       0.000307  0.000184 -0.000132 -0.003431  0.014644 -0.001939
  1C   2dz2      -0.000481  0.000229  0.000281  0.019784  0.004266  0.019655
  1C   2dxz      -0.000000  0.000000  0.000000 -0.000000 -0.000000  0.000000
  1C   2dyz       0.000000  0.000000  0.000000  0.000000  0.000000 -0.000000
  1C   2dx2y2     0.000032 -0.001162 -0.000029 -0.002872  0.000501  0.004092
  1C   2dxy       0.001514  0.000632 -0.000410 -0.006618  0.014067  0.013633
  1C   3dz2      -0.000126 -0.000121 -0.000183  0.000163 -0.001341  0.002166
  1C   3dxz      -0.000000  0.000000  0.000000  0.000000 -0.000000  0.000000
  1C   3dyz      -0.000000  0.000000  0.000000  0.000000 -0.000000  0.000000
  1C   3dx2y2    -0.000233  0.001053 -0.001361  0.017657  0.014836  0.001532
  1C   3dxy      -0.000134 -0.000682  0.000070 -0.003591 -0.010953  0.018345
  1C   1f0        0.000000 -0.000000  0.000000  0.000000  0.000000 -0.000000
  1C   1f+1       0.000169  0.000088 -0.000174 -0.000234  0.002314 -0.001896
  1C   1f-1       0.000116 -0.000039 -0.000053 -0.001429  0.000612  0.000402
  1C   1f+2      -0.000000  0.000000 -0.000000 -0.000000 -0.000000  0.000000
  1C   1f-2       0.000000 -0.000000  0.000000  0.000000  0.000000 -0.000000
  1C   1f+3      -0.000067 -0.000050 -0.000885  0.006470  0.004048  0.002203
  1C   1f-3       0.000134  0.000091  0.000774 -0.007826 -0.002526 -0.005577
  1C   2f0        0.000000  0.000000  0.000000  0.000000  0.000000 -0.000000
  1C   2f+1      -0.000040  0.000293 -0.000006 -0.002468 -0.000919 -0.004097
  1C   2f-1       0.000184 -0.000108 -0.000128  0.000712  0.000357  0.003979
  1C   2f+2      -0.000000 -0.000000  0.000000 -0.000000 -0.000000  0.000000
  1C   2f-2      -0.000000 -0.000000 -0.000000 -0.000000 -0.000000  0.000000
  1C   2f+3      -0.000629  0.000276  0.000771  0.000593 -0.003143  0.003241
  1C   2f-3       0.000255 -0.000465 -0.000802 -0.002630  0.005676 -0.007445
  2O   1s        -0.000314 -0.974972 -0.000251  0.006309  0.007629  0.001038
  2O   2s        -0.000067  0.002257  0.000375 -0.249034 -0.396972  0.139773
  2O   3s        -0.000041 -0.043668  0.000238 -0.063927 -0.102551  0.038201
  2O   4s         0.000140 -0.002068 -0.000811 -0.111947 -0.232767  0.143789
  2O   5s        -0.000298 -0.000513  0.000304 -0.009272 -0.032950  0.019812
  2O   1pz        0.000000  0.000000  0.000000 -0.000000 -0.000000 -0.000000
  2O   1px        0.000037  0.001923 -0.000389  0.049031  0.058033  0.038750
  2O   1py        0.000017 -0.000423  0.000114 -0.006856 -0.020494 -0.028862
  2O   2pz       -0.000000 -0.000000 -0.000000  0.000000  0.000000 -0.000000
  2O   2px       -0.000213 -0.002149  0.000467  0.061249  0.079708  0.041373
  2O   2py       -0.000060  0.000478 -0.000127 -0.008267 -0.027209 -0.036678
  2O   3pz        0.000000 -0.000000  0.000000  0.000000  0.000000 -0.000000
  2O   3px       -0.000785 -0.000471  0.001761 -0.003005  0.017053  0.007924
  2O   3py       -0.000203  0.000080 -0.000931  0.002734 -0.005158 -0.022768
  2O   4pz        0.000000 -0.000000  0.000000  0.000000  0.000000 -0.000000
  2O   4px        0.000175  0.000097 -0.000047 -0.001657  0.003116 -0.000998
  2O   4py        0.000106  0.000116 -0.000048 -0.001622  0.001859 -0.005229
  2O   1dz2      -0.000008  0.000172  0.000003  0.002539  0.003378  0.000402
  2O   1dxz       0.000000 -0.000000  0.000000  0.000000  0.000000 -0.000000
  2O   1dyz       0.000000 -0.000000  0.000000 -0.000000 -0.000000  0.000000
  2O   1dx2y2     0.000005 -0.000117  0.000017 -0.003946 -0.004541 -0.000770
  2O   1dxy       0.000007  0.000060 -0.000017  0.001420  0.003225  0.001579
  2O   2dz2      -0.000035 -0.000294  0.000315  0.005537  0.008952  0.000118
  2O   2dxz      -0.000000  0.000000 -0.000000 -0.000000 -0.000000  0.000000
  2O   2dyz       0.000000  0.000000  0.000000  0.000000  0.000000 -0.000000
  2O   2dx2y2     0.000053  0.000662 -0.000429 -0.008456 -0.013763  0.001633
  2O   2dxy      -0.000034 -0.000343  0.000365  0.003000  0.008615  0.003769
  2O   3dz2      -0.000209 -0.000097  0.000629 -0.004298 -0.002751 -0.000450
  2O   3dxz      -0.000000  0.000000 -0.000000 -0.000000 -0.000000  0.000000
  2O   3dyz       0.000000 -0.000000  0.000000  0.000000  0.000000 -0.000000
  2O   3dx2y2     0.000225  0.000117 -0.000371  0.005728  0.002435  0.002690
  2O   3dxy       0.000109 -0.000055  0.000458 -0.003297 -0.001770  0.002218
  2O   1f0       -0.000000  0.000000  0.000000  0.000000  0.000000 -0.000000
  2O   1f+1       0.000017  0.000038  0.000097 -0.001562 -0.001857 -0.000051
  2O   1f-1       0.000005 -0.000011 -0.000028  0.000296  0.000627  0.000230
  2O   1f+2       0.000000  0.000000  0.000000 -0.000000 -0.000000  0.000000
  2O   1f-2       0.000000 -0.000000  0.000000 -0.000000  0.000000 -0.000000
  2O   1f+3       0.000010  0.000004  0.000072 -0.001707 -0.001720  0.000311
  2O   1f-3       0.000010 -0.000004 -0.000053  0.000879  0.002235  0.000705
  2O   2f0       -0.000000  0.000000 -0.000000 -0.000000 -0.000000  0.000000
  2O   2f+1      -0.000045  0.000107 -0.000227 -0.000309 -0.001375 -0.000063
  2O   2f-1      -0.000049 -0.000030  0.000105 -0.000072  0.000040 -0.000195
  2O   2f+2       0.000000 -0.000000 -0.000000  0.000000  0.000000 -0.000000
  2O   2f-2      -0.000000  0.000000 -0.000000 -0.000000 -0.000000  0.000000
  2O   2f+3      -0.000071  0.000134 -0.000190 -0.000667 -0.002238  0.001355
  2O   2f-3      -0.000040 -0.000133  0.000289  0.000453  0.002116 -0.000498
  3H   1s         0.000496  0.000002 -0.000075 -0.060605  0.050472  0.105632
  3H   2s         0.002226  0.000685 -0.000058 -0.055059  0.041032  0.152246
  3H   3s        -0.000798  0.001405 -0.000939  0.036586  0.010696 -0.020401
  3H   4s        -0.000098 -0.000077  0.000218  0.002035 -0.002009 -0.003229
  3H   1pz        0.000000 -0.000000  0.000000  0.000000 -0.000000 -0.000000
  3H   1px       -0.000094 -0.000033 -0.000078  0.002452 -0.002689 -0.007385
  3H   1py        0.000178  0.000004 -0.000112 -0.009417  0.007353  0.010426
  3H   2pz        0.000000  0.000000 -0.000000 -0.000000  0.000000  0.000000
  3H   2px       -0.000470 -0.000140 -0.000990  0.000467  0.003025 -0.020568
  3H   2py        0.000889  0.000125 -0.000313 -0.010595  0.008912  0.017059
  3H   3pz        0.000000  0.000000 -0.000000 -0.000000  0.000000  0.000000
  3H   3px       -0.000300  0.000065 -0.000582  0.000262  0.005384 -0.001688
  3H   3py       -0.000098  0.000437 -0.000556  0.014684  0.006662 -0.013803
  3H   1dz2       0.000059  0.000006 -0.000036  0.000679 -0.000788 -0.002448
  3H   1dxz      -0.000000  0.000000 -0.000000  0.000000 -0.000000 -0.000000
  3H   1dyz       0.000000  0.000000 -0.000000 -0.000000  0.000000  0.000000
  3H   1dx2y2     0.000099 -0.000009  0.000128  0.001584 -0.001738 -0.001246
  3H   1dxy       0.000088 -0.000050 -0.000135  0.000844 -0.000180 -0.004631
  3H   2dz2      -0.000078  0.000016 -0.000012  0.000251 -0.000328  0.000954
  3H   2dxz      -0.000000 -0.000000  0.000000  0.000000 -0.000000 -0.000000
  3H   2dyz       0.000000  0.000000 -0.000000 -0.000000  0.000000  0.000000
  3H   2dx2y2    -0.000235 -0.000021  0.000107  0.000518 -0.001948  0.002543
  3H   2dxy      -0.000347 -0.000019 -0.000262 -0.000421  0.002633 -0.004453
  4H   1s        -0.000011 -0.000029  0.000184 -0.015436 -0.003973 -0.100032
  4H   2s         0.000419 -0.001112 -0.000266  0.016210  0.014825 -0.082766
  4H   3s         0.001239  0.000872 -0.009298  0.070995  0.034622  0.084621
  4H   4s         0.000035  0.000019 -0.000497  0.002466  0.001253  0.003672
  4H   1pz        0.000000  0.000000  0.000000  0.000000 -0.000000  0.000000
  4H   1px       -0.000001 -0.000045 -0.000169  0.000201 -0.000824 -0.002172
  4H   1py       -0.000013  0.000068  0.000297  0.000844 -0.001034  0.010284
  4H   2pz       -0.000000 -0.000000 -0.000000 -0.000000  0.000000  0.000000
  4H   2px        0.000055 -0.000218 -0.000248  0.006811  0.002513  0.002099
  4H   2py       -0.000252  0.000679  0.000543 -0.012471 -0.011790 -0.003614
  4H   3pz        0.000000 -0.000000 -0.000000 -0.000000  0.000000 -0.000000
  4H   3px        0.000088  0.000742 -0.001317  0.014201  0.013852 -0.000794
  4H   3py       -0.000471  0.000133  0.002067 -0.017270 -0.007249 -0.030088
  4H   1dz2      -0.000007  0.000019  0.000091 -0.000300 -0.000524  0.001258
  4H   1dxz      -0.000000 -0.000000 -0.000000 -0.000000 -0.000000  0.000000
  4H   1dyz       0.000000  0.000000 -0.000000  0.000000 -0.000000 -0.000000
  4H   1dx2y2     0.000017  0.000053  0.000176 -0.000488 -0.001661  0.002317
  4H   1dxy      -0.000041  0.000036  0.000268 -0.001306 -0.000075  0.000314
  4H   2dz2      -0.000053  0.000170  0.000253 -0.003301 -0.002471 -0.002531
  4H   2dxz       0.000000 -0.000000  0.000000 -0.000000  0.000000 -0.000000
  4H   2dyz       0.000000  0.000000  0.000000  0.000000 -0.000000  0.000000
  4H   2dx2y2     0.000041  0.000008 -0.000034 -0.002136  0.000019 -0.001841
  4H   2dxy      -0.000027  0.000015  0.000041 -0.002156 -0.003059  0.000819
                      6         7         8         9        10        11   
                  -0.72881  -0.71516  -0.64192  -0.60578  -0.49905  -0.47469
                   2.00000   2.00000   2.00000   2.00000   2.00000   2.00000
                  --------  --------  --------  --------  --------  --------
  0O   1s         0.001394  0.001836  0.000000  0.003114  0.000000  0.000748
  0O   2s         0.093327  0.102238 -0.000000  0.134567 -0.000000  0.033865
  0O   3s         0.028465  0.027323 -0.000000  0.039693  0.000000  0.007491
  0O   4s         0.165267  0.181165 -0.000000  0.233138  0.000000  0.008084
  0O   5s         0.083947  0.042423 -0.000000  0.071585  0.000000 -0.008765
  0O   1pz        0.000000 -0.000000  0.257692  0.000000  0.225988  0.000000
  0O   1px       -0.185594 -0.092426  0.000000 -0.206362 -0.000000  0.120993
  0O   1py       -0.085045  0.155145 -0.000000  0.111427 -0.000000  0.051189
  0O   2pz        0.000000 -0.000000  0.331960  0.000000  0.290502  0.000000
  0O   2px       -0.232481 -0.108821  0.000000 -0.258929 -0.000000  0.156279
  0O   2py       -0.106364  0.191933 -0.000000  0.132074 -0.000000  0.066720
  0O   3pz        0.000000 -0.000000  0.215940  0.000000  0.220264  0.000000
  0O   3px       -0.129428 -0.049923  0.000000 -0.149658 -0.000000  0.098804
  0O   3py       -0.054308  0.081568  0.000000  0.056155  0.000000  0.056951
  0O   4pz        0.000000  0.000000  0.011701  0.000000  0.031804  0.000000
  0O   4px        0.003620 -0.004897 -0.000000 -0.010228  0.000000  0.013078
  0O   4py        0.011628  0.004511 -0.000000  0.005535 -0.000000  0.009731
  0O   1dz2       0.003028  0.002238 -0.000000  0.004487  0.000000 -0.001188
  0O   1dxz      -0.000000 -0.000000  0.005987  0.000000  0.002521  0.000000
  0O   1dyz       0.000000 -0.000000  0.000875  0.000000 -0.001158 -0.000000
  0O   1dx2y2    -0.005754  0.000820  0.000000  0.000886 -0.000000  0.002814
  0O   1dxy      -0.004561  0.005039  0.000000  0.002670 -0.000000  0.002088
  0O   2dz2       0.006593  0.000814  0.000000  0.008547  0.000000 -0.003802
  0O   2dxz       0.000000  0.000000  0.018318  0.000000  0.008379  0.000000
  0O   2dyz       0.000000 -0.000000  0.005941  0.000000 -0.000999 -0.000000
  0O   2dx2y2    -0.021955 -0.003698  0.000000 -0.002994  0.000000  0.004983
  0O   2dxy      -0.013834  0.016662  0.000000  0.003099  0.000000  0.007739
  0O   3dz2       0.000006 -0.008382  0.000000 -0.002508  0.000000 -0.001176
  0O   3dxz       0.000000  0.000000  0.006053  0.000000  0.001075  0.000000
  0O   3dyz       0.000000 -0.000000  0.003647  0.000000 -0.000363  0.000000
  0O   3dx2y2    -0.012821 -0.008689  0.000000 -0.003747  0.000000 -0.000894
  0O   3dxy      -0.008035 -0.002715  0.000000 -0.004931  0.000000  0.006818
  0O   1f0       -0.000000  0.000000 -0.003740  0.000000 -0.001944 -0.000000
  0O   1f+1       0.002401  0.000296 -0.000000  0.001570  0.000000 -0.000862
  0O   1f-1       0.001367 -0.001764  0.000000 -0.000455  0.000000 -0.000548
  0O   1f+2       0.000000 -0.000000 -0.000576  0.000000 -0.000990 -0.000000
  0O   1f-2       0.000000  0.000000  0.002189  0.000000  0.000524 -0.000000
  0O   1f+3      -0.000270  0.000782  0.000000 -0.001573 -0.000000  0.000997
  0O   1f-3       0.002019  0.000423  0.000000  0.001291  0.000000 -0.000698
  0O   2f0       -0.000000 -0.000000 -0.001085 -0.000000 -0.001751 -0.000000
  0O   2f+1       0.002336 -0.000128  0.000000  0.000299  0.000000 -0.000883
  0O   2f-1       0.002834 -0.000696 -0.000000 -0.000121 -0.000000 -0.001711
  0O   2f+2      -0.000000 -0.000000  0.002333  0.000000 -0.001103 -0.000000
  0O   2f-2       0.000000 -0.000000  0.002139  0.000000  0.000998  0.000000
  0O   2f+3       0.003660  0.001906 -0.000000  0.000426 -0.000000  0.001833
  0O   2f-3       0.003850 -0.004156 -0.000000  0.001246  0.000000 -0.001213
  1C   1s         0.001759  0.000078  0.000000 -0.000627  0.000000 -0.001214
  1C   2s         0.001882 -0.189277 -0.000000 -0.017785  0.000000 -0.035116
  1C   3s         0.000623 -0.043666 -0.000000 -0.002210  0.000000 -0.007362
  1C   4s         0.048663 -0.120513 -0.000000 -0.134183 -0.000000 -0.091345
  1C   5s        -0.029339 -0.022180  0.000000 -0.018846  0.000000 -0.018639
  1C   1pz        0.000000 -0.000000  0.152765  0.000000 -0.092105 -0.000000
  1C   1px        0.033871 -0.121007 -0.000000  0.136520  0.000000  0.010146
  1C   1py        0.205406 -0.012635  0.000000 -0.080658  0.000000 -0.056644
  1C   2pz       -0.000000 -0.000000  0.201669  0.000000 -0.120013 -0.000000
  1C   2px        0.029021 -0.121106  0.000000  0.154837 -0.000000  0.020738
  1C   2py        0.261012 -0.017889 -0.000000 -0.094445  0.000000 -0.077223
  1C   3pz       -0.000000  0.000000  0.072392  0.000000 -0.064039 -0.000000
  1C   3px       -0.003823 -0.013003  0.000000  0.051140  0.000000  0.017803
  1C   3py        0.080210 -0.021072 -0.000000 -0.103490 -0.000000 -0.086805
  1C   4pz       -0.000000  0.000000  0.001356  0.000000 -0.004378 -0.000000
  1C   4px        0.000605  0.002542  0.000000  0.004955 -0.000000 -0.001966
  1C   4py       -0.004421  0.004707  0.000000  0.001554 -0.000000 -0.011233
  1C   1dz2       0.002189  0.003973 -0.000000 -0.001962  0.000000 -0.001619
  1C   1dxz      -0.000000 -0.000000  0.001614  0.000000 -0.027417 -0.000000
  1C   1dyz       0.000000  0.000000 -0.011850 -0.000000 -0.001584 -0.000000
  1C   1dx2y2    -0.000355  0.002752 -0.000000  0.021722 -0.000000  0.016772
  1C   1dxy      -0.006230  0.008582  0.000000 -0.005169 -0.000000  0.032238
  1C   2dz2       0.003600  0.009080 -0.000000  0.004808  0.000000 -0.003086
  1C   2dxz      -0.000000  0.000000 -0.002370  0.000000 -0.052686 -0.000000
  1C   2dyz      -0.000000  0.000000 -0.018399 -0.000000 -0.007147 -0.000000
  1C   2dx2y2    -0.021511  0.019517  0.000000  0.036616 -0.000000  0.030072
  1C   2dxy      -0.030659  0.003737  0.000000 -0.001393 -0.000000  0.062098
  1C   3dz2      -0.002831  0.004257 -0.000000  0.005598  0.000000 -0.000405
  1C   3dxz      -0.000000  0.000000 -0.001638  0.000000 -0.007047 -0.000000
  1C   3dyz       0.000000  0.000000  0.009155 -0.000000 -0.003371  0.000000
  1C   3dx2y2    -0.029768 -0.000954  0.000000  0.012120  0.000000  0.000115
  1C   3dxy      -0.018082  0.009510  0.000000  0.016504 -0.000000  0.025945
  1C   1f0        0.000000  0.000000 -0.007131 -0.000000  0.001554  0.000000
  1C   1f+1      -0.000339  0.002770 -0.000000 -0.001990  0.000000 -0.000530
  1C   1f-1      -0.003649 -0.000075  0.000000  0.000567 -0.000000  0.000322
  1C   1f+2       0.000000 -0.000000  0.004191  0.000000 -0.003963 -0.000000
  1C   1f-2       0.000000  0.000000  0.002937 -0.000000  0.006559  0.000000
  1C   1f+3      -0.001094  0.007595  0.000000  0.000967  0.000000 -0.008126
  1C   1f-3      -0.006138 -0.000924 -0.000000  0.005972  0.000000 -0.004974
  1C   2f0        0.000000 -0.000000 -0.003730 -0.000000  0.000442  0.000000
  1C   2f+1      -0.000979 -0.000957  0.000000  0.000576 -0.000000  0.001009
  1C   2f-1      -0.002041  0.000941  0.000000  0.002669  0.000000  0.000096
  1C   2f+2       0.000000  0.000000  0.006475 -0.000000 -0.002415 -0.000000
  1C   2f-2      -0.000000 -0.000000  0.005634  0.000000  0.011917  0.000000
  1C   2f+3      -0.009540  0.004370 -0.000000  0.017042  0.000000 -0.011553
  1C   2f-3      -0.005790  0.006578 -0.000000 -0.002544  0.000000 -0.007827
  2O   1s         0.000861  0.003333  0.000000 -0.002225  0.000000  0.000022
  2O   2s         0.021608  0.225709  0.000000 -0.074774 -0.000000  0.006410
  2O   3s         0.005867  0.065043  0.000000 -0.022705 -0.000000  0.002213
  2O   4s         0.042206  0.260698 -0.000000 -0.123494  0.000000 -0.002417
  2O   5s         0.034565  0.047971 -0.000000 -0.045010 -0.000000 -0.003924
  2O   1pz        0.000000 -0.000000  0.145961  0.000000 -0.253442 -0.000000
  2O   1px        0.057621  0.209146  0.000000 -0.188968 -0.000000  0.073627
  2O   1py        0.133492 -0.067282 -0.000000  0.034310 -0.000000  0.310148
  2O   2pz        0.000000 -0.000000  0.187998  0.000000 -0.326238 -0.000000
  2O   2px        0.067002  0.254646  0.000000 -0.231755 -0.000000  0.095331
  2O   2py        0.169396 -0.080652 -0.000000  0.042829 -0.000000  0.390361
  2O   3pz        0.000000 -0.000000  0.124731  0.000000 -0.240148 -0.000000
  2O   3px        0.034046  0.140412  0.000000 -0.129595 -0.000000  0.078444
  2O   3py        0.118950 -0.042173 -0.000000  0.030424 -0.000000  0.301154
  2O   4pz        0.000000  0.000000  0.006323 -0.000000 -0.028553 -0.000000
  2O   4px       -0.000450  0.004016  0.000000 -0.002965  0.000000  0.013086
  2O   4py        0.016485 -0.005164 -0.000000 -0.006087 -0.000000  0.043762
  2O   1dz2       0.000465  0.004547  0.000000 -0.003711 -0.000000 -0.000081
  2O   1dxz      -0.000000  0.000000 -0.006639 -0.000000  0.007864  0.000000
  2O   1dyz       0.000000  0.000000  0.001556  0.000000 -0.002104 -0.000000
  2O   1dx2y2    -0.003778 -0.006721 -0.000000  0.006739  0.000000 -0.002184
  2O   1dxy      -0.005206  0.004470  0.000000 -0.002823  0.000000 -0.005083
  2O   2dz2       0.000835  0.009374  0.000000 -0.007982 -0.000000 -0.000030
  2O   2dxz      -0.000000  0.000000 -0.018200 -0.000000  0.023100  0.000000
  2O   2dyz       0.000000  0.000000  0.003424 -0.000000 -0.007068 -0.000000
  2O   2dx2y2    -0.008907 -0.016501 -0.000000  0.015822  0.000000 -0.006389
  2O   2dxy      -0.015656  0.009188  0.000000 -0.007287 -0.000000 -0.012817
  2O   3dz2      -0.001168  0.002259  0.000000 -0.001187  0.000000  0.002024
  2O   3dxz       0.000000  0.000000 -0.008386  0.000000  0.010029  0.000000
  2O   3dyz       0.000000  0.000000 -0.002524 -0.000000 -0.003352 -0.000000
  2O   3dx2y2    -0.002203 -0.007875 -0.000000  0.003745 -0.000000 -0.002543
  2O   3dxy      -0.009626  0.002647  0.000000 -0.003504 -0.000000 -0.008905
  2O   1f0       -0.000000  0.000000 -0.002085 -0.000000  0.001947  0.000000
  2O   1f+1      -0.000380 -0.001746 -0.000000  0.001377  0.000000  0.000184
  2O   1f-1      -0.000540  0.000478 -0.000000 -0.000320  0.000000  0.000224
  2O   1f+2       0.000000 -0.000000  0.002861  0.000000 -0.003410 -0.000000
  2O   1f-2      -0.000000 -0.000000 -0.001487 -0.000000  0.002156  0.000000
  2O   1f+3      -0.002987 -0.001919 -0.000000  0.002312  0.000000 -0.002090
  2O   1f-3      -0.002705  0.002353  0.000000 -0.001623  0.000000 -0.002278
  2O   2f0        0.000000 -0.000000 -0.000363  0.000000  0.002544  0.000000
  2O   2f+1      -0.000777 -0.001948 -0.000000  0.001947  0.000000  0.000087
  2O   2f-1      -0.000239  0.000377 -0.000000 -0.000796  0.000000 -0.001032
  2O   2f+2      -0.000000 -0.000000  0.002553 -0.000000 -0.001958 -0.000000
  2O   2f-2      -0.000000 -0.000000  0.000518  0.000000  0.002000  0.000000
  2O   2f+3      -0.002035 -0.003341 -0.000000  0.002479 -0.000000 -0.001531
  2O   2f-3      -0.002615  0.002569  0.000000 -0.002426 -0.000000 -0.002171
  3H   1s         0.026573 -0.087564  0.000000 -0.088698 -0.000000 -0.009200
  3H   2s         0.007594 -0.176796  0.000000 -0.185768  0.000000 -0.009343
  3H   3s        -0.036629 -0.041207  0.000000 -0.088022 -0.000000 -0.033733
  3H   4s         0.000448  0.003106  0.000000 -0.000208 -0.000000 -0.000001
  3H   1pz        0.000000  0.000000  0.007550  0.000000  0.006494  0.000000
  3H   1px       -0.006730  0.002631 -0.000000 -0.000726 -0.000000  0.002661
  3H   1py        0.000360 -0.008452  0.000000 -0.008739  0.000000  0.001466
  3H   2pz        0.000000 -0.000000  0.024176  0.000000  0.017590  0.000000
  3H   2px       -0.014598  0.014940 -0.000000 -0.001538 -0.000000  0.006412
  3H   2py       -0.012383 -0.024141  0.000000 -0.032201  0.000000  0.006273
  3H   3pz       -0.000000 -0.000000  0.012706 -0.000000  0.006815  0.000000
  3H   3px       -0.010753  0.005036  0.000000 -0.002750 -0.000000 -0.003047
  3H   3py       -0.016908  0.000566  0.000000 -0.015113 -0.000000 -0.007969
  3H   1dz2      -0.000901  0.001951 -0.000000  0.002089 -0.000000  0.000047
  3H   1dxz      -0.000000  0.000000 -0.001621 -0.000000 -0.001214 -0.000000
  3H   1dyz       0.000000 -0.000000  0.003628  0.000000  0.002736  0.000000
  3H   1dx2y2     0.001170  0.001996 -0.000000  0.004012  0.000000 -0.001248
  3H   1dxy      -0.002391  0.003080 -0.000000  0.000665 -0.000000  0.001510
  3H   2dz2       0.000728 -0.001887  0.000000  0.000133  0.000000  0.000379
  3H   2dxz       0.000000  0.000000 -0.002312 -0.000000 -0.002311 -0.000000
  3H   2dyz      -0.000000 -0.000000  0.007671 -0.000000  0.003631  0.000000
  3H   2dx2y2     0.004661 -0.000452 -0.000000  0.002474  0.000000 -0.002394
  3H   2dxy      -0.004500  0.002832 -0.000000 -0.001952 -0.000000  0.003307
  4H   1s         0.102854 -0.030779  0.000000 -0.088418  0.000000 -0.090155
  4H   2s         0.108861 -0.023758  0.000000 -0.105976  0.000000 -0.133690
  4H   3s        -0.029970  0.018641  0.000000  0.054752  0.000000 -0.012458
  4H   4s         0.004882 -0.000751 -0.000000  0.001125  0.000000  0.002534
  4H   1pz       -0.000000  0.000000  0.002564  0.000000 -0.001523 -0.000000
  4H   1px        0.005214 -0.002496 -0.000000 -0.002746  0.000000 -0.000825
  4H   1py       -0.009405  0.000690 -0.000000  0.007798 -0.000000  0.006311
  4H   2pz        0.000000 -0.000000  0.009422  0.000000 -0.001020 -0.000000
  4H   2px        0.007066 -0.001240  0.000000 -0.002745 -0.000000  0.005799
  4H   2py        0.006368 -0.004861 -0.000000  0.008111  0.000000  0.004733
  4H   3pz       -0.000000 -0.000000 -0.007740  0.000000  0.004355 -0.000000
  4H   3px       -0.002971 -0.001548  0.000000  0.005662  0.000000  0.002313
  4H   3py        0.010033 -0.007395 -0.000000 -0.018497 -0.000000 -0.016286
  4H   1dz2      -0.001199  0.000069 -0.000000  0.000977  0.000000 -0.000147
  4H   1dxz       0.000000 -0.000000  0.000640 -0.000000 -0.000687 -0.000000
  4H   1dyz      -0.000000  0.000000 -0.001199 -0.000000  0.000219  0.000000
  4H   1dx2y2    -0.000445 -0.001428 -0.000000  0.001938 -0.000000  0.001551
  4H   1dxy      -0.003400  0.000915 -0.000000  0.001548  0.000000 -0.000628
  4H   2dz2       0.000239 -0.001089 -0.000000  0.003837  0.000000  0.001506
  4H   2dxz       0.000000  0.000000 -0.000011 -0.000000 -0.002465 -0.000000
  4H   2dyz       0.000000  0.000000  0.000782 -0.000000 -0.001638  0.000000
  4H   2dx2y2     0.003972  0.001698 -0.000000 -0.000595  0.000000  0.000587
  4H   2dxy       0.001582 -0.002523 -0.000000  0.000199  0.000000  0.000872
                     12        13        14        15        16        17   
                   0.02942   0.03740   0.07424   0.08046   0.10721   0.13436
                   0.00000   0.00000   0.00000   0.00000   0.00000   0.00000
                  --------  --------  --------  --------  --------  --------
  0O   1s         0.004014 -0.002083 -0.000000 -0.005448  0.007131 -0.002552
  0O   2s         0.042992 -0.027065 -0.000000  0.014528 -0.039085  0.021460
  0O   3s         0.012815 -0.007691  0.000000  0.002257 -0.006515  0.005961
  0O   4s        -0.088958 -0.097854 -0.000000  0.579342 -1.277125  0.387864
  0O   5s        -1.043900  0.222005 -0.000000  2.936272 -7.922073  2.680325
  0O   1pz       -0.000000  0.000000  0.041421  0.000000 -0.000000 -0.000000
  0O   1px       -0.003167 -0.008158 -0.000000 -0.024720 -0.004402 -0.010727
  0O   1py       -0.023209  0.017051 -0.000000  0.006402  0.008766 -0.012500
  0O   2pz       -0.000000  0.000000  0.056530  0.000000 -0.000000 -0.000000
  0O   2px       -0.007505 -0.017139 -0.000000 -0.017817 -0.040095 -0.003317
  0O   2py       -0.042550  0.031343  0.000000 -0.005211  0.031920 -0.013103
  0O   3pz       -0.000000 -0.000000  0.068022  0.000000  0.000000  0.000000
  0O   3px       -0.165760 -0.007751 -0.000000  0.211120 -0.473971  0.292433
  0O   3py       -0.348317  0.075503  0.000000  0.205273  0.251597  0.794867
  0O   4pz       -0.000000 -0.000000  0.691599  0.000000  0.000000  0.000000
  0O   4px       -0.341755  0.199287 -0.000000  0.226988 -1.250422  0.439575
  0O   4py       -0.811674  0.502624 -0.000000  0.560888 -0.126722  1.669177
  0O   1dz2       0.000005  0.000106 -0.000000  0.001856 -0.000004 -0.001332
  0O   1dxz      -0.000000  0.000000  0.001044 -0.000000 -0.000000  0.000000
  0O   1dyz      -0.000000 -0.000000 -0.000416  0.000000  0.000000  0.000000
  0O   1dx2y2    -0.000371 -0.000549 -0.000000 -0.000873 -0.000908 -0.001445
  0O   1dxy       0.000270  0.000133 -0.000000 -0.000995  0.000387 -0.000705
  0O   2dz2      -0.001620 -0.000626  0.000000 -0.016044  0.023832  0.000407
  0O   2dxz       0.000000 -0.000000 -0.003273  0.000000  0.000000 -0.000000
  0O   2dyz       0.000000  0.000000 -0.003981 -0.000000 -0.000000 -0.000000
  0O   2dx2y2    -0.005601 -0.002492  0.000000  0.000743  0.017517 -0.001809
  0O   2dxy      -0.012266  0.009191  0.000000  0.007209 -0.000119  0.016546
  0O   3dz2       0.015045  0.000043  0.000000 -0.003169  0.110193 -0.062778
  0O   3dxz      -0.000000 -0.000000  0.030729 -0.000000  0.000000  0.000000
  0O   3dyz       0.000000  0.000000 -0.059758 -0.000000 -0.000000 -0.000000
  0O   3dx2y2    -0.023250  0.003309  0.000000 -0.038761  0.111963 -0.005248
  0O   3dxy      -0.061246 -0.008422  0.000000  0.069061  0.067314  0.243252
  0O   1f0       -0.000000 -0.000000 -0.000162 -0.000000  0.000000  0.000000
  0O   1f+1       0.000346  0.000368  0.000000 -0.000634  0.001016 -0.000538
  0O   1f-1       0.000290 -0.000616  0.000000  0.000652  0.000621  0.001053
  0O   1f+2      -0.000000 -0.000000 -0.000742  0.000000  0.000000  0.000000
  0O   1f-2       0.000000 -0.000000  0.000788  0.000000  0.000000  0.000000
  0O   1f+3       0.000485  0.000148  0.000000  0.000224 -0.000561 -0.000673
  0O   1f-3       0.000553  0.000314 -0.000000 -0.000292  0.001336 -0.000964
  0O   2f0        0.000000  0.000000 -0.000757 -0.000000 -0.000000 -0.000000
  0O   2f+1      -0.000349 -0.002042 -0.000000 -0.001126  0.004244 -0.000326
  0O   2f-1       0.003561  0.001188 -0.000000 -0.005725 -0.010607 -0.016520
  0O   2f+2       0.000000  0.000000  0.004012 -0.000000 -0.000000 -0.000000
  0O   2f-2       0.000000  0.000000 -0.006359 -0.000000 -0.000000 -0.000000
  0O   2f+3      -0.003714  0.001431 -0.000000  0.007169 -0.015841  0.015637
  0O   2f-3      -0.001489 -0.003731  0.000000 -0.005730  0.007180  0.004589
  1C   1s         0.000449  0.002180 -0.000000  0.004271 -0.002410  0.001095
  1C   2s         0.015584  0.038611 -0.000000  0.016415  0.015177  0.074725
  1C   3s        -0.012095  0.004502 -0.000000 -0.000635 -0.031428  0.059698
  1C   4s         2.046794  1.726539 -0.000000  0.366024  2.295988 -6.113446
  1C   5s         4.972801  1.705391  0.000000 -0.139107  7.750833-12.132318
  1C   1pz        0.000000 -0.000000 -0.011774  0.000000  0.000000  0.000000
  1C   1px       -0.002631 -0.013014 -0.000000  0.001180 -0.004795 -0.015475
  1C   1py        0.025940  0.017918  0.000000  0.006492  0.014355  0.061612
  1C   2pz        0.000000  0.000000 -0.031681  0.000000  0.000000 -0.000000
  1C   2px       -0.009925  0.012911 -0.000000  0.195529  0.014981 -0.015900
  1C   2py        0.023238  0.078764  0.000000  0.046265 -0.045674  0.114678
  1C   3pz        0.000000  0.000000 -0.226405  0.000000  0.000000 -0.000000
  1C   3px       -0.080363 -0.136562  0.000000  1.638533  0.145446  0.424579
  1C   3py        0.043533  1.181742 -0.000000 -0.094313 -1.642025 -1.650174
  1C   4pz        0.000000  0.000000 -2.038804 -0.000000  0.000000 -0.000000
  1C   4px       -0.313742  0.036277 -0.000000  2.421521 -0.664657  0.719399
  1C   4py        0.037186  1.640026 -0.000000  0.019762 -4.782814 -2.733677
  1C   1dz2       0.000329  0.000959  0.000000  0.000274  0.007195 -0.005136
  1C   1dxz       0.000000 -0.000000  0.002612  0.000000  0.000000 -0.000000
  1C   1dyz       0.000000  0.000000 -0.001516  0.000000 -0.000000  0.000000
  1C   1dx2y2    -0.002142  0.001254 -0.000000  0.003384  0.002512  0.001726
  1C   1dxy      -0.002238 -0.001339 -0.000000 -0.003397  0.000018 -0.002381
  1C   2dz2      -0.085925 -0.044608  0.000000 -0.021163 -0.128204  0.206583
  1C   2dxz       0.000000  0.000000  0.018419  0.000000 -0.000000 -0.000000
  1C   2dyz       0.000000 -0.000000 -0.048781 -0.000000  0.000000 -0.000000
  1C   2dx2y2     0.024835 -0.020147 -0.000000  0.046461  0.078310 -0.045333
  1C   2dxy       0.009918 -0.038360 -0.000000 -0.077729 -0.037743  0.059541
  1C   3dz2      -0.209462 -0.105803  0.000000 -0.038828 -0.242954  0.529845
  1C   3dxz       0.000000  0.000000  0.002514  0.000000  0.000000 -0.000000
  1C   3dyz       0.000000 -0.000000 -0.045427 -0.000000  0.000000 -0.000000
  1C   3dx2y2     0.118780 -0.278953  0.000000  0.168950  0.848635 -0.033623
  1C   3dxy       0.021950 -0.125008 -0.000000 -0.235332 -0.255901  0.607500
  1C   1f0        0.000000 -0.000000 -0.003350 -0.000000  0.000000  0.000000
  1C   1f+1       0.000548 -0.000074  0.000000 -0.004344 -0.002511 -0.000054
  1C   1f-1       0.000498 -0.000602 -0.000000 -0.000167 -0.001149 -0.002106
  1C   1f+2       0.000000  0.000000  0.001172  0.000000 -0.000000 -0.000000
  1C   1f-2      -0.000000 -0.000000  0.001414  0.000000 -0.000000  0.000000
  1C   1f+3      -0.003957 -0.001730  0.000000 -0.002050 -0.003722  0.007527
  1C   1f-3       0.003715  0.001060 -0.000000  0.002975  0.007841 -0.009702
  1C   2f0       -0.000000  0.000000 -0.003544 -0.000000 -0.000000  0.000000
  1C   2f+1       0.000848  0.004339 -0.000000 -0.031039  0.021331 -0.005147
  1C   2f-1      -0.008487 -0.029967  0.000000  0.006032  0.030163  0.070786
  1C   2f+2      -0.000000  0.000000  0.044781  0.000000 -0.000000 -0.000000
  1C   2f-2      -0.000000 -0.000000  0.005922  0.000000 -0.000000  0.000000
  1C   2f+3      -0.027486 -0.034342 -0.000000 -0.015135 -0.063112  0.030799
  1C   2f-3       0.051042  0.001009  0.000000 -0.022895  0.082011 -0.153658
  2O   1s         0.000459  0.000344 -0.000000  0.004515 -0.000838  0.001837
  2O   2s         0.019045 -0.002180  0.000000 -0.033672 -0.037782  0.028081
  2O   3s         0.005959 -0.000181  0.000000 -0.006950 -0.009671  0.006839
  2O   4s        -0.309684 -0.077256 -0.000000 -0.761075 -0.895471  0.835441
  2O   5s        -1.534811 -0.184183 -0.000000 -3.230850 -4.551138  4.135480
  2O   1pz        0.000000 -0.000000  0.050863  0.000000  0.000000 -0.000000
  2O   1px        0.002694  0.004550  0.000000 -0.018644  0.000595  0.008183
  2O   1py       -0.018745  0.007346 -0.000000 -0.009032  0.024953 -0.003634
  2O   2pz        0.000000 -0.000000  0.068056  0.000000  0.000000 -0.000000
  2O   2px        0.017030  0.009127  0.000000  0.008651  0.039202 -0.028759
  2O   2py       -0.025506  0.008264 -0.000000 -0.021330  0.022272 -0.004583
  2O   3pz       -0.000000 -0.000000 -0.003253 -0.000000  0.000000  0.000000
  2O   3px        0.167628  0.107787 -0.000000  0.324906  0.397099 -0.497534
  2O   3py       -0.092463 -0.097680  0.000000 -0.137766  0.064535  0.082549
  2O   4pz       -0.000000 -0.000000  0.789778  0.000000 -0.000000  0.000000
  2O   4px        0.379175  0.119608  0.000000  0.106288  0.829241 -0.925749
  2O   4py       -0.230452 -0.146733  0.000000 -0.235331  0.617725  0.396419
  2O   1dz2       0.000379  0.000371  0.000000 -0.001988  0.000545 -0.001493
  2O   1dxz       0.000000  0.000000 -0.001916  0.000000 -0.000000  0.000000
  2O   1dyz       0.000000  0.000000  0.000517  0.000000 -0.000000 -0.000000
  2O   1dx2y2    -0.000019 -0.000059 -0.000000  0.001362  0.000036 -0.001576
  2O   1dxy      -0.000546 -0.000621  0.000000 -0.000485 -0.001179 -0.001490
  2O   2dz2      -0.001037 -0.001220 -0.000000  0.022339  0.009681 -0.001014
  2O   2dxz       0.000000  0.000000  0.009840 -0.000000 -0.000000 -0.000000
  2O   2dyz       0.000000 -0.000000 -0.005541 -0.000000  0.000000  0.000000
  2O   2dx2y2    -0.004371 -0.005286  0.000000 -0.021792 -0.015169  0.021934
  2O   2dxy       0.004292  0.000343 -0.000000  0.008905  0.007915 -0.009289
  2O   3dz2       0.012608  0.032180 -0.000000 -0.022881 -0.025642 -0.055025
  2O   3dxz       0.000000  0.000000 -0.024729  0.000000 -0.000000 -0.000000
  2O   3dyz      -0.000000 -0.000000 -0.003073  0.000000  0.000000  0.000000
  2O   3dx2y2    -0.006874 -0.008547 -0.000000  0.017472 -0.078167  0.044913
  2O   3dxy       0.019633  0.065780 -0.000000  0.035046 -0.080973 -0.064708
  2O   1f0       -0.000000 -0.000000  0.000231 -0.000000 -0.000000  0.000000
  2O   1f+1      -0.000371  0.000030  0.000000 -0.001884 -0.001915  0.001161
  2O   1f-1      -0.000196 -0.000519  0.000000  0.000089  0.001128  0.000780
  2O   1f+2       0.000000 -0.000000  0.000034  0.000000  0.000000 -0.000000
  2O   1f-2      -0.000000 -0.000000 -0.000489  0.000000  0.000000  0.000000
  2O   1f+3      -0.000546 -0.000520  0.000000 -0.001502 -0.000229  0.000749
  2O   1f-3      -0.000005 -0.000722 -0.000000  0.000960  0.000716 -0.000299
  2O   2f0        0.000000  0.000000 -0.001505  0.000000 -0.000000 -0.000000
  2O   2f+1       0.002096 -0.001856  0.000000 -0.000254  0.006648 -0.004064
  2O   2f-1       0.001259  0.003662 -0.000000  0.001945 -0.006781 -0.007162
  2O   2f+2      -0.000000 -0.000000  0.001460 -0.000000  0.000000  0.000000
  2O   2f-2       0.000000  0.000000  0.003310 -0.000000 -0.000000 -0.000000
  2O   2f+3       0.002007  0.000102 -0.000000  0.001823 -0.009398 -0.000092
  2O   2f-3       0.002717  0.005413 -0.000000  0.002650 -0.004200 -0.006248
  3H   1s         0.000863  0.002515 -0.000000 -0.005469  0.005776  0.005766
  3H   2s        -0.105219  0.030316  0.000000 -0.028284  0.480579  0.282275
  3H   3s        -0.552677  0.410014  0.000000 -0.624667  3.051844  0.117984
  3H   4s        -1.813709  2.703131 -0.000000  0.185475 -3.751627 -0.335490
  3H   1pz       -0.000000 -0.000000  0.002237  0.000000  0.000000  0.000000
  3H   1px       -0.002349  0.000564 -0.000000  0.001491  0.000665  0.001389
  3H   1py        0.002433 -0.003413  0.000000  0.000103  0.000602  0.003146
  3H   2pz        0.000000  0.000000 -0.019430 -0.000000 -0.000000 -0.000000
  3H   2px        0.027936 -0.002233 -0.000000  0.014488 -0.075719 -0.061289
  3H   2py       -0.025284  0.023168  0.000000 -0.055848  0.152272  0.022915
  3H   3pz        0.000000  0.000000 -0.177399 -0.000000 -0.000000 -0.000000
  3H   3px        0.144626 -0.115979  0.000000 -0.033774 -0.161602 -0.216845
  3H   3py       -0.070903  0.089976  0.000000 -0.289808  0.818210 -0.395791
  3H   1dz2       0.000668 -0.000697 -0.000000  0.001370 -0.004877 -0.002260
  3H   1dxz      -0.000000 -0.000000 -0.001192  0.000000  0.000000  0.000000
  3H   1dyz       0.000000  0.000000  0.000437 -0.000000 -0.000000 -0.000000
  3H   1dx2y2     0.000840 -0.001419 -0.000000  0.003101 -0.005354 -0.000458
  3H   1dxy       0.000770 -0.000072 -0.000000  0.003634 -0.006445 -0.001770
  3H   2dz2       0.003630 -0.010439 -0.000000  0.026936 -0.010169  0.041165
  3H   2dxz      -0.000000 -0.000000  0.010188  0.000000  0.000000  0.000000
  3H   2dyz       0.000000  0.000000 -0.019479 -0.000000 -0.000000 -0.000000
  3H   2dx2y2    -0.003951 -0.011538 -0.000000  0.029605 -0.013618  0.058586
  3H   2dxy       0.025096 -0.008950  0.000000 -0.017288 -0.028110 -0.053861
  4H   1s         0.014788  0.002494  0.000000 -0.002919 -0.014844  0.012565
  4H   2s        -0.139040 -0.256440  0.000000  0.022942 -0.177036  0.679043
  4H   3s        -0.874051 -2.763197  0.000000  0.372497  1.785063  5.637638
  4H   4s        -1.791288 -3.674856 -0.000000  0.328973  2.123495  5.121528
[...]
 14   0.002137244240   0.000088901933         0.003
  --- complex eigenvalues and eigenvectors
 15   0.000078320048   0.000021048139         0.003
  --- complex eigenvalues and eigenvectors
 16   0.000036563962   0.000030734575         0.004
  --- complex eigenvalues and eigenvectors
 17   0.000285547368   0.000355722151         0.004
 18   0.000196793690   0.000011874225         0.003
 19   0.000032041207   0.000001432576         0.003

      *** CONVERGENCE OF RESIDUAL NORM REACHED ***
       --- The STEOM iterations have converged ---
Solving Root No   8 

Iter    Delta-E          Residual              Time
---------------------------------------------------
  0   0.351860882060   0.004219883345         0.004
  1   0.004777567462   0.001846717768         0.004
  2   0.005302097269   0.004285138841         0.003
  3   0.002800894584   0.000496621483         0.004
  4   0.001475646203   0.000349222701         0.004
  5   0.001133869642   0.000414019854         0.003
  6   0.002463616729   0.002029468667         0.003
  7   0.005898302276   0.001292229044         0.004
  8   0.001741984039   0.000423032868         0.004
  9   0.001299280183   0.000408381370         0.004
 10   0.002002208886   0.001004204921         0.004
 11   0.004386113710   0.000832360899         0.004
 12   0.002584634455   0.000857493184         0.004
 13   0.002429953780   0.000652377663         0.004
 14   0.007222209158   0.000218302140         0.004
 15   0.000894156127   0.000185221440         0.004
 16   0.000747806090   0.000567052425         0.004
 17   0.001736401710   0.000672567188         0.004
 18   0.000602585503   0.000116447050         0.004
 19   0.000351814311   0.000085517855         0.004
 20   0.000500275753   0.000095951586         0.004
 21   0.000375880610   0.000078870975         0.004
 22   0.000107734686   0.000074120477         0.004
 23   0.000868911507   0.000887419962         0.004
 24   0.001309294866   0.000084113753         0.004
 25   0.000184441674   0.000016540069         0.004
 26   0.000087170865   0.000003244675         0.004

      *** CONVERGENCE OF RESIDUAL NORM REACHED ***
       --- The STEOM iterations have converged ---
Solving Root No   9 

Iter    Delta-E          Residual              Time
---------------------------------------------------
  0   0.348548489325   0.001231643367         0.004
  1   0.002491451035   0.000731927889         0.004
  2   0.002215123236   0.001769129818         0.004
  3   0.005286013807   0.002229333129         0.004
  4   0.002507351413   0.000319936948         0.004
  5   0.000925440945   0.000848718026         0.004
  6   0.002177658720   0.002355833720         0.004
  7   0.001184755565   0.000380584194         0.004
  8   0.000792025411   0.001277942469         0.004
  9   0.001884630655   0.000699720686         0.004
 10   0.000523657557   0.000088174247         0.004
 11   0.000142041024   0.000027562916         0.004
 12   0.000177689416   0.000084336885         0.004
 13   0.000423415560   0.000105671076         0.004
 14   0.000232432711   0.000016574559         0.004
 15   0.000133375011   0.000009082103         0.004

      *** CONVERGENCE OF RESIDUAL NORM REACHED ***
       --- The STEOM iterations have converged ---
Solving Root No  10 

Iter    Delta-E          Residual              Time
---------------------------------------------------
  0   0.383218659379   0.000820201244         0.004
  1   0.004718809534   0.001609283127         0.004
  2   0.008661265765   0.005072310353         0.004
  3   0.004953321966   0.000556318870         0.004
  4   0.008193710858   0.014323409752         0.004
  5   0.009340943423   0.000294644427         0.004
  6   0.000466723208   0.000107411445         0.004
  7   0.000655272179   0.000637996416         0.004
  8   0.000849720689   0.000151737147         0.004
  9   0.000329579847   0.000049292680         0.004
 10   0.000081230143   0.000029114404         0.004
 11   0.000273921413   0.001228684652         0.004
 12   0.000356891409   0.000046134120         0.004
 13   0.000080994370   0.000614603629         0.004
 14   0.000158025458   0.000029731518         0.004
 15   0.000035458900   0.000016972852         0.004
 16   0.000040711267   0.000009800971         0.004

      *** CONVERGENCE OF RESIDUAL NORM REACHED ***
       --- The STEOM iterations have converged ---

------------------
STEOM-CCSD RESULTS
------------------

IROOT=  1:  0.211712 au     5.761 eV   46465.5 cm**-1
  Amplitude    Excitation
  -0.301859    11 ->  14
  -0.918476    11 ->  16
  -0.215632    11 ->  21
  Ground state amplitude:  0.000198

Percentage Active Character     99.81

  Amplitude    Excitation in Canonical Basis
  -0.262580    11 ->  14
  -0.856004    11 ->  18
   0.310785    11 ->  23
  -0.234716    11 ->  28
   0.105718    11 ->  40

IROOT=  2:  0.287836 au     7.832 eV   63172.6 cm**-1
  Amplitude    Excitation
  -0.121039    10 ->  14
  -0.504486    10 ->  16
   0.705988    11 ->  12
  -0.142344    11 ->  13
   0.326764    11 ->  15
   0.250107    11 ->  19
  Ground state amplitude: -0.008559

Percentage Active Character     99.67

  Amplitude    Excitation in Canonical Basis
  -0.108440    10 ->  14
  -0.474835    10 ->  18
   0.118762    10 ->  23
  -0.101823    10 ->  28
   0.619151    11 ->  12
  -0.215422    11 ->  13
  -0.130876    11 ->  15
  -0.327218    11 ->  16
   0.164309    11 ->  17
  -0.255101    11 ->  19

IROOT=  3:  0.307949 au     8.380 eV   67586.9 cm**-1
  Amplitude    Excitation
  -0.476026    10 ->  16
  -0.422032    11 ->  12
  -0.647087    11 ->  13
  -0.343623    11 ->  15
  -0.152094    11 ->  17
  Ground state amplitude:  0.011657

Percentage Active Character     99.48

  Amplitude    Excitation in Canonical Basis
  -0.452666    10 ->  18
  -0.529117    11 ->  12
  -0.455531    11 ->  13
   0.257249    11 ->  15
  -0.384097    11 ->  17
  -0.100363    11 ->  19
  -0.115529    11 ->  27

IROOT=  4:  0.316563 au     8.614 eV   69477.5 cm**-1
  Amplitude    Excitation
   0.466590    10 ->  16
   0.155898    11 ->  12
  -0.829055    11 ->  13
   0.123203    11 ->  15
  -0.100620    11 ->  20
  Ground state amplitude: -0.018654

Percentage Active Character     99.35

  Amplitude    Excitation in Canonical Basis
   0.444220    10 ->  18
  -0.734180    11 ->  13
  -0.245796    11 ->  16
  -0.246880    11 ->  17
  -0.238143    11 ->  19
   0.111636    11 ->  26

IROOT=  5:  0.319166 au     8.685 eV   70048.8 cm**-1
  Amplitude    Excitation
  -0.202726     8 ->  12
  -0.141741     8 ->  19
   0.813109    10 ->  12
  -0.276049    10 ->  13
   0.250826    10 ->  15
   0.346949    10 ->  19
  Ground state amplitude: -0.000006

Percentage Active Character     99.75

  Amplitude    Excitation in Canonical Basis
  -0.158131     8 ->  12
   0.100254     8 ->  13
   0.134145     8 ->  19
   0.675913    10 ->  12
  -0.343056    10 ->  13
  -0.363255    10 ->  16
   0.163214    10 ->  17
  -0.369495    10 ->  19
  -0.122943    10 ->  35

IROOT=  6:  0.343014 au     9.334 eV   75282.8 cm**-1
  Amplitude    Excitation
   0.938593    11 ->  14
  -0.317230    11 ->  16
  Ground state amplitude: -0.000465

Percentage Active Character     99.90

  Amplitude    Excitation in Canonical Basis
   0.912849    11 ->  14
  -0.302546    11 ->  18
  -0.174896    11 ->  23
  -0.120986    11 ->  28

IROOT=  7:  0.346995 au     9.442 eV   76156.6 cm**-1
  Amplitude    Excitation
  -0.152894    10 ->  16
  -0.465813    11 ->  12
  -0.101302    11 ->  13
   0.831958    11 ->  15
  -0.142843    11 ->  19
  Ground state amplitude:  0.012042

Percentage Active Character     99.39

  Amplitude    Excitation in Canonical Basis
  -0.150114    10 ->  18
  -0.340188    11 ->  12
  -0.854656    11 ->  15
  -0.132336    11 ->  16
   0.122165    11 ->  19
  -0.104611    11 ->  25
   0.147064    11 ->  26
   0.140651    11 ->  27

IROOT=  8:  0.350285 au     9.532 eV   76878.6 cm**-1
  Amplitude    Excitation
  -0.180302     7 ->  16
   0.303878     9 ->  14
   0.895635     9 ->  16
   0.179974     9 ->  21
  Ground state amplitude: -0.000829

Percentage Active Character     98.86

  Amplitude    Excitation in Canonical Basis
  -0.180290     7 ->  18
   0.264674     9 ->  14
   0.837215     9 ->  18
  -0.297388     9 ->  23
   0.207995     9 ->  28

IROOT=  9:  0.356986 au     9.714 eV   78349.3 cm**-1
  Amplitude    Excitation
   0.121667     8 ->  13
   0.185051     9 ->  16
  -0.306424    10 ->  12
  -0.903983    10 ->  13
  Ground state amplitude: -0.000120

Percentage Active Character     99.64

  Amplitude    Excitation in Canonical Basis
   0.105015     8 ->  13
   0.172592     9 ->  18
  -0.419227    10 ->  12
  -0.718959    10 ->  13
  -0.385604    10 ->  17
  -0.246969    10 ->  19

IROOT= 10:  0.382756 au    10.415 eV   84005.2 cm**-1
  Amplitude    Excitation
  -0.108879     8 ->  14
   0.940936    10 ->  14
  -0.253910    10 ->  16
  Ground state amplitude:  0.003787

Percentage Active Character     99.62

  Amplitude    Excitation in Canonical Basis
  -0.106521     8 ->  14
   0.915509    10 ->  14
  -0.222195    10 ->  18
  -0.115350    10 ->  21
  -0.172281    10 ->  23


STEOM-CCSD done (   21.0 sec)
Calculating the Dipole integrals                  ... done
Transforming integrals                            ... done
Calculating the Linear Momentum integrals         ... done
Transforming integrals                            ... done
Calculating angular momentum integrals            ... done
Transforming integrals                            ... done

--------------------------------------------------------------------
               UNRELAXED EXCITED STATE DIPOLE MOMENTS
--------------------------------------------------------------------
               E(eV)     DX(au)      DY(au)      DZ(au)      |D|(D)
IROOT=  0:     0.000   -0.571901   -0.103679    0.000000    1.477351
IROOT=  1:     5.761   -0.107710   -0.647581    0.001753    1.668639
IROOT=  2:     7.832   -0.102826    1.849861   -0.010198    4.709302
IROOT=  3:     8.380   -1.188469   -2.600557    0.037862    7.268293
IROOT=  4:     8.614    0.446126   -0.517045   -0.006503    1.735894
IROOT=  5:     8.685    0.147804    3.013868    0.000521    7.669849
IROOT=  6:     9.334   -0.232697   -0.732431   -0.022759    1.954246
IROOT=  7:     9.442    0.512687   -0.284823   -0.011820    1.491046
IROOT=  8:     9.532   -0.659773   -0.916065    0.007036    2.869559
IROOT=  9:     9.714    0.384380   -3.812540   -0.008887    9.739860
IROOT= 10:    10.415   -0.253486   -0.934330   -0.003648    2.460745
--------------------------------------------------------------------

-----------------------------------------------------------------------------
         ABSORPTION SPECTRUM VIA TRANSITION ELECTRIC DIPOLE MOMENTS
-----------------------------------------------------------------------------
State   Energy  Wavelength   fosc         T2         TX        TY        TZ  
        (cm-1)    (nm)                  (au**2)     (au)      (au)      (au) 
-----------------------------------------------------------------------------
   1   46465.5    215.2   0.000842448   0.00597   0.00069   0.00048   0.07725
   2   63172.6    158.3   0.030194373   0.15735   0.33109   0.21582   0.00156
   3   67586.9    148.0   0.158567195   0.77237   0.87201   0.07331   0.00103
   4   69477.5    143.9   0.129356678   0.61294   0.48253   0.60775   0.00046
   5   70048.8    142.8   0.003539084   0.01663   0.01032   0.00254   0.12848
   6   75282.8    132.8   0.007428683   0.03249   0.00430   0.00241   0.17968
   7   76156.6    131.3   0.073267180   0.31672   0.50461   0.24890   0.00028
   8   76878.6    130.1   0.000186791   0.00080   0.01744   0.00698   0.00813
   9   78349.3    127.6   0.002888291   0.01214   0.00111   0.00057   0.11015
  10   84005.2    119.0   0.009507673   0.03726   0.18194   0.06435   0.00065

-------------------------------------------------------------------
                             CD SPECTRUM
-------------------------------------------------------------------
State   Energy Wavelength       R         MX        MY        MZ   
        (cm-1)   (nm)       (1e40*cgs)   (au)      (au)      (au)  
-------------------------------------------------------------------
   1     215.2   46465.5      0.15613   0.44295  -0.05958  -0.00011
   2     158.3   63172.6     -0.03850  -0.00132   0.00476   0.28993
   3     148.0   67586.9     -1.22570   0.00899   0.01706  -0.04390
   4     143.9   69477.5     -1.52206  -0.00751  -0.01390  -0.10928
   5     142.8   70048.8      0.11929  -0.13228   0.27989   0.00360
   6     132.8   75282.8      0.05283   0.00905  -0.03019  -0.00259
   7     131.3   76156.6     -0.01315   0.00163   0.00187   0.23512
   8     130.1   76878.6      2.40064  -0.35014  -0.48458  -0.00187
   9     127.6   78349.3      0.04618  -0.05095  -0.19672   0.00004
  10     119.0   84005.2      0.25079  -0.00423  -0.00695  -0.01188

TDM done (   21.3 sec)
STEOM-CCSD done in (   21.3)


------------------------------------------------------------------------------- 
                                     TIMINGS                                   
------------------------------------------------------------------------------- 


Total execution time                   ...      206.251 sec

Localization of occupied MO's          ...        4.896 sec (  2.4%)
Fock Matrix Formation                  ...        1.330 sec (  0.6%)
Global overlap, Fock, MKN matrices     ...        0.208 sec (  0.1%)
Differential overlap integrals         ...        0.174 sec (  0.1%)
Organizing maps                        ...        0.005 sec (  0.0%)
RI 3-index integral generations        ...        0.784 sec (  0.4%)
RI-PNO integral transformation         ...        7.151 sec (  3.5%)
Initial Guess                          ...        0.442 sec (  0.2%)
DIIS Solver                            ...        0.073 sec (  0.0%)
State Vector Update                    ...        0.005 sec (  0.0%)
Sigma-vector construction              ...       16.294 sec (  7.9%)
  <D|H|D>(0-ext)                       ...        0.250 sec (  1.5% of sigma)
  <D|H|D>(2-ext Fock)                  ...        0.004 sec (  0.0% of sigma)
  <D|H|D>(2-ext)                       ...        1.021 sec (  6.3% of sigma)
  <D|H|D>(4-ext)                       ...        2.921 sec ( 17.9% of sigma)
  <D|H|D>(4-ext-corr)                  ...        9.856 sec ( 60.5% of sigma)
  CCSD doubles correction              ...        0.031 sec (  0.2% of sigma)
  <S|H|S>                              ...        0.237 sec (  1.5% of sigma)
  <S|H|D>(1-ext)                       ...        0.051 sec (  0.3% of sigma)
  <D|H|S>(1-ext)                       ...        0.002 sec (  0.0% of sigma)
  <S|H|D>(3-ext)                       ...        0.081 sec (  0.5% of sigma)
  Fock-dressing                        ...        1.080 sec (  6.6% of sigma)
  Singles amplitudes                   ...        0.070 sec (  0.4% of sigma)
  (ik|jl)-dressing                     ...        0.189 sec (  1.2% of sigma)
  (ij|ab),(ia|jb)-dressing             ...        0.456 sec (  2.8% of sigma)
  Pair energies                        ...        0.003 sec (  0.0% of sigma)
Total Time for computing EOM-CCSD      ...      149.492 sec ( 72.5% of ALL)
  Dressing integrals                   ...        0.569 sec (  0.4% of (EOM))
  EOM Singles                          ...        2.173 sec (  1.5% of (EOM))
  EOM Doubles                          ...      127.572 sec ( 85.3% of (EOM))
  Build Hamiltonian                    ...        1.917 sec (  1.3% of (EOM))
  Diagonalize Hamiltonian              ...        0.189 sec (  0.1% of (EOM))
  Ritz vectors                         ...        3.825 sec (  2.6% of (EOM))
  Residual vectors                     ...        4.113 sec (  2.8% of (EOM))
One-particle density matrix            ...        0.045 sec (  0.0%)


Maximum memory used throughout the entire MDCI-calculation: 748.5 MB

-------------------------   --------------------
FINAL SINGLE POINT ENERGY      -189.278022657986
-------------------------   --------------------


                            ***************************************
                            *     ORCA property calculations      *
                            ***************************************

                                    ---------------------
                                    Active property flags
                                    ---------------------
   (+) Dipole Moment


------------------------------------------------------------------------------
                       ORCA ELECTRIC PROPERTIES CALCULATION
------------------------------------------------------------------------------

Dipole Moment Calculation                       ... on
Quadrupole Moment Calculation                   ... off
Polarizability Calculation                      ... off
GBWName                                         ... 000026.gbw
Electron density file                           ... 000026.scfp
The origin for moment calculation is the CENTER OF MASS  = ( 0.042088, -0.004553  0.000000)

-------------
DIPOLE MOMENT
-------------
                                X             Y             Z
Electronic contribution:      0.32989      -0.15966      -0.00000
Nuclear contribution   :     -1.01009       0.10927       0.00000
                        -----------------------------------------
Total Dipole Moment    :     -0.68020      -0.05039      -0.00000
                        -----------------------------------------
Magnitude (a.u.)       :      0.68206
Magnitude (Debye)      :      1.73366



--------------------
Rotational spectrum 
--------------------
 
Rotational constants in cm-1:     2.612243     0.406877     0.352043 
Rotational constants in MHz : 78313.080161 12197.860348 10553.995018 

 Dipole components along the rotational axes: 
x,y,z [a.u.] :     0.666368     0.145460    -0.000000 
x,y,z [Debye]:     1.693774     0.369731    -0.000000 

 

                           *** MDCI DENSITY ***

------------------------------------------------------------------------------
                       ORCA ELECTRIC PROPERTIES CALCULATION
------------------------------------------------------------------------------

Dipole Moment Calculation                       ... on
Quadrupole Moment Calculation                   ... off
Polarizability Calculation                      ... off
GBWName                                         ... 000026.gbw
Electron density file                           ... 000026.mdcip
The origin for moment calculation is the CENTER OF MASS  = ( 0.042088, -0.004553  0.000000)

-------------
DIPOLE MOMENT
-------------
                                X             Y             Z
Electronic contribution:      0.45421      -0.22014       0.00000
Nuclear contribution   :     -1.01009       0.10927       0.00000
                        -----------------------------------------
Total Dipole Moment    :     -0.55588      -0.11087       0.00000
                        -----------------------------------------
Magnitude (a.u.)       :      0.56683
Magnitude (Debye)      :      1.44077



--------------------
Rotational spectrum 
--------------------
 
Rotational constants in cm-1:     2.612243     0.406877     0.352043 
Rotational constants in MHz : 78313.080161 12197.860348 10553.995018 

 Dipole components along the rotational axes: 
x,y,z [a.u.] :     0.564433     0.052072     0.000000 
x,y,z [Debye]:     1.434674     0.132357     0.000000 

 

Timings for individual modules:

Sum of individual times         ...      221.380 sec (=   3.690 min)
GTO integral calculation        ...        0.444 sec (=   0.007 min)   0.2 %
SCF iterations                  ...       14.310 sec (=   0.238 min)   6.5 %
MDCI module                     ...      206.626 sec (=   3.444 min)  93.3 %
                             ****ORCA TERMINATED NORMALLY****
TOTAL RUN TIME: 0 days 0 hours 3 minutes 41 seconds 860 msec
