
                                        *****************
                                        * O   R   C   A *
                                        *****************

                                            #,                                       
                                            ###                                      
                                            ####                                     
                                            #####                                    
                                            ######                                   
                                           ########,                                 
                                     ,,################,,,,,                         
                               ,,#################################,,                 
                          ,,##########################################,,             
                       ,#########################################, ''#####,          
                    ,#############################################,,   '####,        
                  ,##################################################,,,,####,       
                ,###########''''           ''''###############################       
              ,#####''   ,,,,##########,,,,          '''####'''          '####       
            ,##' ,,,,###########################,,,                        '##       
           ' ,,###''''                  '''############,,,                           
         ,,##''                                '''############,,,,        ,,,,,,###''
      ,#''                                            '''#######################'''  
     '                                                          ''''####''''         
             ,#######,   #######,   ,#######,      ##                                
            ,#'     '#,  ##    ##  ,#'     '#,    #''#        ######   ,####,        
            ##       ##  ##   ,#'  ##            #'  '#       #        #'  '#        
            ##       ##  #######   ##           ,######,      #####,   #    #        
            '#,     ,#'  ##    ##  '#,     ,#' ,#      #,         ##   #,  ,#        
             '#######'   ##     ##  '#######'  #'      '#     #####' # '####'        



                  #######################################################
                  #                        -***-                        #
                  #          Department of theory and spectroscopy      #
                  #    Directorship and core code : Frank Neese         #
                  #        Max Planck Institute fuer Kohlenforschung    #
                  #                Kaiser Wilhelm Platz 1               #
                  #                 D-45470 Muelheim/Ruhr               #
                  #                      Germany                        #
                  #                                                     #
                  #                  All rights reserved                #
                  #                        -***-                        #
                  #######################################################


                         Program Version 5.0.0 -  RELEASE  -
                                (SVN: $Rev: 19529$)
                ($Date: 2021-06-28 11:36:33 +0200 (Mo, 28 Jun 2021) $)


 With contributions from (in alphabetic order):
   Daniel Aravena         : Magnetic Suceptibility
   Michael Atanasov       : Ab Initio Ligand Field Theory (pilot matlab implementation)
   Alexander A. Auer      : GIAO ZORA, VPT2 properties, NMR spectrum
   Ute Becker             : Parallelization
   Giovanni Bistoni       : ED, misc. LED, open-shell LED, HFLD
   Martin Brehm           : Molecular dynamics
   Dmytro Bykov           : SCF Hessian
   Vijay G. Chilkuri      : MRCI spin determinant printing, contributions to CSF-ICE
   Dipayan Datta          : RHF DLPNO-CCSD density
   Achintya Kumar Dutta   : EOM-CC, STEOM-CC
   Dmitry Ganyushin       : Spin-Orbit,Spin-Spin,Magnetic field MRCI
   Miquel Garcia          : C-PCM Hessian, Gaussian charge scheme
   Yang Guo               : DLPNO-NEVPT2, F12-NEVPT2, CIM, IAO-localization
   Andreas Hansen         : Spin unrestricted coupled pair/coupled cluster methods
   Benjamin Helmich-Paris : MC-RPA, TRAH-SCF, COSX integrals
   Lee Huntington         : MR-EOM, pCC
   Robert Izsak           : Overlap fitted RIJCOSX, COSX-SCS-MP3, EOM
   Marcus Kettner         : VPT2
   Christian Kollmar      : KDIIS, OOCD, Brueckner-CCSD(T), CCSD density, CASPT2, CASPT2-K
   Simone Kossmann        : Meta GGA functionals, TD-DFT gradient, OOMP2, MP2 Hessian
   Martin Krupicka        : Initial AUTO-CI
   Lucas Lang             : DCDCAS
   Marvin Lechner         : AUTO-CI (C++ implementation), FIC-MRCC
   Dagmar Lenk            : GEPOL surface, SMD
   Dimitrios Liakos       : Extrapolation schemes; Compound Job, initial MDCI parallelization
   Dimitrios Manganas     : Further ROCIS development; embedding schemes
   Dimitrios Pantazis     : SARC Basis sets
   Anastasios Papadopoulos: AUTO-CI, single reference methods and gradients
   Taras Petrenko         : DFT Hessian,TD-DFT gradient, ASA, ECA, R-Raman, ABS, FL, XAS/XES, NRVS
   Peter Pinski           : DLPNO-MP2, DLPNO-MP2 Gradient
   Christoph Reimann      : Effective Core Potentials
   Marius Retegan         : Local ZFS, SOC
   Christoph Riplinger    : Optimizer, TS searches, QM/MM, DLPNO-CCSD(T), (RO)-DLPNO pert. Triples
   Tobias Risthaus        : Range-separated hybrids, TD-DFT gradient, RPA, STAB
   Michael Roemelt        : Original ROCIS implementation
   Masaaki Saitow         : Open-shell DLPNO-CCSD energy and density
   Barbara Sandhoefer     : DKH picture change effects
   Avijit Sen             : IP-ROCIS
   Kantharuban Sivalingam : CASSCF convergence, NEVPT2, FIC-MRCI
   Bernardo de Souza      : ESD, SOC TD-DFT
   Georgi Stoychev        : AutoAux, RI-MP2 NMR
   Willem Van den Heuvel  : Paramagnetic NMR
   Boris Wezisla          : Elementary symmetry handling
   Frank Wennmohs         : Technical directorship


 We gratefully acknowledge several colleagues who have allowed us to
 interface, adapt or use parts of their codes:
   Stefan Grimme, W. Hujo, H. Kruse, P. Pracht,  : VdW corrections, initial TS optimization,
                  C. Bannwarth, S. Ehlert          DFT functionals, gCP, sTDA/sTD-DF
   Ed Valeev, F. Pavosevic, A. Kumar             : LibInt (2-el integral package), F12 methods
   Garnet Chan, S. Sharma, J. Yang, R. Olivares  : DMRG
   Ulf Ekstrom                                   : XCFun DFT Library
   Mihaly Kallay                                 : mrcc  (arbitrary order and MRCC methods)
   Jiri Pittner, Ondrej Demel                    : Mk-CCSD
   Frank Weinhold                                : gennbo (NPA and NBO analysis)
   Christopher J. Cramer and Donald G. Truhlar   : smd solvation model
   Lars Goerigk                                  : TD-DFT with DH, B97 family of functionals
   V. Asgeirsson, H. Jonsson                     : NEB implementation
   FAccTs GmbH                                   : IRC, NEB, NEB-TS, DLPNO-Multilevel, CI-OPT
                                                   MM, QMMM, 2- and 3-layer-ONIOM, Crystal-QMMM,
                                                   LR-CPCM, SF, NACMEs, symmetry and pop. for TD-DFT,
                                                   nearIR, NL-DFT gradient (VV10), updates on ESD,
                                                   ML-optimized integration grids
   S Lehtola, MJT Oliveira, MAL Marques          : LibXC Library
   Liviu Ungur et al                             : ANISO software


 Your calculation uses the libint2 library for the computation of 2-el integrals
 For citations please refer to: http://libint.valeyev.net

 Your ORCA version has been built with support for libXC version: 5.1.0
 For citations please refer to: https://tddft.org/programs/libxc/

 This ORCA versions uses:
   CBLAS   interface :  Fast vector & matrix operations
   LAPACKE interface :  Fast linear algebra routines
   SCALAPACK package :  Parallel linear algebra routines
   Shared memory     :  Shared parallel matrices
   BLAS/LAPACK       :  OpenBLAS 0.3.15  USE64BITINT DYNAMIC_ARCH NO_AFFINITY Haswell SINGLE_THREADED
        Core in use  :  Haswell
   Copyright (c) 2011-2014, The OpenBLAS Project




***************************************
The coordinates will be read from file: 000015.xyz
***************************************


================================================================================

----- Orbital basis set information -----
Your calculation utilizes the basis: aug-cc-pVTZ 
    H, B-Ne : Obtained from the ccRepo (grant-hill.group.shef.ac.uk/ccrepo) Feb. 2017
              R. A. Kendall, T. H. Dunning, Jr., R. J. Harrison, J. Chem. Phys. 96, 6796 (1992)
         He : Obtained from the ccRepo (grant-hill.group.shef.ac.uk/ccrepo) Feb. 2017
              D. E. Woon, T. H. Dunning, Jr., J. Chem. Phys. 100, 2975 (1994)
  Li-Be, Na : Obtained from the ccRepo (grant-hill.group.shef.ac.uk/ccrepo) Feb. 2017
              B. P. Prascher, D. E. Woon, K. A. Peterson, T. H. Dunning, Jr., A. K. Wilson, Theor. Chem. Acc. 128, 69 (2011)
         Mg : Obtained from the Peterson Research Group Website (tyr0.chem.wsu.edu/~kipeters) Feb. 2017
              B. P. Prascher, D. E. Woon, K. A. Peterson, T. H. Dunning, Jr., A. K. Wilson, Theor. Chem. Acc. 128, 69 (2011)
      Al-Ar : Obtained from the ccRepo (grant-hill.group.shef.ac.uk/ccrepo) Feb. 2017
              D. E. Woon, T. H. Dunning, Jr., J. Chem. Phys. 98, 1358 (1993)
      Sc-Zn : Obtained from the ccRepo (grant-hill.group.shef.ac.uk/ccrepo) Feb. 2017
              N. B. Balabanov, K. A. Peterson, J. Chem. Phys. 123, 064107 (2005)
              N. B. Balabanov, K. A. Peterson, J. Chem. Phys. 125, 074110 (2006)
      Ga-Kr : Obtained from the ccRepo (grant-hill.group.shef.ac.uk/ccrepo) Feb. 2017
              A. K. Wilson, D. E. Woon, K. A. Peterson, T. H. Dunning, Jr., J. Chem. Phys. 110, 7667 (1999)
     Ag, Au : Obtained from the Peterson Research Group Website (tyr0.chem.wsu.edu/~kipeters) Feb. 2017
              K. A. Peterson, C. Puzzarini, Theor. Chem. Acc. 114, 283 (2005)

----- AuxJ basis set information -----
Your calculation utilizes the auxiliary basis: def2/J
   F. Weigend, Phys. Chem. Chem. Phys. 8, 1057 (2006).

----- AuxC basis set information -----
Your calculation utilizes the auxiliary basis: aug-cc-pVTZ/C 
  H-He, B-F, Al-Ar, Ga-Kr : Obtained from the EMSL Basis Set Exchange (bse.pnl.gov) Feb. 2017
                            F. Weigend, A. Kohn, C. Hattig, J. Chem. Phys. 116, 3175 (2002)
                   Be, Mg : Obtained from the TURBOMOLE 7.0 basis set library
                            C. Haettig, Phys. Chem. Chem. Phys. 7, 59 (2005)
                       Ne : Obtained from the EMSL Basis Set Exchange (bse.pnl.gov) Feb. 2017
                            C. Haettig, Phys. Chem. Chem. Phys. 7, 59 (2005)
                            F. Weigend, A. Kohn, C. Hattig, J. Chem. Phys. 116, 3175 (2002)
                    Sc-Zn : Obtained from the EMSL Basis Set Exchange (bse.pnl.gov) Feb. 2017
                            J. G. Hill, J. A. Platts, J. Chem. Phys. 128, 044104 (2008)

================================================================================
                                        WARNINGS
                       Please study these warnings very carefully!
================================================================================


WARNING: Post HF methods need fully converged wavefunctions
  ===> : Setting SCFConvForced true
         You can overwrite this default with %scf ConvForced false 


WARNING: MDCI localization with Augmented Hessian Foster-Boys
  ===> : Switching off randomization!

INFO   : the flag for use of the SHARK integral package has been found!

================================================================================
                                       INPUT FILE
================================================================================
NAME = 000015.com
|  1> !STEOM-DLPNO-CCSD aug-cc-pVTZ aug-cc-pVTZ/C def2/J TightSCF PrintMOs
|  2> 
|  3> *xyzfile 0 1 000015.xyz
|  4> 
|  5> %MaxCore 64000
|  6> %scf
|  7>  MaxIter 150
|  8> end
|  9> 
| 10> %pal nprocs 8
| 11> end
| 12> 
| 13> %mdci
| 14>  nroots 10
| 15>  DoRootwise true
| 16> end
| 17> 
| 18>                          ****END OF INPUT****
================================================================================

                       ****************************
                       * Single Point Calculation *
                       ****************************

---------------------------------
CARTESIAN COORDINATES (ANGSTROEM)
---------------------------------
  C     -1.240791   -0.237624   -0.027525
  C      0.048946    0.559205    0.053709
  N      1.202342   -0.317606   -0.116703
  H     -2.109817    0.415828    0.064703
  H     -1.292929   -0.976209    0.776809
  H     -1.300329   -0.769884   -0.977746
  H      0.066306    1.122818    0.997967
  H      0.069957    1.296574   -0.752592
  H      1.236408   -1.003082    0.627159
  H      2.065080    0.207710   -0.076483

----------------------------
CARTESIAN COORDINATES (A.U.)
----------------------------
  NO LB      ZA    FRAG     MASS         X           Y           Z
   0 C     6.0000    0    12.011   -2.344755   -0.449044   -0.052015
   1 C     6.0000    0    12.011    0.092495    1.056744    0.101495
   2 N     7.0000    0    14.007    2.272097   -0.600188   -0.220537
   3 H     1.0000    0     1.008   -3.986976    0.785801    0.122271
   4 H     1.0000    0     1.008   -2.443282   -1.844768    1.467956
   5 H     1.0000    0     1.008   -2.457266   -1.454870   -1.847672
   6 H     1.0000    0     1.008    0.125300    2.121819    1.885884
   7 H     1.0000    0     1.008    0.132200    2.450170   -1.422193
   8 H     1.0000    0     1.008    2.336473   -1.895550    1.185159
   9 H     1.0000    0     1.008    3.902436    0.392515   -0.144532

--------------------------------
INTERNAL COORDINATES (ANGSTROEM)
--------------------------------
 C      0   0   0     0.000000000000     0.00000000     0.00000000
 C      1   0   0     1.518208466307     0.00000000     0.00000000
 N      2   1   0     1.458821480607   110.48420895     0.00000000
 H      1   2   3     1.091197373972   110.96065395   181.94872996
 H      1   2   3     1.093242588278   110.83822611    62.30528505
 H      1   2   3     1.090763691129   110.43179290   302.68604283
 H      2   1   3     1.099810962817   109.16644113   234.74722061
 H      2   1   3     1.092829267033   109.32876522   118.36662658
 H      3   2   1     1.012110919799   110.35440765   297.77439420
 H      3   2   1     1.010886445106   110.96402680   179.22387592

---------------------------
INTERNAL COORDINATES (A.U.)
---------------------------
 C      0   0   0     0.000000000000     0.00000000     0.00000000
 C      1   0   0     2.868998215521     0.00000000     0.00000000
 N      2   1   0     2.756773076629   110.48420895     0.00000000
 H      1   2   3     2.062064194862   110.96065395   181.94872996
 H      1   2   3     2.065929089785   110.83822611    62.30528505
 H      1   2   3     2.061244653059   110.43179290   302.68604283
 H      2   1   3     2.078341518809   109.16644113   234.74722061
 H      2   1   3     2.065148025826   109.32876522   118.36662658
 H      3   2   1     1.912612455571   110.35440765   297.77439420
 H      3   2   1     1.910298533744   110.96402680   179.22387592

---------------------
BASIS SET INFORMATION
---------------------
There are 3 groups of distinct atoms

 Group   1 Type C   : 19s6p3d2f contracted to 5s4p3d2f pattern {88111/3111/111/11}
 Group   2 Type N   : 19s6p3d2f contracted to 5s4p3d2f pattern {88111/3111/111/11}
 Group   3 Type H   : 6s3p2d contracted to 4s3p2d pattern {3111/111/11}

Atom   0C    basis set group =>   1
Atom   1C    basis set group =>   1
Atom   2N    basis set group =>   2
Atom   3H    basis set group =>   3
Atom   4H    basis set group =>   3
Atom   5H    basis set group =>   3
Atom   6H    basis set group =>   3
Atom   7H    basis set group =>   3
Atom   8H    basis set group =>   3
Atom   9H    basis set group =>   3
---------------------------------
AUXILIARY/J BASIS SET INFORMATION
---------------------------------
There are 3 groups of distinct atoms

 Group   1 Type C   : 12s5p4d2f1g contracted to 6s4p3d1f1g pattern {711111/2111/211/2/1}
 Group   2 Type N   : 12s5p4d2f1g contracted to 6s4p3d1f1g pattern {711111/2111/211/2/1}
 Group   3 Type H   : 5s2p1d contracted to 3s1p1d pattern {311/2/1}

Atom   0C    basis set group =>   1
Atom   1C    basis set group =>   1
Atom   2N    basis set group =>   2
Atom   3H    basis set group =>   3
Atom   4H    basis set group =>   3
Atom   5H    basis set group =>   3
Atom   6H    basis set group =>   3
Atom   7H    basis set group =>   3
Atom   8H    basis set group =>   3
Atom   9H    basis set group =>   3
---------------------------------
AUXILIARY/C BASIS SET INFORMATION
---------------------------------
There are 3 groups of distinct atoms

 Group   1 Type C   : 9s7p6d4f2g contracted to 9s7p6d4f2g pattern {111111111/1111111/111111/1111/11}
 Group   2 Type N   : 9s7p6d4f2g contracted to 9s7p6d4f2g pattern {111111111/1111111/111111/1111/11}
 Group   3 Type H   : 5s4p3d2f contracted to 5s4p3d2f pattern {11111/1111/111/11}

Atom   0C    basis set group =>   1
Atom   1C    basis set group =>   1
Atom   2N    basis set group =>   2
Atom   3H    basis set group =>   3
Atom   4H    basis set group =>   3
Atom   5H    basis set group =>   3
Atom   6H    basis set group =>   3
Atom   7H    basis set group =>   3
Atom   8H    basis set group =>   3
Atom   9H    basis set group =>   3


           ************************************************************
           *        Program running with 8 parallel MPI-processes     *
           *              working on a common directory               *
           ************************************************************
------------------------------------------------------------------------------
                           ORCA GTO INTEGRAL CALCULATION
------------------------------------------------------------------------------
------------------------------------------------------------------------------
                   ___                                                        
                  /   \      - P O W E R E D   B Y -                         
                 /     \                                                     
                 |  |  |   _    _      __       _____    __    __             
                 |  |  |  | |  | |    /  \     |  _  \  |  |  /  |          
                  \  \/   | |  | |   /    \    | | | |  |  | /  /          
                 / \  \   | |__| |  /  /\  \   | |_| |  |  |/  /          
                |  |  |   |  __  | /  /__\  \  |    /   |      \           
                |  |  |   | |  | | |   __   |  |    \   |  |\   \          
                \     /   | |  | | |  |  |  |  | |\  \  |  | \   \       
                 \___/    |_|  |_| |__|  |__|  |_| \__\ |__|  \__/        
                                                                              
                      - O R C A' S   B I G   F R I E N D -                    
                                      &                                       
                       - I N T E G R A L  F E E D E R -                       
                                                                              
 v1 FN, 2020, v2 2021                                                         
------------------------------------------------------------------------------


Reading SHARK input file 000015.SHARKINP.tmp ... ok
----------------------
SHARK INTEGRAL PACKAGE
----------------------

Number of atoms                             ...     10
Number of basis functions                   ...    299
Number of shells                            ...    105
Maximum angular momentum                    ...      3
Integral batch strategy                     ... SHARK/LIBINT Hybrid
RI-J (if used) integral strategy            ... SPLIT-RIJ (Revised 2003 algorithm where possible)
Printlevel                                  ...      1
Contraction scheme used                     ... SEGMENTED contraction
Coulomb Range Separation                    ... NOT USED
Exchange Range Separation                   ... NOT USED
Finite Nucleus Model                        ... NOT USED
Auxiliary Coulomb fitting basis             ... AVAILABLE
   # of basis functions in Aux-J            ...    224
   # of shells in Aux-J                     ...     80
   Maximum angular momentum in Aux-J        ...      4
Auxiliary J/K fitting basis                 ... NOT available
Auxiliary Correlation fitting basis         ... AVAILABLE
   # of basis functions in Aux-C            ...    640
   # of shells in Aux-C                     ...    182
   Maximum angular momentum in Aux-C        ...      4
Auxiliary 'external' fitting basis          ... NOT available
Integral threshold                          ...     2.500000e-11
Primitive cut-off                           ...     2.500000e-12
Primitive pair pre-selection threshold      ...     2.500000e-12

Calculating pre-screening integrals         ... done (  0.1 sec) Dimension = 105
Organizing shell pair data                  ... done (  0.1 sec)
Shell pair information
Total number of shell pairs                 ...      5565
Shell pairs after pre-screening             ...      5543
Total number of primitive shell pairs       ...     14226
Primitive shell pairs kept                  ...     12610
          la=0 lb=0:    942 shell pairs
          la=1 lb=0:   1410 shell pairs
          la=1 lb=1:    556 shell pairs
          la=2 lb=0:    987 shell pairs
          la=2 lb=1:    757 shell pairs
          la=2 lb=2:    276 shell pairs
          la=3 lb=0:    258 shell pairs
          la=3 lb=1:    198 shell pairs
          la=3 lb=2:    138 shell pairs
          la=3 lb=3:     21 shell pairs

Calculating one electron integrals          ... done (  0.0 sec)
Calculating RI/J V-Matrix + Cholesky decomp.... done (  0.0 sec)
Calculating RI/C V-Matrix + Cholesky decomp.... done (  0.0 sec)
Calculating Nuclear repulsion               ... done (  0.0 sec) ENN=     83.159244262086 Eh

SHARK setup successfully completed in   0.3 seconds

Maximum memory used throughout the entire GTOINT-calculation: 17.4 MB


           ************************************************************
           *        Program running with 8 parallel MPI-processes     *
           *              working on a common directory               *
           ************************************************************
-------------------------------------------------------------------------------
                                 ORCA SCF
-------------------------------------------------------------------------------

------------
SCF SETTINGS
------------
Hamiltonian:
 Ab initio Hamiltonian  Method          .... Hartree-Fock(GTOs)


General Settings:
 Integral files         IntName         .... 000015
 Hartree-Fock type      HFTyp           .... RHF
 Total Charge           Charge          ....    0
 Multiplicity           Mult            ....    1
 Number of Electrons    NEL             ....   26
 Basis Dimension        Dim             ....  299
 Nuclear Repulsion      ENuc            ....     83.1592442621 Eh

Convergence Acceleration:
 DIIS                   CNVDIIS         .... on
   Start iteration      DIISMaxIt       ....    12
   Startup error        DIISStart       ....  0.200000
   # of expansion vecs  DIISMaxEq       ....     5
   Bias factor          DIISBfac        ....   1.050
   Max. coefficient     DIISMaxC        ....  10.000
 Trust-Rad. Augm. Hess. CNVTRAH         .... auto
   Auto Start mean grad. ratio tolernc. ....  1.125000
   Auto Start start iteration           ....    20
   Auto Start num. interpolation iter.  ....    10
   Max. Number of Micro iterations      ....    16
   Max. Number of Macro iterations      .... Maxiter - #DIIS iter
   Number of Davidson start vectors     ....     2
   Converg. threshold I  (grad. norm)   ....   1.000e-05
   Converg. threshold II (energy diff.) ....   1.000e-08
   Grad. Scal. Fac. for Micro threshold ....   0.100
   Minimum threshold for Micro iter.    ....   0.010
   NR start threshold (gradient norm)   ....   0.001
   Initial trust radius                 ....   0.400
   Minimum AH scaling param. (alpha)    ....   1.000
   Maximum AH scaling param. (alpha)    .... 1000.000
   Orbital update algorithm             .... Taylor
   White noise on init. David. guess    .... on
   Maximum white noise                  ....   0.010
   Quad. conv. algorithm                .... NR
 SOSCF                  CNVSOSCF        .... on
   Start iteration      SOSCFMaxIt      ....   150
   Startup grad/error   SOSCFStart      ....  0.003300
 Level Shifting         CNVShift        .... on
   Level shift para.    LevelShift      ....    0.2500
   Turn off err/grad.   ShiftErr        ....    0.0010
 Zerner damping         CNVZerner       .... off
 Static damping         CNVDamp         .... on
   Fraction old density DampFac         ....    0.7000
   Max. Damping (<1)    DampMax         ....    0.9800
   Min. Damping (>=0)   DampMin         ....    0.0000
   Turn off err/grad.   DampErr         ....    0.1000
 Fernandez-Rico         CNVRico         .... off

SCF Procedure:
 Maximum # iterations   MaxIter         ....   150
 SCF integral mode      SCFMode         .... Direct
   Integral package                     .... SHARK and LIBINT hybrid scheme
 Reset frequency        DirectResetFreq ....    20
 Integral Threshold     Thresh          ....  2.500e-11 Eh
 Primitive CutOff       TCut            ....  2.500e-12 Eh

Convergence Tolerance:
 Convergence Check Mode ConvCheckMode   .... Total+1el-Energy
 Convergence forced     ConvForced      .... 1
 Energy Change          TolE            ....  1.000e-08 Eh
 1-El. energy change                    ....  1.000e-05 Eh
 Orbital Gradient       TolG            ....  1.000e-05
 Orbital Rotation angle TolX            ....  1.000e-05
 DIIS Error             TolErr          ....  5.000e-07


Diagonalization of the overlap matrix:
Smallest eigenvalue                        ... 1.659e-05
Time for diagonalization                   ...    0.023 sec
Threshold for overlap eigenvalues          ... 1.000e-08
Number of eigenvalues below threshold      ... 0
Time for construction of square roots      ...    0.019 sec
Total time needed                          ...    0.042 sec

Time for model grid setup =    0.055 sec

------------------------------
INITIAL GUESS: MODEL POTENTIAL
------------------------------
Loading Hartree-Fock densities                     ... done
Calculating cut-offs                               ... done
Initializing the effective Hamiltonian             ... done
Setting up the integral package (SHARK)            ... done
Starting the Coulomb interaction                   ... done (   0.0 sec)
Reading the grid                                   ... done
Mapping shells                                     ... done
Starting the XC term evaluation                    ... done (   0.0 sec)
Transforming the Hamiltonian                       ... done (   0.0 sec)
Diagonalizing the Hamiltonian                      ... done (   0.0 sec)
Back transforming the eigenvectors                 ... done (   0.0 sec)
Now organizing SCF variables                       ... done
                      ------------------
                      INITIAL GUESS DONE (   0.2 sec)
                      ------------------
--------------
SCF ITERATIONS
--------------
ITER       Energy         Delta-E        Max-DP      RMS-DP      [F,P]     Damp
               ***  Starting incremental Fock matrix formation  ***
  0   -134.0667341903   0.000000000000 0.03313100  0.00063016  0.3303920 0.7000
  1   -134.1548288159  -0.088094625654 0.02609492  0.00048059  0.2003650 0.7000
                               ***Turning on DIIS***
  2   -134.2056941262  -0.050865310328 0.01971222  0.00032503  0.1090567 0.7000
  3   -134.6586953536  -0.453001227337 0.05173971  0.00079363  0.0776571 0.0000
  4   -134.2385773237   0.420118029849 0.00852184  0.00011941  0.0100075 0.0000
                      *** Initiating the SOSCF procedure ***
                           *** Shutting down DIIS ***
                      *** Re-Reading the Fockian *** 
                      *** Removing any level shift *** 
ITER      Energy       Delta-E        Grad      Rot      Max-DP    RMS-DP
  5   -134.29955057  -0.0609732461  0.001615  0.001615  0.003002  0.000044
               *** Restarting incremental Fock matrix formation ***
  6   -134.30663386  -0.0070832873  0.000614  0.000758  0.001646  0.000020
  7   -134.30664701  -0.0000131559  0.000150  0.000356  0.001279  0.000013
  8   -134.30664927  -0.0000022548  0.000041  0.000027  0.000137  0.000003
  9   -134.30664939  -0.0000001184  0.000013  0.000015  0.000028  0.000001
                  ***Gradient check signals convergence***
              ***Rediagonalizing the Fockian in SOSCF/NRSCF***

               *****************************************************
               *                     SUCCESS                       *
               *           SCF CONVERGED AFTER  10 CYCLES          *
               *****************************************************


----------------
TOTAL SCF ENERGY
----------------

Total Energy       :         -134.30664939 Eh           -3654.66973 eV

Components:
Nuclear Repulsion  :           83.15924426 Eh            2262.87808 eV
Electronic Energy  :         -217.46589365 Eh           -5917.54781 eV
One Electron Energy:         -345.42300802 Eh           -9399.43791 eV
Two Electron Energy:          127.95711437 Eh            3481.89010 eV

Virial components:
Potential Energy   :         -268.44223433 Eh           -7304.68456 eV
Kinetic Energy     :          134.13558493 Eh            3650.01483 eV
Virial Ratio       :            2.00127531


---------------
SCF CONVERGENCE
---------------

  Last Energy change         ...   -6.4717e-09  Tolerance :   1.0000e-08
  Last MAX-Density change    ...    1.6042e-05  Tolerance :   1.0000e-07
  Last RMS-Density change    ...    2.3270e-07  Tolerance :   5.0000e-09
  Last Orbital Gradient      ...    2.4900e-06  Tolerance :   1.0000e-05
  Last Orbital Rotation      ...    6.4300e-06  Tolerance :   1.0000e-05

             **** THE GBW FILE WAS UPDATED (000015.gbw) ****
             **** DENSITY 000015.scfp WAS UPDATED ****
             **** ENERGY FILE WAS UPDATED (000015.en.tmp) ****
             **** THE GBW FILE WAS UPDATED (000015.gbw) ****
             **** DENSITY 000015.scfp WAS UPDATED ****
----------------
ORBITAL ENERGIES
----------------

  NO   OCC          E(Eh)            E(eV) 
   0   2.0000     -15.536435      -422.7679 
   1   2.0000     -11.245482      -306.0051 
   2   2.0000     -11.209381      -305.0228 
   3   2.0000      -1.177049       -32.0291 
   4   2.0000      -0.987737       -26.8777 
   5   2.0000      -0.822151       -22.3719 
   6   2.0000      -0.661394       -17.9975 
   7   2.0000      -0.631910       -17.1951 
   8   2.0000      -0.582136       -15.8407 
   9   2.0000      -0.515960       -14.0400 
  10   2.0000      -0.508539       -13.8380 
  11   2.0000      -0.488488       -13.2924 
  12   2.0000      -0.387676       -10.5492 
  13   0.0000       0.029995         0.8162 
  14   0.0000       0.039954         1.0872 
  15   0.0000       0.041014         1.1161 
  16   0.0000       0.044566         1.2127 
  17   0.0000       0.063123         1.7177 
  18   0.0000       0.065543         1.7835 
  19   0.0000       0.066470         1.8087 
  20   0.0000       0.102808         2.7975 
  21   0.0000       0.114002         3.1021 
  22   0.0000       0.119466         3.2508 
  23   0.0000       0.129246         3.5170 
  24   0.0000       0.141162         3.8412 
  25   0.0000       0.144704         3.9376 
  26   0.0000       0.145338         3.9548 
  27   0.0000       0.164959         4.4888 
  28   0.0000       0.168733         4.5915 
  29   0.0000       0.184271         5.0143 
  30   0.0000       0.193460         5.2643 
  31   0.0000       0.225289         6.1304 
  32   0.0000       0.228008         6.2044 
  33   0.0000       0.236240         6.4284 
  34   0.0000       0.256597         6.9824 
  35   0.0000       0.270946         7.3728 
  36   0.0000       0.274598         7.4722 
  37   0.0000       0.284996         7.7551 
  38   0.0000       0.302285         8.2256 
  39   0.0000       0.318030         8.6540 
  40   0.0000       0.320699         8.7267 
  41   0.0000       0.339412         9.2359 
  42   0.0000       0.349694         9.5157 
  43   0.0000       0.356937         9.7128 
  44   0.0000       0.359000         9.7689 
  45   0.0000       0.370679        10.0867 
  46   0.0000       0.374128        10.1805 
  47   0.0000       0.379452        10.3254 
  48   0.0000       0.386611        10.5202 
  49   0.0000       0.398524        10.8444 
  50   0.0000       0.401873        10.9355 
  51   0.0000       0.408887        11.1264 
  52   0.0000       0.419024        11.4022 
  53   0.0000       0.437705        11.9106 
  54   0.0000       0.442018        12.0279 
  55   0.0000       0.450113        12.2482 
  56   0.0000       0.454578        12.3697 
  57   0.0000       0.460244        12.5239 
  58   0.0000       0.466861        12.7039 
  59   0.0000       0.472611        12.8604 
  60   0.0000       0.492747        13.4083 
  61   0.0000       0.495674        13.4880 
  62   0.0000       0.503386        13.6978 
  63   0.0000       0.510996        13.9049 
  64   0.0000       0.520122        14.1532 
  65   0.0000       0.523229        14.2378 
  66   0.0000       0.538247        14.6465 
  67   0.0000       0.547079        14.8868 
  68   0.0000       0.557415        15.1680 
  69   0.0000       0.569666        15.5014 
  70   0.0000       0.587088        15.9755 
  71   0.0000       0.610469        16.6117 
  72   0.0000       0.630486        17.1564 
  73   0.0000       0.663282        18.0488 
  74   0.0000       0.680084        18.5060 
  75   0.0000       0.711638        19.3647 
  76   0.0000       0.739638        20.1266 
  77   0.0000       0.761958        20.7339 
  78   0.0000       0.790901        21.5215 
  79   0.0000       0.811057        22.0700 
  80   0.0000       0.815646        22.1949 
  81   0.0000       0.828682        22.5496 
  82   0.0000       0.835561        22.7368 
  83   0.0000       0.842879        22.9359 
  84   0.0000       0.853176        23.2161 
  85   0.0000       0.876717        23.8567 
  86   0.0000       0.882428        24.0121 
  87   0.0000       0.891089        24.2478 
  88   0.0000       0.905212        24.6321 
  89   0.0000       0.916320        24.9343 
  90   0.0000       0.942841        25.6560 
  91   0.0000       0.945491        25.7281 
  92   0.0000       0.949727        25.8434 
  93   0.0000       0.963352        26.2141 
  94   0.0000       0.964693        26.2506 
  95   0.0000       0.975405        26.5421 
  96   0.0000       0.998842        27.1799 
  97   0.0000       1.019341        27.7377 
  98   0.0000       1.029365        28.0104 
  99   0.0000       1.036660        28.2090 
 100   0.0000       1.043137        28.3852 
 101   0.0000       1.047383        28.5007 
 102   0.0000       1.061381        28.8816 
 103   0.0000       1.071816        29.1656 
 104   0.0000       1.080617        29.4051 
 105   0.0000       1.099172        29.9100 
 106   0.0000       1.114106        30.3164 
 107   0.0000       1.121227        30.5101 
 108   0.0000       1.134701        30.8768 
 109   0.0000       1.144555        31.1449 
 110   0.0000       1.157793        31.5052 
 111   0.0000       1.167011        31.7560 
 112   0.0000       1.185611        32.2621 
 113   0.0000       1.207297        32.8522 
 114   0.0000       1.220702        33.2170 
 115   0.0000       1.224321        33.3155 
 116   0.0000       1.243846        33.8468 
 117   0.0000       1.255124        34.1537 
 118   0.0000       1.264664        34.4133 
 119   0.0000       1.281933        34.8832 
 120   0.0000       1.297459        35.3057 
 121   0.0000       1.304649        35.5013 
 122   0.0000       1.315492        35.7964 
 123   0.0000       1.349273        36.7156 
 124   0.0000       1.364999        37.1435 
 125   0.0000       1.389539        37.8113 
 126   0.0000       1.395668        37.9781 
 127   0.0000       1.416188        38.5364 
 128   0.0000       1.443564        39.2814 
 129   0.0000       1.454539        39.5800 
 130   0.0000       1.482093        40.3298 
 131   0.0000       1.497937        40.7609 
 132   0.0000       1.510602        41.1056 
 133   0.0000       1.522584        41.4316 
 134   0.0000       1.558558        42.4105 
 135   0.0000       1.576624        42.9021 
 136   0.0000       1.594838        43.3978 
 137   0.0000       1.622445        44.1490 
 138   0.0000       1.640954        44.6526 
 139   0.0000       1.659415        45.1550 
 140   0.0000       1.678651        45.6784 
 141   0.0000       1.687241        45.9122 
 142   0.0000       1.699571        46.2477 
 143   0.0000       1.705327        46.4043 
 144   0.0000       1.719410        46.7875 
 145   0.0000       1.727935        47.0195 
 146   0.0000       1.751903        47.6717 
 147   0.0000       1.771540        48.2061 
 148   0.0000       1.776288        48.3352 
 149   0.0000       1.818915        49.4952 
 150   0.0000       1.832033        49.8522 
 151   0.0000       1.868895        50.8552 
 152   0.0000       1.898536        51.6618 
 153   0.0000       1.903536        51.7979 
 154   0.0000       1.922468        52.3130 
 155   0.0000       1.950344        53.0715 
 156   0.0000       1.978193        53.8294 
 157   0.0000       1.991281        54.1855 
 158   0.0000       2.019392        54.9505 
 159   0.0000       2.054315        55.9007 
 160   0.0000       2.068972        56.2996 
 161   0.0000       2.074160        56.4408 
 162   0.0000       2.085208        56.7414 
 163   0.0000       2.118948        57.6595 
 164   0.0000       2.148494        58.4635 
 165   0.0000       2.167811        58.9891 
 166   0.0000       2.212024        60.1922 
 167   0.0000       2.243115        61.0383 
 168   0.0000       2.247512        61.1579 
 169   0.0000       2.252494        61.2935 
 170   0.0000       2.284858        62.1741 
 171   0.0000       2.290899        62.3385 
 172   0.0000       2.333266        63.4914 
 173   0.0000       2.364244        64.3343 
 174   0.0000       2.376063        64.6560 
 175   0.0000       2.415928        65.7407 
 176   0.0000       2.430765        66.1445 
 177   0.0000       2.443622        66.4943 
 178   0.0000       2.484863        67.6166 
 179   0.0000       2.542388        69.1819 
 180   0.0000       2.556704        69.5715 
 181   0.0000       2.596006        70.6409 
 182   0.0000       2.608739        70.9874 
 183   0.0000       2.661059        72.4111 
 184   0.0000       2.701240        73.5045 
 185   0.0000       2.740530        74.5736 
 186   0.0000       2.856192        77.7209 
 187   0.0000       3.000103        81.6370 
 188   0.0000       3.213404        87.4412 
 189   0.0000       3.296131        89.6923 
 190   0.0000       3.390558        92.2618 
 191   0.0000       3.413178        92.8773 
 192   0.0000       3.431817        93.3845 
 193   0.0000       3.478788        94.6626 
 194   0.0000       3.505810        95.3979 
 195   0.0000       3.573094        97.2288 
 196   0.0000       3.611656        98.2782 
 197   0.0000       3.623197        98.5922 
 198   0.0000       3.644387        99.1688 
 199   0.0000       3.656998        99.5120 
 200   0.0000       3.697522       100.6147 
 201   0.0000       3.715921       101.1154 
 202   0.0000       3.748829       102.0108 
 203   0.0000       3.762881       102.3932 
 204   0.0000       3.783862       102.9641 
 205   0.0000       3.805470       103.5521 
 206   0.0000       3.811968       103.7289 
 207   0.0000       3.854453       104.8850 
 208   0.0000       3.892058       105.9083 
 209   0.0000       3.920804       106.6905 
 210   0.0000       3.948250       107.4373 
 211   0.0000       3.964186       107.8710 
 212   0.0000       3.996930       108.7620 
 213   0.0000       4.011077       109.1470 
 214   0.0000       4.018228       109.3415 
 215   0.0000       4.046400       110.1081 
 216   0.0000       4.100822       111.5890 
 217   0.0000       4.127953       112.3273 
 218   0.0000       4.136917       112.5712 
 219   0.0000       4.176404       113.6457 
 220   0.0000       4.187332       113.9431 
 221   0.0000       4.204513       114.4106 
 222   0.0000       4.218066       114.7794 
 223   0.0000       4.223665       114.9318 
 224   0.0000       4.286227       116.6342 
 225   0.0000       4.316111       117.4474 
 226   0.0000       4.338551       118.0580 
 227   0.0000       4.351199       118.4021 
 228   0.0000       4.406527       119.9077 
 229   0.0000       4.434058       120.6568 
 230   0.0000       4.464146       121.4756 
 231   0.0000       4.502926       122.5309 
 232   0.0000       4.507117       122.6449 
 233   0.0000       4.553719       123.9130 
 234   0.0000       4.586350       124.8009 
 235   0.0000       4.602458       125.2393 
 236   0.0000       4.645826       126.4194 
 237   0.0000       4.669046       127.0512 
 238   0.0000       4.686373       127.5227 
 239   0.0000       4.718748       128.4036 
 240   0.0000       4.748877       129.2235 
 241   0.0000       4.816151       131.0541 
 242   0.0000       4.824517       131.2818 
 243   0.0000       4.849253       131.9549 
 244   0.0000       4.862600       132.3181 
 245   0.0000       4.884988       132.9273 
 246   0.0000       4.895619       133.2166 
 247   0.0000       4.922338       133.9436 
 248   0.0000       4.947499       134.6283 
 249   0.0000       5.009822       136.3242 
 250   0.0000       5.028810       136.8409 
 251   0.0000       5.051089       137.4471 
 252   0.0000       5.057915       137.6329 
 253   0.0000       5.090953       138.5319 
 254   0.0000       5.123686       139.4226 
 255   0.0000       5.133073       139.6780 
 256   0.0000       5.166592       140.5901 
 257   0.0000       5.215707       141.9266 
 258   0.0000       5.220430       142.0551 
 259   0.0000       5.290787       143.9696 
 260   0.0000       5.310287       144.5003 
 261   0.0000       5.321899       144.8162 
 262   0.0000       5.328422       144.9937 
 263   0.0000       5.384574       146.5217 
 264   0.0000       5.429652       147.7483 
 265   0.0000       5.444172       148.1435 
 266   0.0000       5.527471       150.4101 
 267   0.0000       5.554231       151.1383 
 268   0.0000       5.572100       151.6245 
 269   0.0000       5.652509       153.8126 
 270   0.0000       5.670599       154.3048 
 271   0.0000       5.758584       156.6990 
 272   0.0000       5.809167       158.0755 
 273   0.0000       5.865903       159.6193 
 274   0.0000       5.895103       160.4139 
 275   0.0000       5.930107       161.3664 
 276   0.0000       5.974267       162.5681 
 277   0.0000       5.989525       162.9833 
 278   0.0000       6.028345       164.0396 
 279   0.0000       6.068170       165.1233 
 280   0.0000       6.107405       166.1909 
 281   0.0000       6.169386       167.8775 
 282   0.0000       6.186377       168.3399 
 283   0.0000       6.223695       169.3554 
 284   0.0000       6.259216       170.3219 
 285   0.0000       6.307337       171.6314 
 286   0.0000       6.386935       173.7973 
 287   0.0000       6.542555       178.0320 
 288   0.0000       6.671545       181.5420 
 289   0.0000       6.722398       182.9258 
 290   0.0000       6.802404       185.1028 
 291   0.0000       6.845076       186.2640 
 292   0.0000       6.866176       186.8382 
 293   0.0000       7.069134       192.3609 
 294   0.0000       7.206278       196.0928 
 295   0.0000       7.826949       212.9821 
 296   0.0000      17.085203       464.9120 
 297   0.0000      17.794139       484.2031 
 298   0.0000      18.475909       502.7550 
------------------
MOLECULAR ORBITALS
------------------
                      0         1         2         3         4         5   
                 -15.53643 -11.24548 -11.20938  -1.17705  -0.98774  -0.82215
                   2.00000   2.00000   2.00000   2.00000   2.00000   2.00000
                  --------  --------  --------  --------  --------  --------
  0C   1s         0.000054  0.008707  0.979504  0.003070 -0.009949 -0.004988
  0C   2s         0.000108  0.000420  0.003831 -0.088737  0.367571  0.243337
  0C   3s         0.000101  0.000690  0.042211 -0.018464  0.074424  0.049023
  0C   4s        -0.003889  0.005572 -0.011104 -0.032288  0.129115  0.141547
  0C   5s        -0.000880  0.000576 -0.000971 -0.000001 -0.009055 -0.048133
  0C   1pz       -0.000006  0.000015  0.000085 -0.000865  0.001748 -0.001827
  0C   1px       -0.000015  0.000167 -0.000115 -0.018334  0.015769 -0.055141
  0C   1py       -0.000018  0.000116 -0.000017 -0.006521  0.014629 -0.045025
  0C   2pz        0.000133  0.000089 -0.000183 -0.000913  0.002693 -0.002417
  0C   2px        0.000537  0.001277  0.001213 -0.024608  0.017525 -0.070354
  0C   2py        0.000226  0.000754  0.000451 -0.006307  0.018618 -0.059433
  0C   3pz       -0.000703 -0.000336 -0.000954  0.006339  0.004337 -0.000205
  0C   3px       -0.002191  0.001388 -0.000809 -0.016573  0.005203 -0.042182
  0C   3py        0.001153  0.001139 -0.002623 -0.015748  0.013683 -0.033903
  0C   4pz       -0.000112 -0.000127 -0.000024  0.001285  0.001211 -0.001716
  0C   4px       -0.000284  0.000153 -0.000346  0.000306 -0.001018 -0.013600
  0C   4py       -0.000099  0.000270 -0.000283 -0.002211  0.000918 -0.005270
  0C   1dz2      -0.000005 -0.000033  0.000028  0.001228 -0.001511  0.003641
  0C   1dxz      -0.000008  0.000005 -0.000027 -0.000177  0.000193 -0.000583
  0C   1dyz       0.000008 -0.000006  0.000005 -0.000066  0.000238 -0.000564
  0C   1dx2y2     0.000022  0.000018 -0.000022 -0.001598  0.000661 -0.002008
  0C   1dxy      -0.000005  0.000096 -0.000088 -0.001613  0.002557 -0.005654
  0C   2dz2      -0.000449  0.000351 -0.000044  0.000851 -0.006947  0.008878
  0C   2dxz       0.000070 -0.000082  0.000276 -0.000033 -0.000238 -0.000701
  0C   2dyz      -0.000142  0.000034  0.000160  0.000835  0.000441 -0.001504
  0C   2dx2y2     0.000300  0.000137  0.000137 -0.001421  0.005339 -0.005754
  0C   2dxy       0.000310 -0.002005  0.001292 -0.002583  0.003979 -0.012160
  0C   3dz2      -0.000129 -0.000606  0.000890  0.005389 -0.003747  0.003660
  0C   3dxz       0.000015 -0.000121  0.000276 -0.000041  0.002060  0.000695
  0C   3dyz       0.000696  0.000027  0.000507 -0.004159 -0.000500 -0.001821
  0C   3dx2y2    -0.000180  0.000479 -0.000465 -0.006675  0.001665 -0.005333
  0C   3dxy      -0.000261 -0.000423 -0.000012  0.004528  0.002277 -0.005182
  0C   1f0        0.000021  0.000022 -0.000235  0.000339 -0.001404 -0.000992
  0C   1f+1      -0.000003  0.000198  0.000016  0.000766 -0.001527  0.000015
  0C   1f-1       0.000041  0.000091 -0.000796  0.001118 -0.004827 -0.002997
  0C   1f+2       0.000002 -0.000028 -0.000060  0.000121 -0.000168 -0.000225
  0C   1f-2       0.000023 -0.000045 -0.000035  0.000002  0.000090 -0.000175
  0C   1f+3       0.000062 -0.000078 -0.000101  0.000821 -0.000265 -0.000772
  0C   1f-3       0.000023  0.000301 -0.000581  0.000949 -0.005336 -0.002116
  0C   2f0        0.000304  0.000015  0.000516 -0.000717  0.000610 -0.000671
  0C   2f+1      -0.000058  0.000713 -0.000697 -0.002113 -0.000863  0.001744
  0C   2f-1       0.000157 -0.000071  0.001592 -0.002595  0.003205 -0.002940
  0C   2f+2       0.000376  0.000162  0.000275 -0.001025 -0.000282  0.000044
  0C   2f-2      -0.000180 -0.000239  0.000142  0.001234 -0.000082 -0.000612
  0C   2f+3       0.000099 -0.000458  0.000278 -0.002721 -0.001038  0.000039
  0C   2f-3      -0.000318  0.000510  0.001144 -0.000715  0.000203  0.000169
  1C   1s         0.000371  0.979863 -0.008645  0.007422 -0.005329  0.005905
  1C   2s         0.000767  0.004231  0.000233 -0.233833  0.225501 -0.311243
  1C   3s         0.000003  0.042094 -0.000184 -0.048686  0.047119 -0.064121
  1C   4s        -0.000994 -0.020196  0.012196  0.045771  0.023685 -0.142143
  1C   5s         0.001081 -0.000867  0.000544  0.018000 -0.008137  0.062005
  1C   1pz        0.000032 -0.000024 -0.000008  0.003937 -0.001220  0.001853
  1C   1px        0.000010  0.000508 -0.000223 -0.034407 -0.065767 -0.027327
  1C   1py        0.000021 -0.000329 -0.000140  0.030942 -0.002110 -0.061022
  1C   2pz       -0.000824 -0.000191 -0.000104  0.006410 -0.001757  0.001980
  1C   2px        0.002133 -0.001350 -0.000431 -0.037733 -0.080987 -0.034986
  1C   2py       -0.001864 -0.000526  0.000236  0.039270 -0.005698 -0.082528
  1C   3pz        0.000339  0.001508  0.001108 -0.007883  0.002971 -0.005589
  1C   3px        0.000917 -0.003749 -0.002774 -0.000731 -0.027920 -0.012261
  1C   3py       -0.002287  0.003428 -0.003693 -0.014274  0.011236 -0.056041
  1C   4pz        0.000162  0.000417 -0.000048 -0.000711 -0.001466  0.001166
  1C   4px       -0.000118 -0.000117 -0.000600  0.000089 -0.001115 -0.008369
  1C   4py       -0.000243  0.000186 -0.000171 -0.000740  0.000246 -0.009164
  1C   1dz2      -0.000110  0.000048 -0.000013  0.004501 -0.000209 -0.005137
  1C   1dxz      -0.000058 -0.000039 -0.000003  0.000941  0.000689  0.000871
  1C   1dyz       0.000051 -0.000017 -0.000004 -0.000669  0.000018  0.000496
  1C   1dx2y2     0.000049 -0.000079  0.000063 -0.002264  0.000155  0.003082
  1C   1dxy      -0.000193  0.000038  0.000080  0.006033  0.008091  0.001878
  1C   2dz2      -0.001011 -0.000760  0.001286  0.008658 -0.005279 -0.011291
  1C   2dxz      -0.000140  0.000323 -0.000009  0.000022 -0.001009  0.004128
  1C   2dyz      -0.000604  0.000132 -0.000140  0.002652  0.001478  0.000859
  1C   2dx2y2     0.000707  0.000976 -0.001195 -0.002215  0.005427  0.005777
  1C   2dxy      -0.001193 -0.000052 -0.001828  0.001326  0.013274  0.003649
  1C   3dz2      -0.000600  0.002096 -0.001735 -0.004828  0.006567 -0.004408
  1C   3dxz       0.001202 -0.000116  0.001171 -0.003285  0.000539 -0.001054
  1C   3dyz      -0.000859  0.000559  0.000125  0.008400  0.003152  0.000255
  1C   3dx2y2     0.000700 -0.000545 -0.001706 -0.006737 -0.006157  0.013473
  1C   3dxy      -0.000306  0.000911  0.000343 -0.000220  0.006537 -0.000697
  1C   1f0       -0.000011  0.000228  0.000014 -0.001111  0.000910 -0.001579
  1C   1f+1       0.000007  0.000038 -0.000238  0.000807  0.001623  0.000326
  1C   1f-1      -0.000019  0.000729  0.000006 -0.003767  0.003062 -0.004393
  1C   1f+2       0.000011  0.000074  0.000045  0.000138 -0.000100  0.000161
  1C   1f-2      -0.000001  0.000055  0.000057 -0.000361 -0.000021 -0.000402
  1C   1f+3       0.000011  0.000064  0.000014 -0.000633  0.000496 -0.000457
  1C   1f-3       0.000038  0.000515 -0.000242 -0.004643  0.003431 -0.004013
  1C   2f0       -0.000328 -0.000816 -0.000064  0.001628 -0.001548 -0.001400
  1C   2f+1      -0.000357 -0.000339 -0.001006 -0.004418  0.000411  0.000070
  1C   2f-1      -0.000463 -0.002441  0.000328  0.005035 -0.005182 -0.000865
  1C   2f+2       0.000596 -0.000070  0.000258 -0.002388 -0.003238  0.001295
  1C   2f-2      -0.000354 -0.000065  0.000053  0.001060  0.000721  0.000027
  1C   2f+3       0.000127  0.000254  0.000355  0.000780 -0.000549 -0.000138
  1C   2f-3       0.000088 -0.000671 -0.000815  0.003739  0.000071  0.002044
  2N   1s         0.977039  0.000031  0.000031  0.009657  0.003342 -0.001661
  2N   2s         0.000247  0.000455  0.000052 -0.420743 -0.187974  0.103209
  2N   3s         0.042741  0.000165  0.000049 -0.098410 -0.045232  0.026052
  2N   4s        -0.002123  0.010099 -0.002752 -0.251751 -0.087497  0.072758
  2N   5s         0.000112 -0.000454  0.001411 -0.022257 -0.001223 -0.005952
  2N   1pz        0.001626  0.000002 -0.000009 -0.028115 -0.016681  0.020521
  2N   1px        0.000064 -0.000207 -0.000014  0.009521 -0.042771  0.061282
  2N   1py        0.000898  0.000136  0.000004 -0.021196  0.008852 -0.062033
  2N   2pz       -0.000750  0.000300  0.000159 -0.042591 -0.024213  0.026466
  2N   2px        0.000935 -0.000022  0.000043  0.014966 -0.051761  0.078847
  2N   2py       -0.001093  0.000350 -0.000285 -0.033264  0.010099 -0.077395
  2N   3pz       -0.002144  0.001284 -0.000573 -0.001759  0.001433  0.006904
  2N   3px       -0.001370 -0.005270  0.002253  0.023039 -0.025101  0.033447
  2N   3py       -0.001051  0.003930  0.000428 -0.009608  0.011130 -0.035955
  2N   4pz       -0.000210 -0.000254  0.000178  0.001553  0.002413 -0.002296
  2N   4px       -0.000319 -0.000598 -0.000183  0.000845 -0.000741 -0.000959
  2N   4py        0.000102  0.000174  0.000144  0.001980 -0.000418 -0.002857
  2N   1dz2      -0.000095 -0.000036 -0.000009  0.002615 -0.000041  0.002033
  2N   1dxz       0.000011  0.000001  0.000000  0.000554 -0.000879  0.001492
  2N   1dyz      -0.000180  0.000026 -0.000017  0.002126  0.001914 -0.003529
  2N   1dx2y2     0.000035  0.000022  0.000050 -0.000923  0.000380  0.000286
  2N   1dxy       0.000100 -0.000096  0.000034  0.001035 -0.002704  0.004698
  2N   2dz2       0.000672  0.000165  0.000300  0.007944 -0.000949  0.004936
  2N   2dxz       0.000155 -0.000136  0.000050  0.000629 -0.001854  0.003217
  2N   2dyz      -0.000022 -0.000241 -0.000107  0.003235  0.004044 -0.007374
  2N   2dx2y2    -0.000428 -0.000184 -0.000664 -0.004469  0.003270  0.001015
  2N   2dxy       0.000724  0.000918 -0.000310  0.007818 -0.002079  0.012510
  2N   3dz2       0.000025 -0.000100  0.000439  0.000070 -0.001184  0.002042
  2N   3dxz       0.000238 -0.000839  0.000543 -0.003124 -0.001953 -0.000721
  2N   3dyz      -0.000061  0.000449 -0.000345 -0.002244 -0.000355 -0.000195
  2N   3dx2y2     0.000224 -0.000562 -0.000964 -0.001774  0.000652  0.000073
  2N   3dxy       0.000120 -0.000367 -0.000688  0.008332 -0.000111  0.005742
  2N   1f0       -0.000036  0.000037 -0.000007  0.001130  0.000401 -0.000304
  2N   1f+1      -0.000141 -0.000129  0.000002 -0.000700  0.000421 -0.000862
  2N   1f-1      -0.000258 -0.000015 -0.000016  0.003017  0.001040  0.000100
  2N   1f+2      -0.000199 -0.000047 -0.000028  0.000476  0.000492 -0.000467
  2N   1f-2      -0.000010  0.000076 -0.000002  0.000857  0.000474 -0.000059
  2N   1f+3       0.000011  0.000073 -0.000037  0.000750  0.000730  0.000795
  2N   1f-3      -0.000304  0.000072  0.000029  0.003948  0.000847  0.000171
  2N   2f0        0.000231  0.000233  0.000115  0.001087 -0.000196  0.000902
  2N   2f+1       0.000160 -0.000039 -0.000028 -0.002077  0.000216 -0.000854
  2N   2f-1       0.000581  0.000044 -0.000011  0.000332  0.000858 -0.000904
  2N   2f+2       0.000405  0.000186  0.000041 -0.000983 -0.000058  0.000455
  2N   2f-2       0.000336  0.000383 -0.000053  0.001725 -0.000417  0.002244
  2N   2f+3       0.000289  0.000380 -0.000299  0.001263  0.001414  0.000968
  2N   2f-3       0.000996  0.000554  0.000032  0.000846  0.000531  0.000947
  3H   1s         0.000001 -0.000013  0.000143 -0.009067  0.061776  0.057730
  3H   2s         0.000225 -0.001574  0.004578 -0.013929  0.072320  0.067103
  3H   3s        -0.002718 -0.001164  0.004124  0.021538  0.008125 -0.001320
  3H   4s        -0.000081 -0.000026 -0.000158  0.002424 -0.001199 -0.005342
  3H   1pz        0.000002 -0.000001  0.000032  0.000050 -0.000485 -0.000545
  3H   1px        0.000010 -0.000000 -0.000223 -0.000923  0.005500  0.003755
  3H   1py       -0.000017 -0.000010  0.000160  0.000496 -0.003534 -0.004478
  3H   2pz        0.000039 -0.000036 -0.000067  0.000511 -0.000035 -0.000296
  3H   2px        0.000368 -0.000595  0.000342 -0.002318  0.003425 -0.000657
  3H   2py        0.000160 -0.000430 -0.000095 -0.000330  0.001966 -0.003608
  3H   3pz       -0.000023  0.000035 -0.000097 -0.000262  0.001529  0.001361
  3H   3px       -0.000587  0.000102  0.000525  0.003592 -0.003062 -0.008372
  3H   3py        0.000181  0.000261 -0.000395 -0.003986  0.006198  0.000567
  3H   1dz2      -0.000009 -0.000001  0.000125  0.000215 -0.000896 -0.000453
  3H   1dxz       0.000015 -0.000001  0.000037  0.000039 -0.000134 -0.000124
  3H   1dyz       0.000000  0.000020 -0.000024 -0.000063  0.000069  0.000167
  3H   1dx2y2     0.000045 -0.000120 -0.000079 -0.000039  0.001040 -0.000351
  3H   1dxy       0.000001 -0.000083  0.000233  0.000173 -0.000649 -0.001205
  3H   2dz2      -0.000069  0.000058  0.000080 -0.000969  0.001626  0.001617
  3H   2dxz       0.000050 -0.000002  0.000043  0.000018  0.000394  0.000380
  3H   2dyz       0.000073  0.000033  0.000013  0.000097 -0.000624 -0.000135
  3H   2dx2y2     0.000062 -0.000078 -0.000114 -0.000314  0.000259 -0.000948
  3H   2dxy       0.000002 -0.000211  0.000340  0.000387  0.004852  0.001473
  4H   1s        -0.000026  0.000014  0.000137 -0.011606  0.058832  0.066275
  4H   2s         0.001139  0.000506  0.003009 -0.016416  0.076891  0.075777
  4H   3s         0.003603  0.000305 -0.000348 -0.031853  0.011653 -0.004588
  4H   4s         0.000032  0.000135 -0.000208 -0.002976  0.000346 -0.001155
  4H   1pz       -0.000012 -0.000006  0.000206  0.000923 -0.004410 -0.005230
  4H   1px       -0.000022 -0.000002 -0.000031 -0.000519  0.000596 -0.000528
  4H   1py        0.000018  0.000015 -0.000197 -0.000927  0.004399  0.004073
  4H   2pz       -0.000211 -0.000496  0.000018 -0.000463 -0.001074 -0.002073
  4H   2px        0.000139 -0.000747  0.000337  0.000253  0.002810 -0.002280
  4H   2py        0.000122 -0.000124 -0.000014 -0.000509  0.003979 -0.000987
  4H   3pz       -0.000557 -0.000015  0.000138  0.003518  0.004556  0.007023
  4H   3px        0.000255 -0.000454 -0.000148  0.002660 -0.000091 -0.001428
  4H   3py        0.000562 -0.000086 -0.000393 -0.002930 -0.003300 -0.006879
  4H   1dz2      -0.000003  0.000084 -0.000077  0.000104  0.000021  0.000643
  4H   1dxz      -0.000011  0.000077  0.000027  0.000169 -0.000309  0.000181
  4H   1dyz      -0.000022 -0.000019  0.000247  0.000228 -0.001085 -0.001145
  4H   1dx2y2     0.000012 -0.000005  0.000116  0.000019 -0.000572 -0.000330
  4H   1dxy       0.000013 -0.000113 -0.000009 -0.000279  0.000628 -0.000294
  4H   2dz2      -0.000091  0.000227 -0.000089  0.001034 -0.002072 -0.000635
  4H   2dxz       0.000008  0.000043 -0.000004 -0.000412 -0.000571  0.000540
  4H   2dyz      -0.000031 -0.000072  0.000234 -0.001119  0.003650  0.002620
  4H   2dx2y2     0.000118 -0.000117  0.000178 -0.001120  0.001575  0.001541
  4H   2dxy       0.000004 -0.000323  0.000096 -0.000147  0.000239 -0.000858
  5H   1s        -0.000017 -0.000005  0.000126 -0.011396  0.058435  0.062667
  5H   2s         0.001143 -0.000001  0.002334 -0.015369  0.078289  0.070241
  5H   3s        -0.000319 -0.000301 -0.003569 -0.007472  0.012469  0.000806
  5H   4s        -0.000151  0.000012 -0.000170 -0.000031  0.001500 -0.002889
  5H   1pz        0.000024  0.000008 -0.000252 -0.001087  0.005348  0.005836
  5H   1px       -0.000007 -0.000008 -0.000033 -0.000529  0.000607 -0.000558
  5H   1py        0.000000  0.000002 -0.000155 -0.000668  0.003310  0.002492
  5H   2pz        0.000168  0.000354 -0.000259 -0.000079  0.002648  0.001816
  5H   2px        0.000247 -0.000635  0.000442 -0.000323  0.002502 -0.002730
  5H   2py        0.000472 -0.000061  0.000006 -0.000816  0.003103 -0.000936
  5H   3pz       -0.000090  0.000027 -0.000848  0.000817 -0.005282 -0.006284
  5H   3px        0.000056 -0.000485  0.000087  0.001474 -0.000165 -0.000831
  5H   3py        0.000364 -0.000223 -0.000470 -0.000797 -0.002966 -0.004758
  5H   1dz2      -0.000010  0.000083 -0.000179 -0.000017  0.000489  0.001050
  5H   1dxz       0.000015 -0.000094 -0.000022 -0.000265  0.000471 -0.000232
  5H   1dyz       0.000035 -0.000003 -0.000208 -0.000265  0.001072  0.000787
  5H   1dx2y2     0.000012 -0.000012  0.000064 -0.000069 -0.000305 -0.000120
  5H   1dxy       0.000004 -0.000075  0.000001 -0.000197  0.000521 -0.000224
  5H   2dz2       0.000008  0.000188 -0.000185  0.000890 -0.003255 -0.001526
  5H   2dxz       0.000012 -0.000029  0.000050  0.000316  0.000435 -0.000442
  5H   2dyz       0.000096  0.000080 -0.000248  0.000786 -0.002943 -0.002342
  5H   2dx2y2    -0.000057 -0.000053  0.000086 -0.000326  0.000642  0.000703
  5H   2dxy      -0.000025 -0.000325  0.000134 -0.000144  0.000128 -0.000723
  6H   1s         0.000087  0.000166  0.000023 -0.025781  0.036598 -0.076978
  6H   2s         0.002621  0.004813 -0.001801 -0.047372  0.055883 -0.090560
  6H   3s         0.001998 -0.001987 -0.001631 -0.009422 -0.006692  0.010070
  6H   4s        -0.000023 -0.000453  0.000102 -0.001571  0.000663  0.002816
  6H   1pz       -0.000044  0.000204  0.000019  0.002237 -0.003331  0.006880
  6H   1px       -0.000009  0.000004 -0.000014 -0.000535 -0.001224 -0.000308
  6H   1py       -0.000033  0.000163 -0.000002  0.001795 -0.001981  0.003126
  6H   2pz       -0.000739 -0.000112  0.000206  0.003220 -0.001947  0.001867
  6H   2px        0.000163  0.000064  0.000938  0.002423 -0.002834 -0.002460
  6H   2py       -0.000252 -0.000524  0.000666  0.002797 -0.005343 -0.001179
  6H   3pz       -0.000541  0.000037  0.001002 -0.000081  0.004854 -0.012733
  6H   3px       -0.000425  0.000141 -0.000079  0.003443 -0.000391  0.000293
  6H   3py        0.000083  0.000186 -0.000174 -0.006644  0.001990 -0.006316
  6H   1dz2       0.000075 -0.000142  0.000059 -0.000061  0.000090 -0.000951
  6H   1dxz       0.000028 -0.000007 -0.000107  0.000137  0.000637  0.000354
  6H   1dyz      -0.000005 -0.000192 -0.000051 -0.000739  0.000854 -0.001033
  6H   1dx2y2    -0.000019  0.000061  0.000010  0.000204 -0.000187  0.000160
  6H   1dxy       0.000060 -0.000009 -0.000091  0.000111  0.000557  0.000422
  6H   2dz2       0.000120 -0.000257  0.000175  0.001489 -0.002487  0.002051
  6H   2dxz      -0.000083  0.000079 -0.000102 -0.000581  0.000339  0.000527
  6H   2dyz       0.000089 -0.000154  0.000010  0.002336 -0.001127  0.002976
  6H   2dx2y2    -0.000084  0.000116 -0.000088 -0.000018  0.001074 -0.001365
  6H   2dxy       0.000035  0.000015 -0.000357 -0.001987 -0.000029  0.000260
  7H   1s         0.000009  0.000126  0.000005 -0.026552  0.037827 -0.084456
  7H   2s         0.000359  0.004934 -0.001904 -0.037864  0.061454 -0.101361
  7H   3s         0.001699  0.001906  0.000509 -0.009055  0.007236  0.009050
  7H   4s         0.000188 -0.000010  0.000106 -0.000744  0.000003  0.004457
  7H   1pz        0.000013 -0.000170 -0.000025 -0.001981  0.002990 -0.006731
  7H   1px       -0.000002  0.000027 -0.000000 -0.000640 -0.001287 -0.000384
  7H   1py       -0.000000  0.000181 -0.000004  0.002339 -0.002795  0.005224
  7H   2pz        0.000036 -0.000028 -0.000075  0.000771  0.002557 -0.002424
  7H   2px       -0.000146  0.000157  0.000925  0.002111 -0.003551 -0.000539
  7H   2py       -0.000147 -0.000440  0.000804  0.002519 -0.004669 -0.000418
  7H   3pz        0.000349  0.000647 -0.000698 -0.000501 -0.001588  0.011122
  7H   3px        0.000401 -0.000085  0.000621  0.001345 -0.000973  0.000333
  7H   3py       -0.000571  0.000178 -0.000617 -0.001358  0.002444 -0.007605
  7H   1dz2       0.000043 -0.000091  0.000061  0.000329 -0.000055 -0.000605
  7H   1dxz      -0.000041  0.000034  0.000093 -0.000179 -0.000531 -0.000199
  7H   1dyz      -0.000010  0.000205  0.000024  0.000668 -0.000831  0.001463
  7H   1dx2y2     0.000013  0.000109  0.000028  0.000346 -0.000387  0.000647
  7H   1dxy       0.000049 -0.000053 -0.000134  0.000236  0.000817  0.000350
  7H   2dz2      -0.000012 -0.000220  0.000184  0.001131 -0.001725  0.001009
  7H   2dxz      -0.000070 -0.000100 -0.000012 -0.000002 -0.000371 -0.000259
  7H   2dyz      -0.000050  0.000223 -0.000003 -0.003204  0.001677 -0.003255
  7H   2dx2y2     0.000035  0.000310 -0.000024 -0.001085  0.001345 -0.001610
  7H   2dxy       0.000046 -0.000050 -0.000353 -0.002302  0.000341 -0.000151
  8H   1s         0.000383  0.000032  0.000004 -0.072691 -0.044579  0.057153
  8H   2s         0.001481 -0.000693 -0.000335 -0.073829 -0.050373  0.073578
  8H   3s        -0.001452  0.001711 -0.003212  0.013336  0.003027  0.008697
  8H   4s         0.000010  0.000113 -0.000031  0.002227  0.000274 -0.001411
  8H   1pz        0.000186  0.000032  0.000032  0.006284  0.003944 -0.005291
  8H   1px       -0.000011  0.000026 -0.000024  0.000790 -0.000634  0.000934
  8H   1py       -0.000169 -0.000024 -0.000007 -0.006778 -0.003734  0.003973
  8H   2pz        0.000030 -0.000139  0.000186  0.000927  0.001560 -0.006157
  8H   2px        0.000348  0.000864 -0.000045  0.005565 -0.002738  0.005731
  8H   2py       -0.000170 -0.000766 -0.000413 -0.006522 -0.002230  0.000594
  8H   3pz        0.000184 -0.000196  0.000533 -0.008565 -0.004809  0.002252
  8H   3px        0.000640  0.000230  0.000155  0.001161 -0.001887  0.003516
  8H   3py       -0.000461  0.000092 -0.000656  0.005655  0.003982 -0.005286
  8H   1dz2      -0.000175  0.000079 -0.000015 -0.000082 -0.000418  0.001069
  8H   1dxz      -0.000070 -0.000102  0.000004 -0.000569  0.000169 -0.000467
  8H   1dyz       0.000425  0.000026  0.000044  0.001255  0.000989 -0.001737
  8H   1dx2y2     0.000174  0.000020  0.000054  0.000832  0.000512 -0.000516
  8H   1dxy       0.000043  0.000123 -0.000004  0.000918 -0.000220  0.000640
  8H   2dz2       0.000056  0.000098  0.000075  0.002115  0.000573  0.000804
  8H   2dxz      -0.000057 -0.000093 -0.000057 -0.000762  0.001060 -0.001324
  8H   2dyz       0.000068  0.000017  0.000115 -0.003113 -0.002268  0.002016
  8H   2dx2y2    -0.000053  0.000208 -0.000065 -0.000207 -0.000785  0.002112
  8H   2dxy       0.000162  0.000223  0.000127  0.001120 -0.001196  0.001918
  9H   1s         0.000396  0.000036  0.000072 -0.071894 -0.051755  0.034012
  9H   2s         0.002267 -0.000860  0.000778 -0.075107 -0.065565  0.038370
  9H   3s        -0.000891  0.002920  0.001430 -0.003124  0.011023 -0.010961
  9H   4s         0.000021  0.000308  0.000177  0.000838  0.001748  0.000505
  9H   1pz        0.000007  0.000015  0.000004 -0.000099 -0.000055  0.000188
  9H   1px        0.000203  0.000052 -0.000041  0.008162  0.005364 -0.002206
  9H   1py        0.000130  0.000012 -0.000019  0.004127  0.003818 -0.003783
  9H   2pz       -0.000028 -0.000137  0.000012 -0.001530 -0.000866  0.000207
  9H   2px        0.000093  0.001219 -0.000349  0.007414  0.006533  0.003455
  9H   2py       -0.000430 -0.000545 -0.000179 -0.002425  0.004031 -0.006807
  9H   3pz        0.000003  0.000116 -0.000060 -0.001630 -0.000739  0.000832
  9H   3px        0.000543 -0.000314 -0.000333 -0.003275 -0.008156  0.010543
  9H   3py       -0.000222 -0.000289 -0.000222 -0.005627 -0.000883 -0.001436
  9H   1dz2       0.000224  0.000051 -0.000012  0.000865  0.000822 -0.000330
  9H   1dxz      -0.000074 -0.000009 -0.000000  0.000034 -0.000012  0.000030
  9H   1dyz      -0.000028  0.000003  0.000013 -0.000227  0.000007  0.000003
  9H   1dx2y2    -0.000234 -0.000169 -0.000002 -0.001397 -0.000656 -0.000714
  9H   1dxy      -0.000352  0.000057  0.000034 -0.000586 -0.001424  0.001519
  9H   2dz2       0.000120  0.000092 -0.000033 -0.001900 -0.001045  0.001626
  9H   2dxz      -0.000030  0.000078 -0.000047  0.001311  0.000336  0.000378
  9H   2dyz      -0.000007 -0.000013 -0.000021 -0.000038  0.000055 -0.000133
  9H   2dx2y2    -0.000190 -0.000329  0.000149 -0.000307  0.000455 -0.002644
  9H   2dxy       0.000118 -0.000079  0.000131  0.003861  0.000726  0.000085
                      6         7         8         9        10        11   
                  -0.66139  -0.63191  -0.58214  -0.51596  -0.50854  -0.48849
                   2.00000   2.00000   2.00000   2.00000   2.00000   2.00000
                  --------  --------  --------  --------  --------  --------
  0C   1s         0.000694 -0.000157 -0.000237 -0.000075 -0.000353 -0.000322
  0C   2s        -0.042104  0.001465  0.011198  0.000957 -0.030228 -0.039684
  0C   3s        -0.008571 -0.000194  0.002473  0.000145 -0.006471 -0.008893
  0C   4s        -0.048559  0.004074  0.036652 -0.024678  0.153796  0.097803
  0C   5s         0.003514  0.011106  0.002677 -0.012482  0.032093  0.015274
  0C   1pz        0.041766  0.092858  0.101112 -0.105906 -0.104386  0.109521
  0C   1px        0.069392 -0.052641  0.009511  0.084310 -0.166586 -0.077395
  0C   1py       -0.012723  0.052141 -0.116602 -0.150812 -0.028363 -0.105540
  0C   2pz        0.055644  0.124195  0.136214 -0.143302 -0.140944  0.149527
  0C   2px        0.088448 -0.069834  0.015238  0.114813 -0.217413 -0.099530
  0C   2py       -0.017083  0.070529 -0.154859 -0.203436 -0.031631 -0.139787
  0C   3pz        0.035217  0.092215  0.099985 -0.124806 -0.124531  0.150638
  0C   3px        0.051448 -0.052375  0.015819  0.094098 -0.150323 -0.046786
  0C   3py       -0.009514  0.051235 -0.116878 -0.196685 -0.000596 -0.115039
  0C   4pz        0.001500  0.004435  0.007667 -0.004892 -0.003104  0.005788
  0C   4px        0.006950  0.000792 -0.000584  0.001055 -0.003776 -0.006189
  0C   4py        0.001707  0.000490 -0.005701 -0.010153 -0.005488 -0.006921
  0C   1dz2      -0.000846 -0.003976  0.005231  0.012614  0.004582  0.004129
  0C   1dxz       0.002132  0.001660  0.001231  0.002914  0.000275 -0.004026
  0C   1dyz      -0.002058 -0.003191 -0.007971  0.005741  0.008860 -0.013207
  0C   1dx2y2     0.001828 -0.001264 -0.003028 -0.007333 -0.001115 -0.007365
  0C   1dxy       0.004530 -0.003227  0.000235  0.009770 -0.012946 -0.003710
  0C   2dz2      -0.003082 -0.011400  0.014719  0.033072  0.013829  0.012516
  0C   2dxz       0.004580  0.005930  0.004488  0.006715 -0.001252 -0.007774
  0C   2dyz      -0.006009 -0.007672 -0.020916  0.014286  0.024420 -0.035321
  0C   2dx2y2     0.004902 -0.003367 -0.005593 -0.012990 -0.006651 -0.020333
  0C   2dxy       0.008145 -0.005550 -0.002001  0.025393 -0.036428 -0.011195
  0C   3dz2      -0.002983 -0.011413  0.012876  0.033722 -0.000017  0.011137
  0C   3dxz       0.000024 -0.008030  0.003294 -0.002689 -0.011311  0.017841
  0C   3dyz      -0.015039 -0.021631 -0.022407 -0.001007  0.007988 -0.021177
  0C   3dx2y2    -0.002971 -0.004001 -0.002785  0.001904 -0.003570 -0.004081
  0C   3dxy       0.004318 -0.005752  0.006445  0.014417 -0.018622 -0.002199
  0C   1f0       -0.000557 -0.001290 -0.000872 -0.000381 -0.000222  0.000953
  0C   1f+1      -0.001031  0.001208  0.000266 -0.000506  0.002757  0.001610
  0C   1f-1       0.000719  0.000062  0.000168 -0.000684  0.000660  0.000297
  0C   1f+2       0.000380  0.000280 -0.000577  0.000472  0.000697 -0.001688
  0C   1f-2       0.000843  0.001523  0.001195  0.000160 -0.000554 -0.000920
  0C   1f+3      -0.001179  0.001976 -0.001959  0.001129 -0.001126  0.000582
  0C   1f-3      -0.000342 -0.000219  0.001134  0.001158  0.003072  0.002500
  0C   2f0        0.000307  0.001036 -0.000563 -0.001508 -0.004961 -0.001030
  0C   2f+1      -0.002332 -0.000273  0.001527 -0.004019  0.006314  0.002856
  0C   2f-1       0.003087 -0.000366 -0.003263 -0.003161 -0.009969 -0.008884
  0C   2f+2      -0.002078 -0.000810 -0.003099  0.001925  0.001410 -0.005691
  0C   2f-2      -0.000469 -0.000137 -0.002186  0.000962 -0.002445 -0.001405
  0C   2f+3       0.000289 -0.001321 -0.000086  0.001911 -0.003500 -0.001875
  0C   2f-3       0.002140 -0.002307  0.000010  0.003070 -0.001268 -0.001407
  1C   1s        -0.000246  0.000141 -0.000328  0.000180 -0.000798 -0.000441
  1C   2s         0.040624  0.003507 -0.004514  0.012684 -0.025269 -0.022339
  1C   3s         0.008505  0.000259 -0.000418  0.002151 -0.005536 -0.005545
  1C   4s        -0.055091  0.126799 -0.077986  0.119654  0.058285  0.145100
  1C   5s        -0.001542  0.011140 -0.006053  0.033874  0.016154 -0.009136
  1C   1pz        0.072815  0.139587  0.080295  0.041873  0.053249 -0.109954
  1C   1px       -0.016638 -0.046725  0.098472 -0.028229  0.161752  0.062979
  1C   1py       -0.077583  0.095864 -0.066331  0.081376  0.046966  0.128283
  1C   2pz        0.098367  0.187291  0.110994  0.055620  0.073740 -0.151659
  1C   2px       -0.023686 -0.051194  0.121971 -0.027568  0.200668  0.080022
  1C   2py       -0.102718  0.122508 -0.086662  0.103152  0.064625  0.172884
  1C   3pz        0.054859  0.093856  0.085149  0.036495  0.055550 -0.154167
  1C   3px       -0.005366  0.003719  0.018087 -0.039592  0.116963  0.071732
  1C   3py       -0.051971  0.041940 -0.052887  0.059399  0.049794  0.137473
  1C   4pz       -0.000647  0.002219 -0.003353 -0.000326 -0.002279  0.000699
  1C   4px        0.000048  0.004342  0.003245  0.001746  0.012619  0.004850
  1C   4py       -0.001365  0.001598 -0.001838 -0.001359  0.001582  0.009891
  1C   1dz2      -0.002689  0.007837 -0.002945  0.007715  0.003611  0.006375
  1C   1dxz       0.001584  0.001457 -0.004309  0.004837  0.002583 -0.003386
  1C   1dyz       0.003883  0.004259  0.006581  0.001878  0.004339 -0.013614
  1C   1dx2y2    -0.003515  0.000244  0.003010 -0.006843 -0.001508 -0.010190
  1C   1dxy      -0.001366  0.005070 -0.005377  0.007631 -0.014302 -0.003748
  1C   2dz2      -0.009578  0.018990 -0.006640  0.018265  0.013197  0.018306
  1C   2dxz       0.002784  0.002829 -0.012192  0.012347  0.006679 -0.008085
  1C   2dyz       0.010597  0.010303  0.016941  0.005370  0.012344 -0.037601
  1C   2dx2y2    -0.005878  0.003833  0.002844 -0.011844 -0.007925 -0.023721
  1C   2dxy      -0.000869  0.004715 -0.008883  0.013770 -0.031534 -0.010043
  1C   3dz2       0.006315  0.006335 -0.009819  0.002602  0.010292  0.011923
  1C   3dxz      -0.018160 -0.012593  0.005629 -0.017922 -0.032250  0.013902
  1C   3dyz       0.013102  0.023779  0.030542  0.002595  0.006083 -0.020210
  1C   3dx2y2     0.011306 -0.007260  0.000789  0.014418 -0.000667  0.000916
  1C   3dxy      -0.001271 -0.001644 -0.000827  0.000567 -0.008919 -0.010513
  1C   1f0       -0.001191 -0.002465 -0.000663 -0.000038  0.000120 -0.000577
  1C   1f+1       0.000386  0.001031 -0.002502  0.000061 -0.004025 -0.000954
  1C   1f-1       0.001828 -0.000382  0.000472  0.000160 -0.000228 -0.000181
  1C   1f+2       0.000197  0.000177 -0.000598 -0.000041 -0.000525  0.001774
  1C   1f-2      -0.000377 -0.000623  0.001953 -0.002386 -0.001167  0.001331
  1C   1f+3       0.001855 -0.000204 -0.002320 -0.003334  0.001433  0.000091
  1C   1f-3       0.001065 -0.001634  0.001118 -0.001679 -0.001500 -0.002710
  1C   2f0       -0.001323  0.001495  0.001906  0.000313  0.004704  0.002147
  1C   2f+1       0.000595 -0.001300  0.000296  0.000781 -0.005062 -0.004019
  1C   2f-1      -0.004516  0.004017 -0.002546  0.004242  0.008336  0.010422
  1C   2f+2      -0.002708 -0.000473 -0.001240 -0.000139  0.000242  0.007962
  1C   2f-2       0.002606 -0.000877  0.000437 -0.000385  0.001492 -0.001203
  1C   2f+3      -0.000622 -0.001486  0.003221  0.000249  0.002127  0.000935
  1C   2f-3      -0.000627  0.001376 -0.001663  0.001028 -0.001183  0.000894
  2N   1s         0.000229 -0.001051  0.000448 -0.001135  0.000054  0.000031
  2N   2s        -0.014964 -0.050228 -0.007535 -0.072586 -0.009484  0.006493
  2N   3s        -0.004489 -0.010587 -0.004149 -0.016912 -0.004553  0.002274
  2N   4s        -0.019222 -0.110637 -0.008491 -0.096244 -0.072895  0.001462
  2N   5s        -0.012407 -0.044254 -0.011989 -0.039641 -0.065885  0.028940
  2N   1pz        0.094731  0.079359 -0.035253  0.053968  0.084643 -0.000766
  2N   1px       -0.137479  0.124525 -0.041475  0.095828 -0.102829 -0.022502
  2N   1py       -0.130677 -0.022745  0.151541 -0.026918  0.037734 -0.081809
  2N   2pz        0.114710  0.100471 -0.039670  0.067586  0.108934 -0.003993
  2N   2px       -0.168720  0.157784 -0.056939  0.122333 -0.130467 -0.024910
  2N   2py       -0.155446 -0.030138  0.189629 -0.034966  0.052149 -0.102449
  2N   3pz        0.057257  0.057122 -0.017727  0.046889  0.063622 -0.011443
  2N   3px       -0.075262  0.087052 -0.038678  0.076351 -0.081735 -0.007051
  2N   3py       -0.061550 -0.024609  0.118864 -0.021401  0.039637 -0.073572
  2N   4pz        0.002828  0.000918  0.003507  0.002522  0.003026 -0.006199
  2N   4px        0.003413  0.008631 -0.001559  0.005254  0.012598 -0.003148
  2N   4py       -0.001113 -0.003271  0.002148 -0.004341  0.002846  0.003214
  2N   1dz2       0.006250  0.002998 -0.004901  0.001951  0.001829  0.002326
  2N   1dxz      -0.003019  0.001158 -0.002774  0.001864 -0.002399  0.001318
  2N   1dyz      -0.004795 -0.000464  0.007441 -0.000980  0.001498 -0.004895
  2N   1dx2y2    -0.002589 -0.001179  0.002447 -0.000672 -0.003581 -0.004093
  2N   1dxy      -0.006930  0.005941 -0.001651  0.004309 -0.006085 -0.002313
  2N   2dz2       0.009296  0.010687 -0.011711  0.006799  0.003065  0.005502
  2N   2dxz      -0.010371  0.000364 -0.006446  0.003743 -0.007706  0.003637
  2N   2dyz      -0.003935  0.001042  0.015578 -0.000538  0.007243 -0.011734
  2N   2dx2y2     0.006084 -0.006997  0.001766 -0.003416 -0.008298 -0.009201
  2N   2dxy      -0.009652  0.015810 -0.010917  0.012902 -0.019082 -0.004023
  2N   3dz2      -0.004263  0.005416 -0.003795  0.005271 -0.003322  0.000817
  2N   3dxz      -0.003551 -0.003643 -0.000643 -0.002656 -0.004135  0.001231
  2N   3dyz       0.006677  0.002773  0.004619  0.002443  0.011208 -0.001275
  2N   3dx2y2     0.009941 -0.001131 -0.004519 -0.003981  0.006791  0.005578
  2N   3dxy       0.001475  0.009946 -0.011635  0.008596 -0.008418  0.008644
  2N   1f0       -0.001851 -0.000927 -0.000124 -0.000264 -0.001183  0.000372
  2N   1f+1       0.000808 -0.002342  0.001086 -0.001396  0.000868 -0.000010
  2N   1f-1       0.000387  0.000605 -0.001079  0.000580 -0.001506  0.000021
  2N   1f+2       0.000251 -0.000020  0.001025 -0.000220  0.000194 -0.000768
  2N   1f-2       0.000085 -0.001188 -0.000994 -0.000491 -0.000755  0.001096
  2N   1f+3       0.001244 -0.000217 -0.000731  0.000114 -0.001883 -0.001224
  2N   1f-3      -0.000663  0.002226 -0.001623  0.001725 -0.000850  0.000851
  2N   2f0        0.000632  0.000469 -0.002106  0.000650 -0.000697  0.001012
  2N   2f+1       0.000098 -0.002355  0.001275 -0.001500  0.000776  0.000072
  2N   2f-1       0.000203 -0.000179  0.001929 -0.000406  0.001557 -0.000893
  2N   2f+2       0.000946  0.000018  0.001061  0.000044  0.000196 -0.000933
  2N   2f-2      -0.001396  0.002276 -0.001926  0.002090 -0.002731  0.000797
  2N   2f+3      -0.000956  0.002637 -0.003251  0.002667 -0.004742 -0.000300
  2N   2f-3      -0.000770  0.002780 -0.001295  0.002771 -0.000402  0.000581
  3H   1s        -0.048674  0.055381 -0.046940 -0.130491  0.077385 -0.004571
  3H   2s        -0.059008  0.067525 -0.064559 -0.158709  0.077184 -0.016930
  3H   3s        -0.003217 -0.021929  0.027081  0.042277 -0.034665  0.018633
  3H   4s         0.002933 -0.000102  0.003186  0.004095  0.004501 -0.001055
  3H   1pz        0.001263  0.001310  0.002548 -0.001040 -0.002806  0.002260
  3H   1px       -0.003328  0.004474 -0.004269 -0.008839  0.002916 -0.001659
  3H   1py        0.002945 -0.002501  0.000566  0.005028 -0.005478 -0.001990
  3H   2pz        0.002140  0.005609  0.005516 -0.005946 -0.007532  0.006626
  3H   2px        0.000306  0.000655 -0.003857  0.001752 -0.012364 -0.006714
  3H   2py        0.001681  0.000891 -0.005190 -0.003989 -0.006208 -0.008008
  3H   3pz        0.002328  0.003174  0.002603 -0.004648 -0.003073  0.009996
  3H   3px        0.001196 -0.008603  0.008876  0.024432 -0.017122  0.004737
  3H   3py       -0.006410  0.006922 -0.005544 -0.013051  0.010411 -0.001360
[...]
 17   0.000274132448   0.000024920565         0.013
 18   0.000115995804   0.000018559281         0.013
 19   0.000190720585   0.000030964259         0.013
 20   0.000484931916   0.000131550057         0.013
 21   0.001295761154   0.000182815631         0.013
 22   0.000518134804   0.000037419643         0.014
 23   0.000191885832   0.000024098935         0.013
 24   0.000195159528   0.000023769716         0.013
 25   0.000229278763   0.000029003391         0.014
 26   0.000360693764   0.000152670342         0.014
 27   0.000809692604   0.000117195299         0.014
 28   0.000244954814   0.000028363165         0.013
 29   0.000035207309   0.000006317139         0.013

      *** CONVERGENCE OF RESIDUAL NORM REACHED ***
       --- The STEOM iterations have converged ---
Solving Root No  10 

Iter    Delta-E          Residual              Time
---------------------------------------------------
  0   0.323311263776   0.004761045565         0.013
  1   0.003733561029   0.007714961237         0.013
  2   0.002002022295   0.009662083065         0.013
  3   0.000201939338   0.004411379405         0.013
  4   0.002220831818   0.012592527746         0.013
  5   0.002893285516   0.002406620237         0.013
  6   0.000807154350   0.002246873170         0.012
  7   0.002290674817   0.003943821210         0.012
  8   0.000994488276   0.000601011718         0.012
  9   0.000017328593   0.000435362620         0.013
 10   0.000393646270   0.001284264175         0.013
 11   0.000135432975   0.000158060465         0.012
 12   0.000021003747   0.000195316003         0.012
 13   0.001069493516   0.005032643457         0.012
 14   0.000851566967   0.000181537745         0.012
 15   0.000791729452   0.001299994724         0.012
 16   0.001255249605   0.000194115619         0.012
 17   0.000141314690   0.000032585112         0.012
 18   0.000143557297   0.000049962713         0.013
 19   0.000823650389   0.000549927684         0.012
 20   0.001388319986   0.000131655209         0.012
 21   0.000339777834   0.000039338845         0.012
 22   0.000105952637   0.000042864112         0.012
 23   0.000478029913   0.000410761854         0.012
 24   0.000922005287   0.000092017210         0.012
 25   0.000099966763   0.000017929814         0.012
 26   0.000032151274   0.000008042860         0.012

      *** CONVERGENCE OF RESIDUAL NORM REACHED ***
       --- The STEOM iterations have converged ---

------------------
STEOM-CCSD RESULTS
------------------

IROOT=  1:  0.215676 au     5.869 eV   47335.5 cm**-1
  Amplitude    Excitation
   0.801162    12 ->  13
   0.116528    12 ->  16
   0.104927    12 ->  20
   0.544666    12 ->  22
  Ground state amplitude: -0.008898

Percentage Active Character     99.20

  Amplitude    Excitation in Canonical Basis
   0.760072    12 ->  13
   0.239343    12 ->  14
  -0.124981    12 ->  20
   0.141167    12 ->  21
   0.346678    12 ->  22
  -0.225839    12 ->  24
   0.228498    12 ->  26
  -0.113901    12 ->  36

IROOT=  2:  0.257250 au     7.000 eV   56459.8 cm**-1
  Amplitude    Excitation
   0.180778    12 ->  14
  -0.269152    12 ->  15
  -0.657240    12 ->  16
  -0.290415    12 ->  18
   0.502021    12 ->  19
   0.312558    12 ->  20
  Ground state amplitude: -0.001227

Percentage Active Character     99.24

  Amplitude    Excitation in Canonical Basis
   0.824752    12 ->  15
   0.298594    12 ->  18
  -0.126316    12 ->  20
  -0.165182    12 ->  22
   0.102751    12 ->  23
  -0.263301    12 ->  25
   0.224709    12 ->  29
   0.103538    12 ->  30

IROOT=  3:  0.266010 au     7.239 eV   58382.5 cm**-1
  Amplitude    Excitation
   0.122969    12 ->  13
   0.444628    12 ->  14
   0.713218    12 ->  15
   0.112140    12 ->  17
   0.423148    12 ->  18
   0.223212    12 ->  21
  -0.112999    12 ->  22
  Ground state amplitude:  0.003661

Percentage Active Character     99.18

  Amplitude    Excitation in Canonical Basis
   0.360724    12 ->  13
  -0.555428    12 ->  14
  -0.147853    12 ->  15
   0.495105    12 ->  16
   0.305013    12 ->  17
  -0.175674    12 ->  23
  -0.241105    12 ->  24
  -0.133681    12 ->  26
  -0.127315    12 ->  27
  -0.112906    12 ->  29

IROOT=  4:  0.269172 au     7.325 eV   59076.5 cm**-1
  Amplitude    Excitation
  -0.156504    12 ->  14
   0.826093    12 ->  15
  -0.281838    12 ->  16
   0.156065    12 ->  17
  -0.238836    12 ->  20
   0.308389    12 ->  21
  Ground state amplitude: -0.009582

Percentage Active Character     98.80

  Amplitude    Excitation in Canonical Basis
   0.192467    12 ->  13
  -0.130650    12 ->  15
   0.830520    12 ->  16
  -0.109163    12 ->  18
   0.134067    12 ->  20
   0.195625    12 ->  21
  -0.181066    12 ->  23
  -0.172335    12 ->  24
  -0.130891    12 ->  25
  -0.218961    12 ->  26
   0.100449    12 ->  27

IROOT=  5:  0.296797 au     8.076 eV   65139.4 cm**-1
  Amplitude    Excitation
  -0.171578    12 ->  13
  -0.562565    12 ->  14
   0.218947    12 ->  16
  -0.127806    12 ->  17
   0.406678    12 ->  18
   0.463647    12 ->  19
   0.375294    12 ->  20
   0.135430    12 ->  21
   0.169596    12 ->  22
  Ground state amplitude: -0.008303

Percentage Active Character     98.58

  Amplitude    Excitation in Canonical Basis
  -0.295829    12 ->  13
   0.328170    12 ->  14
  -0.209307    12 ->  15
   0.647792    12 ->  17
   0.262032    12 ->  18
  -0.211885    12 ->  19
  -0.206186    12 ->  20
   0.114649    12 ->  21
   0.197124    12 ->  22
   0.262442    12 ->  30
  -0.105113    12 ->  33

IROOT=  6:  0.302234 au     8.224 eV   66332.7 cm**-1
  Amplitude    Excitation
  -0.282224    12 ->  15
  -0.442089    12 ->  16
   0.152129    12 ->  17
   0.611517    12 ->  18
  -0.463319    12 ->  19
   0.154196    12 ->  20
   0.209579    12 ->  21
   0.156378    12 ->  22
  Ground state amplitude: -0.002374

Percentage Active Character     99.46

  Amplitude    Excitation in Canonical Basis
  -0.156968    12 ->  13
   0.107848    12 ->  14
   0.247246    12 ->  15
   0.193706    12 ->  17
  -0.680604    12 ->  18
   0.283738    12 ->  19
  -0.338473    12 ->  20
   0.227090    12 ->  21
   0.153415    12 ->  22
  -0.116062    12 ->  25
  -0.153530    12 ->  27
  -0.191935    12 ->  29
  -0.105508    12 ->  36

IROOT=  7:  0.306799 au     8.348 eV   67334.5 cm**-1
  Amplitude    Excitation
  -0.163476    12 ->  14
   0.327498    12 ->  16
   0.844793    12 ->  17
   0.322654    12 ->  20
  -0.150291    12 ->  22
  Ground state amplitude:  0.008817

Percentage Active Character     99.42

  Amplitude    Excitation in Canonical Basis
   0.106893    12 ->  14
  -0.228886    12 ->  15
   0.113259    12 ->  17
   0.404710    12 ->  18
   0.752793    12 ->  19
  -0.258008    12 ->  20
  -0.106894    12 ->  22
   0.103226    12 ->  27
   0.104641    12 ->  28
   0.100779    12 ->  30
   0.201342    12 ->  31

IROOT=  8:  0.308484 au     8.394 eV   67704.5 cm**-1
  Amplitude    Excitation
   0.225538    12 ->  15
   0.169254    12 ->  16
  -0.319456    12 ->  17
  -0.195941    12 ->  18
  -0.307854    12 ->  19
   0.764994    12 ->  20
   0.261407    12 ->  21
  Ground state amplitude: -0.002831

Percentage Active Character     98.50

  Amplitude    Excitation in Canonical Basis
  -0.243628    12 ->  15
  -0.111500    12 ->  17
  -0.324544    12 ->  19
  -0.771224    12 ->  20
  -0.235776    12 ->  22
  -0.104475    12 ->  28
   0.151032    12 ->  35
  -0.185890    12 ->  37

IROOT=  9:  0.317176 au     8.631 eV   69612.2 cm**-1
  Amplitude    Excitation
  -0.500507    12 ->  13
   0.300936    12 ->  14
  -0.269528    12 ->  18
  -0.149953    12 ->  19
   0.114654    12 ->  21
   0.682775    12 ->  22
  -0.145173    12 ->  23
   0.120892    12 ->  27
  Ground state amplitude: -0.008321

Percentage Active Character     94.18

Warning:: the state may have not converged with respect to active space 
-------------------- Handle with Care -------------------- 

  Amplitude    Excitation in Canonical Basis
  -0.381922    12 ->  13
  -0.354304    12 ->  14
   0.115571    12 ->  15
  -0.448096    12 ->  17
  -0.115884    12 ->  20
   0.194116    12 ->  21
   0.445031    12 ->  22
  -0.264909    12 ->  24
   0.227772    12 ->  26
  -0.107432    12 ->  28
  -0.161546    12 ->  32
  -0.184588    12 ->  36

IROOT= 10:  0.322276 au     8.770 eV   70731.5 cm**-1
  Amplitude    Excitation
   0.208616    12 ->  15
  -0.320506    12 ->  16
  -0.222530    12 ->  19
   0.247560    12 ->  20
  -0.739875    12 ->  21
  -0.274249    12 ->  23
  -0.116131    12 ->  24
   0.188308    12 ->  27
  -0.108265    12 ->  38
  Ground state amplitude:  0.020289

Percentage Active Character     82.65

Warning:: the state may have not converged with respect to active space 
-------------------- Handle with Care -------------------- 

  Amplitude    Excitation in Canonical Basis
   0.168790    12 ->  14
   0.157790    12 ->  15
   0.246045    12 ->  16
  -0.204263    12 ->  17
  -0.159305    12 ->  18
  -0.213966    12 ->  20
  -0.764200    12 ->  21
   0.152501    12 ->  23
   0.131081    12 ->  25
   0.235142    12 ->  28
  -0.181101    12 ->  38


STEOM-CCSD done (   84.5 sec)
Calculating the Dipole integrals                  ... done
Transforming integrals                            ... done
Calculating the Linear Momentum integrals         ... done
Transforming integrals                            ... done
Calculating angular momentum integrals            ... done
Transforming integrals                            ... done

--------------------------------------------------------------------
               UNRELAXED EXCITED STATE DIPOLE MOMENTS
--------------------------------------------------------------------
               E(eV)     DX(au)      DY(au)      DZ(au)      |D|(D)
IROOT=  0:     0.000    0.044261    0.243431    0.439244    1.281410
IROOT=  1:     5.869   -2.229941    0.150680   -0.531329    5.839309
IROOT=  2:     7.000   -0.931065    0.340625   -0.353799    2.675636
IROOT=  3:     7.239    1.358590   -1.629083   -1.149055    6.132008
IROOT=  4:     7.325    0.663086    0.013062    1.565229    4.320903
IROOT=  5:     8.076    3.009954    0.336411    0.407358    7.767652
IROOT=  6:     8.224    2.322601   -0.863387   -0.085657    6.302045
IROOT=  7:     8.348    2.832305    1.840624   -0.344728    8.630401
IROOT=  8:     8.394    1.233461    0.240766    1.290113    4.577908
IROOT=  9:     8.631   -0.064240   -1.522154    0.123292    3.885112
IROOT= 10:     8.770    2.086587   -0.491233    1.177910    6.217087
--------------------------------------------------------------------

-----------------------------------------------------------------------------
         ABSORPTION SPECTRUM VIA TRANSITION ELECTRIC DIPOLE MOMENTS
-----------------------------------------------------------------------------
State   Energy  Wavelength   fosc         T2         TX        TY        TZ  
        (cm-1)    (nm)                  (au**2)     (au)      (au)      (au) 
-----------------------------------------------------------------------------
   1   47335.5    211.3   0.017294441   0.12028   0.13087   0.10181   0.30369
   2   56459.8    177.1   0.002692726   0.01570   0.00530   0.03788   0.10735
   3   58382.5    171.3   0.031240696   0.17616   0.17757   0.24080   0.29174
   4   59076.5    169.3   0.037493241   0.20894   0.10312   0.32769   0.29571
   5   65139.4    153.5   0.008763125   0.04429   0.19575   0.06305   0.02888
   6   66332.7    150.8   0.004472297   0.02220   0.01112   0.06660   0.13252
   7   67334.5    148.5   0.002433398   0.01190   0.03608   0.00787   0.10065
   8   67704.5    147.7   0.005252844   0.02554   0.08458   0.10798   0.08126
   9   69612.2    143.7   0.005484514   0.02594   0.09163   0.06294   0.11622
  10   70731.5    141.4   0.004906215   0.02284   0.14054   0.01634   0.04533

-------------------------------------------------------------------
                             CD SPECTRUM
-------------------------------------------------------------------
State   Energy Wavelength       R         MX        MY        MZ   
        (cm-1)   (nm)       (1e40*cgs)   (au)      (au)      (au)  
-------------------------------------------------------------------
   1     211.3   47335.5     -0.99635   0.17792   0.26177  -0.13581
   2     177.1   56459.8     -0.52914   0.02935  -0.01720   0.03647
   3     171.3   58382.5     -0.67098   0.10766  -0.02075   0.02835
   4     169.3   59076.5     -0.38658  -0.00560  -0.01389   0.00294
   5     153.5   65139.4      3.74883   0.15319   0.11643  -0.01307
   6     150.8   66332.7     -0.84202   0.15950   0.15685  -0.02694
   7     148.5   67334.5     -0.18683   0.09359   0.06830  -0.01302
   8     147.7   67704.5     -1.44750   0.24032   0.02819   0.14342
   9     143.7   69612.2     -0.09550   0.05611   0.16355  -0.10746
  10     141.4   70731.5      0.17420   0.00300  -0.05479   0.00856

TDM done (   85.3 sec)
STEOM-CCSD done in (   85.3)


------------------------------------------------------------------------------- 
                                     TIMINGS                                   
------------------------------------------------------------------------------- 


Total execution time                   ...      369.322 sec

Localization of occupied MO's          ...        0.456 sec (  0.1%)
Fock Matrix Formation                  ...        6.940 sec (  1.9%)
Global overlap, Fock, MKN matrices     ...        0.264 sec (  0.1%)
Differential overlap integrals         ...        0.336 sec (  0.1%)
Organizing maps                        ...        0.012 sec (  0.0%)
RI 3-index integral generations        ...        2.037 sec (  0.6%)
RI-PNO integral transformation         ...       21.809 sec (  5.9%)
Initial Guess                          ...        1.491 sec (  0.4%)
DIIS Solver                            ...        0.066 sec (  0.0%)
State Vector Update                    ...        0.005 sec (  0.0%)
Sigma-vector construction              ...       22.133 sec (  6.0%)
  <D|H|D>(0-ext)                       ...        0.305 sec (  1.4% of sigma)
  <D|H|D>(2-ext Fock)                  ...        0.004 sec (  0.0% of sigma)
  <D|H|D>(2-ext)                       ...        2.110 sec (  9.5% of sigma)
  <D|H|D>(4-ext)                       ...        3.768 sec ( 17.0% of sigma)
  <D|H|D>(4-ext-corr)                  ...       12.916 sec ( 58.4% of sigma)
  CCSD doubles correction              ...        0.037 sec (  0.2% of sigma)
  <S|H|S>                              ...        0.360 sec (  1.6% of sigma)
  <S|H|D>(1-ext)                       ...        0.058 sec (  0.3% of sigma)
  <D|H|S>(1-ext)                       ...        0.002 sec (  0.0% of sigma)
  <S|H|D>(3-ext)                       ...        0.099 sec (  0.4% of sigma)
  Fock-dressing                        ...        1.641 sec (  7.4% of sigma)
  Singles amplitudes                   ...        0.087 sec (  0.4% of sigma)
  (ik|jl)-dressing                     ...        0.201 sec (  0.9% of sigma)
  (ij|ab),(ia|jb)-dressing             ...        0.499 sec (  2.3% of sigma)
  Pair energies                        ...        0.003 sec (  0.0% of sigma)
Total Time for computing EOM-CCSD      ...      213.325 sec ( 57.8% of ALL)
  Dressing integrals                   ...        0.958 sec (  0.4% of (EOM))
  Initial EOM-Guess                    ...        0.002 sec (  0.0% of (EOM))
  EOM Singles                          ...        3.473 sec (  1.6% of (EOM))
  EOM Doubles                          ...      188.105 sec ( 88.2% of (EOM))
  Build Hamiltonian                    ...        2.222 sec (  1.0% of (EOM))
  Diagonalize Hamiltonian              ...        0.193 sec (  0.1% of (EOM))
  Ritz vectors                         ...        4.164 sec (  2.0% of (EOM))
  Residual vectors                     ...        4.425 sec (  2.1% of (EOM))
One-particle density matrix            ...        0.114 sec (  0.0%)


Maximum memory used throughout the entire MDCI-calculation: 1347.3 MB

-------------------------   --------------------
FINAL SINGLE POINT ENERGY      -134.712425540863
-------------------------   --------------------


                            ***************************************
                            *     ORCA property calculations      *
                            ***************************************

                                    ---------------------
                                    Active property flags
                                    ---------------------
   (+) Dipole Moment


------------------------------------------------------------------------------
                       ORCA ELECTRIC PROPERTIES CALCULATION
------------------------------------------------------------------------------

Dipole Moment Calculation                       ... on
Quadrupole Moment Calculation                   ... off
Polarizability Calculation                      ... off
GBWName                                         ... 000015.gbw
Electron density file                           ... 000015.scfp
The origin for moment calculation is the CENTER OF MASS  = ( 0.052415, -0.012159 -0.027457)

-------------
DIPOLE MOMENT
-------------
                                X             Y             Z
Electronic contribution:      1.41475      -0.06690      -0.25896
Nuclear contribution   :     -1.36278       0.31614       0.71388
                        -----------------------------------------
Total Dipole Moment    :      0.05196       0.24924       0.45492
                        -----------------------------------------
Magnitude (a.u.)       :      0.52132
Magnitude (Debye)      :      1.32508



--------------------
Rotational spectrum 
--------------------
 
Rotational constants in cm-1:     1.097882     0.299828     0.262994 
Rotational constants in MHz : 32913.666542  8988.614499  7884.375640 

 Dipole components along the rotational axes: 
x,y,z [a.u.] :    -0.040518     0.276261     0.440236 
x,y,z [Debye]:    -0.102987     0.702199     1.118992 

 

                           *** MDCI DENSITY ***

------------------------------------------------------------------------------
                       ORCA ELECTRIC PROPERTIES CALCULATION
------------------------------------------------------------------------------

Dipole Moment Calculation                       ... on
Quadrupole Moment Calculation                   ... off
Polarizability Calculation                      ... off
GBWName                                         ... 000015.gbw
Electron density file                           ... 000015.mdcip
The origin for moment calculation is the CENTER OF MASS  = ( 0.052415, -0.012159 -0.027457)

-------------
DIPOLE MOMENT
-------------
                                X             Y             Z
Electronic contribution:      1.40693      -0.07587      -0.28122
Nuclear contribution   :     -1.36278       0.31614       0.71388
                        -----------------------------------------
Total Dipole Moment    :      0.04415       0.24026       0.43266
                        -----------------------------------------
Magnitude (a.u.)       :      0.49686
Magnitude (Debye)      :      1.26292



--------------------
Rotational spectrum 
--------------------
 
Rotational constants in cm-1:     1.097882     0.299828     0.262994 
Rotational constants in MHz : 32913.666542  8988.614499  7884.375640 

 Dipole components along the rotational axes: 
x,y,z [a.u.] :    -0.033205     0.265862     0.418433 
x,y,z [Debye]:    -0.084400     0.675767     1.063571 

 

Timings for individual modules:

Sum of individual times         ...      424.465 sec (=   7.074 min)
GTO integral calculation        ...        0.535 sec (=   0.009 min)   0.1 %
SCF iterations                  ...       54.147 sec (=   0.902 min)  12.8 %
MDCI module                     ...      369.783 sec (=   6.163 min)  87.1 %
                             ****ORCA TERMINATED NORMALLY****
TOTAL RUN TIME: 0 days 0 hours 7 minutes 4 seconds 949 msec
