
                                        *****************
                                        * O   R   C   A *
                                        *****************

                                            #,                                       
                                            ###                                      
                                            ####                                     
                                            #####                                    
                                            ######                                   
                                           ########,                                 
                                     ,,################,,,,,                         
                               ,,#################################,,                 
                          ,,##########################################,,             
                       ,#########################################, ''#####,          
                    ,#############################################,,   '####,        
                  ,##################################################,,,,####,       
                ,###########''''           ''''###############################       
              ,#####''   ,,,,##########,,,,          '''####'''          '####       
            ,##' ,,,,###########################,,,                        '##       
           ' ,,###''''                  '''############,,,                           
         ,,##''                                '''############,,,,        ,,,,,,###''
      ,#''                                            '''#######################'''  
     '                                                          ''''####''''         
             ,#######,   #######,   ,#######,      ##                                
            ,#'     '#,  ##    ##  ,#'     '#,    #''#        ######   ,####,        
            ##       ##  ##   ,#'  ##            #'  '#       #        #'  '#        
            ##       ##  #######   ##           ,######,      #####,   #    #        
            '#,     ,#'  ##    ##  '#,     ,#' ,#      #,         ##   #,  ,#        
             '#######'   ##     ##  '#######'  #'      '#     #####' # '####'        



                  #######################################################
                  #                        -***-                        #
                  #          Department of theory and spectroscopy      #
                  #    Directorship and core code : Frank Neese         #
                  #        Max Planck Institute fuer Kohlenforschung    #
                  #                Kaiser Wilhelm Platz 1               #
                  #                 D-45470 Muelheim/Ruhr               #
                  #                      Germany                        #
                  #                                                     #
                  #                  All rights reserved                #
                  #                        -***-                        #
                  #######################################################


                         Program Version 5.0.0 -  RELEASE  -
                                (SVN: $Rev: 19529$)
                ($Date: 2021-06-28 11:36:33 +0200 (Mo, 28 Jun 2021) $)


 With contributions from (in alphabetic order):
   Daniel Aravena         : Magnetic Suceptibility
   Michael Atanasov       : Ab Initio Ligand Field Theory (pilot matlab implementation)
   Alexander A. Auer      : GIAO ZORA, VPT2 properties, NMR spectrum
   Ute Becker             : Parallelization
   Giovanni Bistoni       : ED, misc. LED, open-shell LED, HFLD
   Martin Brehm           : Molecular dynamics
   Dmytro Bykov           : SCF Hessian
   Vijay G. Chilkuri      : MRCI spin determinant printing, contributions to CSF-ICE
   Dipayan Datta          : RHF DLPNO-CCSD density
   Achintya Kumar Dutta   : EOM-CC, STEOM-CC
   Dmitry Ganyushin       : Spin-Orbit,Spin-Spin,Magnetic field MRCI
   Miquel Garcia          : C-PCM Hessian, Gaussian charge scheme
   Yang Guo               : DLPNO-NEVPT2, F12-NEVPT2, CIM, IAO-localization
   Andreas Hansen         : Spin unrestricted coupled pair/coupled cluster methods
   Benjamin Helmich-Paris : MC-RPA, TRAH-SCF, COSX integrals
   Lee Huntington         : MR-EOM, pCC
   Robert Izsak           : Overlap fitted RIJCOSX, COSX-SCS-MP3, EOM
   Marcus Kettner         : VPT2
   Christian Kollmar      : KDIIS, OOCD, Brueckner-CCSD(T), CCSD density, CASPT2, CASPT2-K
   Simone Kossmann        : Meta GGA functionals, TD-DFT gradient, OOMP2, MP2 Hessian
   Martin Krupicka        : Initial AUTO-CI
   Lucas Lang             : DCDCAS
   Marvin Lechner         : AUTO-CI (C++ implementation), FIC-MRCC
   Dagmar Lenk            : GEPOL surface, SMD
   Dimitrios Liakos       : Extrapolation schemes; Compound Job, initial MDCI parallelization
   Dimitrios Manganas     : Further ROCIS development; embedding schemes
   Dimitrios Pantazis     : SARC Basis sets
   Anastasios Papadopoulos: AUTO-CI, single reference methods and gradients
   Taras Petrenko         : DFT Hessian,TD-DFT gradient, ASA, ECA, R-Raman, ABS, FL, XAS/XES, NRVS
   Peter Pinski           : DLPNO-MP2, DLPNO-MP2 Gradient
   Christoph Reimann      : Effective Core Potentials
   Marius Retegan         : Local ZFS, SOC
   Christoph Riplinger    : Optimizer, TS searches, QM/MM, DLPNO-CCSD(T), (RO)-DLPNO pert. Triples
   Tobias Risthaus        : Range-separated hybrids, TD-DFT gradient, RPA, STAB
   Michael Roemelt        : Original ROCIS implementation
   Masaaki Saitow         : Open-shell DLPNO-CCSD energy and density
   Barbara Sandhoefer     : DKH picture change effects
   Avijit Sen             : IP-ROCIS
   Kantharuban Sivalingam : CASSCF convergence, NEVPT2, FIC-MRCI
   Bernardo de Souza      : ESD, SOC TD-DFT
   Georgi Stoychev        : AutoAux, RI-MP2 NMR
   Willem Van den Heuvel  : Paramagnetic NMR
   Boris Wezisla          : Elementary symmetry handling
   Frank Wennmohs         : Technical directorship


 We gratefully acknowledge several colleagues who have allowed us to
 interface, adapt or use parts of their codes:
   Stefan Grimme, W. Hujo, H. Kruse, P. Pracht,  : VdW corrections, initial TS optimization,
                  C. Bannwarth, S. Ehlert          DFT functionals, gCP, sTDA/sTD-DF
   Ed Valeev, F. Pavosevic, A. Kumar             : LibInt (2-el integral package), F12 methods
   Garnet Chan, S. Sharma, J. Yang, R. Olivares  : DMRG
   Ulf Ekstrom                                   : XCFun DFT Library
   Mihaly Kallay                                 : mrcc  (arbitrary order and MRCC methods)
   Jiri Pittner, Ondrej Demel                    : Mk-CCSD
   Frank Weinhold                                : gennbo (NPA and NBO analysis)
   Christopher J. Cramer and Donald G. Truhlar   : smd solvation model
   Lars Goerigk                                  : TD-DFT with DH, B97 family of functionals
   V. Asgeirsson, H. Jonsson                     : NEB implementation
   FAccTs GmbH                                   : IRC, NEB, NEB-TS, DLPNO-Multilevel, CI-OPT
                                                   MM, QMMM, 2- and 3-layer-ONIOM, Crystal-QMMM,
                                                   LR-CPCM, SF, NACMEs, symmetry and pop. for TD-DFT,
                                                   nearIR, NL-DFT gradient (VV10), updates on ESD,
                                                   ML-optimized integration grids
   S Lehtola, MJT Oliveira, MAL Marques          : LibXC Library
   Liviu Ungur et al                             : ANISO software


 Your calculation uses the libint2 library for the computation of 2-el integrals
 For citations please refer to: http://libint.valeyev.net

 Your ORCA version has been built with support for libXC version: 5.1.0
 For citations please refer to: https://tddft.org/programs/libxc/

 This ORCA versions uses:
   CBLAS   interface :  Fast vector & matrix operations
   LAPACKE interface :  Fast linear algebra routines
   SCALAPACK package :  Parallel linear algebra routines
   Shared memory     :  Shared parallel matrices
   BLAS/LAPACK       :  OpenBLAS 0.3.15  USE64BITINT DYNAMIC_ARCH NO_AFFINITY Haswell SINGLE_THREADED
        Core in use  :  Haswell
   Copyright (c) 2011-2014, The OpenBLAS Project




***************************************
The coordinates will be read from file: 000004.xyz
***************************************


================================================================================

----- Orbital basis set information -----
Your calculation utilizes the basis: aug-cc-pVTZ 
    H, B-Ne : Obtained from the ccRepo (grant-hill.group.shef.ac.uk/ccrepo) Feb. 2017
              R. A. Kendall, T. H. Dunning, Jr., R. J. Harrison, J. Chem. Phys. 96, 6796 (1992)
         He : Obtained from the ccRepo (grant-hill.group.shef.ac.uk/ccrepo) Feb. 2017
              D. E. Woon, T. H. Dunning, Jr., J. Chem. Phys. 100, 2975 (1994)
  Li-Be, Na : Obtained from the ccRepo (grant-hill.group.shef.ac.uk/ccrepo) Feb. 2017
              B. P. Prascher, D. E. Woon, K. A. Peterson, T. H. Dunning, Jr., A. K. Wilson, Theor. Chem. Acc. 128, 69 (2011)
         Mg : Obtained from the Peterson Research Group Website (tyr0.chem.wsu.edu/~kipeters) Feb. 2017
              B. P. Prascher, D. E. Woon, K. A. Peterson, T. H. Dunning, Jr., A. K. Wilson, Theor. Chem. Acc. 128, 69 (2011)
      Al-Ar : Obtained from the ccRepo (grant-hill.group.shef.ac.uk/ccrepo) Feb. 2017
              D. E. Woon, T. H. Dunning, Jr., J. Chem. Phys. 98, 1358 (1993)
      Sc-Zn : Obtained from the ccRepo (grant-hill.group.shef.ac.uk/ccrepo) Feb. 2017
              N. B. Balabanov, K. A. Peterson, J. Chem. Phys. 123, 064107 (2005)
              N. B. Balabanov, K. A. Peterson, J. Chem. Phys. 125, 074110 (2006)
      Ga-Kr : Obtained from the ccRepo (grant-hill.group.shef.ac.uk/ccrepo) Feb. 2017
              A. K. Wilson, D. E. Woon, K. A. Peterson, T. H. Dunning, Jr., J. Chem. Phys. 110, 7667 (1999)
     Ag, Au : Obtained from the Peterson Research Group Website (tyr0.chem.wsu.edu/~kipeters) Feb. 2017
              K. A. Peterson, C. Puzzarini, Theor. Chem. Acc. 114, 283 (2005)

----- AuxJ basis set information -----
Your calculation utilizes the auxiliary basis: def2/J
   F. Weigend, Phys. Chem. Chem. Phys. 8, 1057 (2006).

----- AuxC basis set information -----
Your calculation utilizes the auxiliary basis: aug-cc-pVTZ/C 
  H-He, B-F, Al-Ar, Ga-Kr : Obtained from the EMSL Basis Set Exchange (bse.pnl.gov) Feb. 2017
                            F. Weigend, A. Kohn, C. Hattig, J. Chem. Phys. 116, 3175 (2002)
                   Be, Mg : Obtained from the TURBOMOLE 7.0 basis set library
                            C. Haettig, Phys. Chem. Chem. Phys. 7, 59 (2005)
                       Ne : Obtained from the EMSL Basis Set Exchange (bse.pnl.gov) Feb. 2017
                            C. Haettig, Phys. Chem. Chem. Phys. 7, 59 (2005)
                            F. Weigend, A. Kohn, C. Hattig, J. Chem. Phys. 116, 3175 (2002)
                    Sc-Zn : Obtained from the EMSL Basis Set Exchange (bse.pnl.gov) Feb. 2017
                            J. G. Hill, J. A. Platts, J. Chem. Phys. 128, 044104 (2008)

================================================================================
                                        WARNINGS
                       Please study these warnings very carefully!
================================================================================


WARNING: Post HF methods need fully converged wavefunctions
  ===> : Setting SCFConvForced true
         You can overwrite this default with %scf ConvForced false 


WARNING: MDCI localization with Augmented Hessian Foster-Boys
  ===> : Switching off randomization!

INFO   : the flag for use of the SHARK integral package has been found!

================================================================================
                                       INPUT FILE
================================================================================
NAME = 000004.com
|  1> !STEOM-DLPNO-CCSD aug-cc-pVTZ aug-cc-pVTZ/C def2/J TightSCF PrintMOs
|  2> 
|  3> *xyzfile 0 1 000004.xyz
|  4> 
|  5> %MaxCore 64000
|  6> %scf
|  7>  MaxIter 150
|  8> end
|  9> 
| 10> %pal nprocs 8
| 11> end
| 12> 
| 13> %mdci
| 14>  nroots 10
| 15>  DoRootwise true
| 16> end
| 17> 
| 18>                          ****END OF INPUT****
================================================================================

                       ****************************
                       * Single Point Calculation *
                       ****************************

---------------------------------
CARTESIAN COORDINATES (ANGSTROEM)
---------------------------------
  F      0.000000    0.000000    0.091801
  H      0.000000    0.000000   -0.826212

----------------------------
CARTESIAN COORDINATES (A.U.)
----------------------------
  NO LB      ZA    FRAG     MASS         X           Y           Z
   0 F     9.0000    0    18.998    0.000000    0.000000    0.173479
   1 H     1.0000    0     1.008    0.000000    0.000000   -1.561314

--------------------------------
INTERNAL COORDINATES (ANGSTROEM)
--------------------------------
 F      0   0   0     0.000000000000     0.00000000     0.00000000
 H      1   0   0     0.918013000000     0.00000000     0.00000000

---------------------------
INTERNAL COORDINATES (A.U.)
---------------------------
 F      0   0   0     0.000000000000     0.00000000     0.00000000
 H      1   0   0     1.734793157379     0.00000000     0.00000000

---------------------
BASIS SET INFORMATION
---------------------
There are 2 groups of distinct atoms

 Group   1 Type F   : 19s6p3d2f contracted to 5s4p3d2f pattern {88111/3111/111/11}
 Group   2 Type H   : 6s3p2d contracted to 4s3p2d pattern {3111/111/11}

Atom   0F    basis set group =>   1
Atom   1H    basis set group =>   2
---------------------------------
AUXILIARY/J BASIS SET INFORMATION
---------------------------------
There are 2 groups of distinct atoms

 Group   1 Type F   : 12s5p4d2f1g contracted to 6s4p3d1f1g pattern {711111/2111/211/2/1}
 Group   2 Type H   : 5s2p1d contracted to 3s1p1d pattern {311/2/1}

Atom   0F    basis set group =>   1
Atom   1H    basis set group =>   2
---------------------------------
AUXILIARY/C BASIS SET INFORMATION
---------------------------------
There are 2 groups of distinct atoms

 Group   1 Type F   : 9s7p6d4f2g contracted to 9s7p6d4f2g pattern {111111111/1111111/111111/1111/11}
 Group   2 Type H   : 5s4p3d2f contracted to 5s4p3d2f pattern {11111/1111/111/11}

Atom   0F    basis set group =>   1
Atom   1H    basis set group =>   2


           ************************************************************
           *        Program running with 8 parallel MPI-processes     *
           *              working on a common directory               *
           ************************************************************
------------------------------------------------------------------------------
                           ORCA GTO INTEGRAL CALCULATION
------------------------------------------------------------------------------
------------------------------------------------------------------------------
                   ___                                                        
                  /   \      - P O W E R E D   B Y -                         
                 /     \                                                     
                 |  |  |   _    _      __       _____    __    __             
                 |  |  |  | |  | |    /  \     |  _  \  |  |  /  |          
                  \  \/   | |  | |   /    \    | | | |  |  | /  /          
                 / \  \   | |__| |  /  /\  \   | |_| |  |  |/  /          
                |  |  |   |  __  | /  /__\  \  |    /   |      \           
                |  |  |   | |  | | |   __   |  |    \   |  |\   \          
                \     /   | |  | | |  |  |  |  | |\  \  |  | \   \       
                 \___/    |_|  |_| |__|  |__|  |_| \__\ |__|  \__/        
                                                                              
                      - O R C A' S   B I G   F R I E N D -                    
                                      &                                       
                       - I N T E G R A L  F E E D E R -                       
                                                                              
 v1 FN, 2020, v2 2021                                                         
------------------------------------------------------------------------------


Reading SHARK input file 000004.SHARKINP.tmp ... ok
----------------------
SHARK INTEGRAL PACKAGE
----------------------

Number of atoms                             ...      2
Number of basis functions                   ...     69
Number of shells                            ...     23
Maximum angular momentum                    ...      3
Integral batch strategy                     ... SHARK/LIBINT Hybrid
RI-J (if used) integral strategy            ... SPLIT-RIJ (Revised 2003 algorithm where possible)
Printlevel                                  ...      1
Contraction scheme used                     ... SEGMENTED contraction
Coulomb Range Separation                    ... NOT USED
Exchange Range Separation                   ... NOT USED
Finite Nucleus Model                        ... NOT USED
Auxiliary Coulomb fitting basis             ... AVAILABLE
   # of basis functions in Aux-J            ...     60
   # of shells in Aux-J                     ...     20
   Maximum angular momentum in Aux-J        ...      4
Auxiliary J/K fitting basis                 ... NOT available
Auxiliary Correlation fitting basis         ... AVAILABLE
   # of basis functions in Aux-C            ...    152
   # of shells in Aux-C                     ...     42
   Maximum angular momentum in Aux-C        ...      4
Auxiliary 'external' fitting basis          ... NOT available
Integral threshold                          ...     2.500000e-11
Primitive cut-off                           ...     2.500000e-12
Primitive pair pre-selection threshold      ...     2.500000e-12

Calculating pre-screening integrals         ... done (  0.2 sec) Dimension = 23
Organizing shell pair data                  ... done (  0.0 sec)
Shell pair information
Total number of shell pairs                 ...       276
Shell pairs after pre-screening             ...       276
Total number of primitive shell pairs       ...       923
Primitive shell pairs kept                  ...       910
          la=0 lb=0:     45 shell pairs
          la=1 lb=0:     63 shell pairs
          la=1 lb=1:     28 shell pairs
          la=2 lb=0:     45 shell pairs
          la=2 lb=1:     35 shell pairs
          la=2 lb=2:     15 shell pairs
          la=3 lb=0:     18 shell pairs
          la=3 lb=1:     14 shell pairs
          la=3 lb=2:     10 shell pairs
          la=3 lb=3:      3 shell pairs

Calculating one electron integrals          ... done (  0.0 sec)
Calculating RI/J V-Matrix + Cholesky decomp.... done (  0.1 sec)
Calculating RI/C V-Matrix + Cholesky decomp.... done (  0.0 sec)
Calculating Nuclear repulsion               ... done (  0.0 sec) ENN=      5.187938378541 Eh

SHARK setup successfully completed in   0.4 seconds

Maximum memory used throughout the entire GTOINT-calculation: 17.2 MB


           ************************************************************
           *        Program running with 8 parallel MPI-processes     *
           *              working on a common directory               *
           ************************************************************
-------------------------------------------------------------------------------
                                 ORCA SCF
-------------------------------------------------------------------------------

------------
SCF SETTINGS
------------
Hamiltonian:
 Ab initio Hamiltonian  Method          .... Hartree-Fock(GTOs)


General Settings:
 Integral files         IntName         .... 000004
 Hartree-Fock type      HFTyp           .... RHF
 Total Charge           Charge          ....    0
 Multiplicity           Mult            ....    1
 Number of Electrons    NEL             ....   10
 Basis Dimension        Dim             ....   69
 Nuclear Repulsion      ENuc            ....      5.1879383785 Eh

Convergence Acceleration:
 DIIS                   CNVDIIS         .... on
   Start iteration      DIISMaxIt       ....    12
   Startup error        DIISStart       ....  0.200000
   # of expansion vecs  DIISMaxEq       ....     5
   Bias factor          DIISBfac        ....   1.050
   Max. coefficient     DIISMaxC        ....  10.000
 Trust-Rad. Augm. Hess. CNVTRAH         .... auto
   Auto Start mean grad. ratio tolernc. ....  1.125000
   Auto Start start iteration           ....    20
   Auto Start num. interpolation iter.  ....    10
   Max. Number of Micro iterations      ....    16
   Max. Number of Macro iterations      .... Maxiter - #DIIS iter
   Number of Davidson start vectors     ....     2
   Converg. threshold I  (grad. norm)   ....   1.000e-05
   Converg. threshold II (energy diff.) ....   1.000e-08
   Grad. Scal. Fac. for Micro threshold ....   0.100
   Minimum threshold for Micro iter.    ....   0.010
   NR start threshold (gradient norm)   ....   0.001
   Initial trust radius                 ....   0.400
   Minimum AH scaling param. (alpha)    ....   1.000
   Maximum AH scaling param. (alpha)    .... 1000.000
   Orbital update algorithm             .... Taylor
   White noise on init. David. guess    .... on
   Maximum white noise                  ....   0.010
   Quad. conv. algorithm                .... NR
 SOSCF                  CNVSOSCF        .... on
   Start iteration      SOSCFMaxIt      ....   150
   Startup grad/error   SOSCFStart      ....  0.003300
 Level Shifting         CNVShift        .... on
   Level shift para.    LevelShift      ....    0.2500
   Turn off err/grad.   ShiftErr        ....    0.0010
 Zerner damping         CNVZerner       .... off
 Static damping         CNVDamp         .... on
   Fraction old density DampFac         ....    0.7000
   Max. Damping (<1)    DampMax         ....    0.9800
   Min. Damping (>=0)   DampMin         ....    0.0000
   Turn off err/grad.   DampErr         ....    0.1000
 Fernandez-Rico         CNVRico         .... off

SCF Procedure:
 Maximum # iterations   MaxIter         ....   150
 SCF integral mode      SCFMode         .... Direct
   Integral package                     .... SHARK and LIBINT hybrid scheme
 Reset frequency        DirectResetFreq ....    20
 Integral Threshold     Thresh          ....  2.500e-11 Eh
 Primitive CutOff       TCut            ....  2.500e-12 Eh

Convergence Tolerance:
 Convergence Check Mode ConvCheckMode   .... Total+1el-Energy
 Convergence forced     ConvForced      .... 1
 Energy Change          TolE            ....  1.000e-08 Eh
 1-El. energy change                    ....  1.000e-05 Eh
 Orbital Gradient       TolG            ....  1.000e-05
 Orbital Rotation angle TolX            ....  1.000e-05
 DIIS Error             TolErr          ....  5.000e-07


Diagonalization of the overlap matrix:
Smallest eigenvalue                        ... 3.619e-04
Time for diagonalization                   ...    0.012 sec
Threshold for overlap eigenvalues          ... 1.000e-08
Number of eigenvalues below threshold      ... 0
Time for construction of square roots      ...    0.003 sec
Total time needed                          ...    0.016 sec

Time for model grid setup =    0.019 sec

------------------------------
INITIAL GUESS: MODEL POTENTIAL
------------------------------
Loading Hartree-Fock densities                     ... done
Calculating cut-offs                               ... done
Initializing the effective Hamiltonian             ... done
Setting up the integral package (SHARK)            ... done
Starting the Coulomb interaction                   ... done (   0.1 sec)
Reading the grid                                   ... done
Mapping shells                                     ... done
Starting the XC term evaluation                    ... done (   0.0 sec)
Transforming the Hamiltonian                       ... done (   0.0 sec)
Diagonalizing the Hamiltonian                      ... done (   0.0 sec)
Back transforming the eigenvectors                 ... done (   0.0 sec)
Now organizing SCF variables                       ... done
                      ------------------
                      INITIAL GUESS DONE (   0.1 sec)
                      ------------------
--------------
SCF ITERATIONS
--------------
ITER       Energy         Delta-E        Max-DP      RMS-DP      [F,P]     Damp
               ***  Starting incremental Fock matrix formation  ***
  0   -100.0263596072   0.000000000000 0.01776450  0.00072948  0.2574691 0.7000
  1   -100.0390649097  -0.012705302488 0.01296629  0.00049125  0.1575944 0.7000
                               ***Turning on DIIS***
  2   -100.0461768473  -0.007111937554 0.00951829  0.00031313  0.1180844 0.7000
  3   -100.1416356154  -0.095458768123 0.02403123  0.00076036  0.0872769 0.0000
  4   -100.0597585536   0.081877061850 0.00260004  0.00010747  0.0049562 0.0000
  5   -100.0605225933  -0.000764039762 0.00189174  0.00007138  0.0035735 0.0000
                      *** Initiating the SOSCF procedure ***
                           *** Shutting down DIIS ***
                      *** Re-Reading the Fockian *** 
                      *** Removing any level shift *** 
ITER      Energy       Delta-E        Grad      Rot      Max-DP    RMS-DP
  6   -100.05982735   0.0006952421  0.000495  0.000495  0.000742  0.000034
               *** Restarting incremental Fock matrix formation ***
  7   -100.06102402  -0.0011966735  0.000077  0.000076  0.000138  0.000005
  8   -100.06102408  -0.0000000553  0.000027  0.000046  0.000081  0.000003
  9   -100.06102409  -0.0000000115  0.000012  0.000006  0.000021  0.000001
                  ***Gradient check signals convergence***
              ***Rediagonalizing the Fockian in SOSCF/NRSCF***

               *****************************************************
               *                     SUCCESS                       *
               *           SCF CONVERGED AFTER  10 CYCLES          *
               *****************************************************


----------------
TOTAL SCF ENERGY
----------------

Total Energy       :         -100.06102409 Eh           -2722.79889 eV

Components:
Nuclear Repulsion  :            5.18793838 Eh             141.17098 eV
Electronic Energy  :         -105.24896247 Eh           -2863.96987 eV
One Electron Energy:         -150.55575282 Eh           -4096.83031 eV
Two Electron Energy:           45.30679035 Eh            1232.86044 eV

Virial components:
Potential Energy   :         -200.03051561 Eh           -5443.10705 eV
Kinetic Energy     :           99.96949152 Eh            2720.30816 eV
Virial Ratio       :            2.00091561


---------------
SCF CONVERGENCE
---------------

  Last Energy change         ...   -9.4532e-10  Tolerance :   1.0000e-08
  Last MAX-Density change    ...    2.8230e-06  Tolerance :   1.0000e-07
  Last RMS-Density change    ...    1.1124e-07  Tolerance :   5.0000e-09
  Last Orbital Gradient      ...    1.7012e-06  Tolerance :   1.0000e-05
  Last Orbital Rotation      ...    1.6502e-06  Tolerance :   1.0000e-05

             **** THE GBW FILE WAS UPDATED (000004.gbw) ****
             **** DENSITY 000004.scfp WAS UPDATED ****
             **** ENERGY FILE WAS UPDATED (000004.en.tmp) ****
             **** THE GBW FILE WAS UPDATED (000004.gbw) ****
             **** DENSITY 000004.scfp WAS UPDATED ****
----------------
ORBITAL ENERGIES
----------------

  NO   OCC          E(Eh)            E(eV) 
   0   2.0000     -26.299455      -715.6446 
   1   2.0000      -1.602463       -43.6052 
   2   2.0000      -0.768299       -20.9065 
   3   2.0000      -0.650442       -17.6994 
   4   2.0000      -0.650442       -17.6994 
   5   0.0000       0.030530         0.8308 
   6   0.0000       0.138815         3.7773 
   7   0.0000       0.201251         5.4763 
   8   0.0000       0.201251         5.4763 
   9   0.0000       0.208078         5.6621 
  10   0.0000       0.285519         7.7694 
  11   0.0000       0.285519         7.7694 
  12   0.0000       0.310598         8.4518 
  13   0.0000       0.427399        11.6301 
  14   0.0000       0.710760        19.3408 
  15   0.0000       0.759901        20.6780 
  16   0.0000       0.759901        20.6780 
  17   0.0000       0.826411        22.4878 
  18   0.0000       0.826411        22.4878 
  19   0.0000       0.949203        25.8291 
  20   0.0000       1.042211        28.3600 
  21   0.0000       1.042211        28.3600 
  22   0.0000       1.069070        29.0909 
  23   0.0000       1.085723        29.5440 
  24   0.0000       1.085723        29.5440 
  25   0.0000       1.145404        31.1680 
  26   0.0000       1.145404        31.1680 
  27   0.0000       1.148904        31.2633 
  28   0.0000       1.667844        45.3843 
  29   0.0000       1.667844        45.3843 
  30   0.0000       1.985094        54.0172 
  31   0.0000       2.391342        65.0717 
  32   0.0000       2.727918        74.2304 
  33   0.0000       2.807955        76.4083 
  34   0.0000       2.807955        76.4083 
  35   0.0000       2.904686        79.0405 
  36   0.0000       2.904686        79.0405 
  37   0.0000       2.934241        79.8447 
  38   0.0000       2.934241        79.8447 
  39   0.0000       3.159608        85.9773 
  40   0.0000       3.159608        85.9773 
  41   0.0000       3.162254        86.0493 
  42   0.0000       3.624766        98.6349 
  43   0.0000       3.624766        98.6349 
  44   0.0000       4.091129       111.3253 
  45   0.0000       4.165130       113.3389 
  46   0.0000       4.165130       113.3389 
  47   0.0000       4.303134       117.0942 
  48   0.0000       4.303134       117.0942 
  49   0.0000       4.768580       129.7597 
  50   0.0000       4.768580       129.7597 
  51   0.0000       5.068542       137.9220 
  52   0.0000       5.656821       153.9299 
  53   0.0000       6.077234       165.3699 
  54   0.0000       6.077234       165.3699 
  55   0.0000       7.539016       205.1471 
  56   0.0000       8.829542       240.2641 
  57   0.0000       8.829542       240.2641 
  58   0.0000       8.918791       242.6927 
  59   0.0000       8.918791       242.6927 
  60   0.0000       9.238384       251.3892 
  61   0.0000       9.238384       251.3892 
  62   0.0000       9.343042       254.2371 
  63   0.0000       9.359018       254.6718 
  64   0.0000       9.359018       254.6718 
  65   0.0000       9.548745       259.8346 
  66   0.0000       9.548745       259.8346 
  67   0.0000       9.883089       268.9325 
  68   0.0000      14.622103       397.8876 
------------------
MOLECULAR ORBITALS
------------------
                      0         1         2         3         4         5   
                 -26.29946  -1.60246  -0.76830  -0.65044  -0.65044   0.03053
                   2.00000   2.00000   2.00000   2.00000   2.00000   0.00000
                  --------  --------  --------  --------  --------  --------
  0F   1s         0.975109  0.004089 -0.002623 -0.000000 -0.000000  0.000041
  0F   2s        -0.001621 -0.548079 -0.139025 -0.000000 -0.000000 -0.051945
  0F   3s         0.043819 -0.156899 -0.044219 -0.000000 -0.000000 -0.013363
  0F   4s         0.004839 -0.340318 -0.253967  0.000000  0.000000 -0.376968
  0F   5s         0.000409 -0.032144 -0.056525  0.000000  0.000000 -1.404625
  0F   1pz       -0.001283  0.034348 -0.323522 -0.000000 -0.000000  0.035258
  0F   1px       -0.000000  0.000000 -0.000000  0.380613  0.004468 -0.000000
  0F   1py       -0.000000  0.000000 -0.000000 -0.004468  0.380613 -0.000000
  0F   2pz        0.001244  0.048661 -0.391109 -0.000000 -0.000000  0.062447
  0F   2px        0.000000  0.000000 -0.000000  0.470720  0.005526 -0.000000
  0F   2py       -0.000000 -0.000000 -0.000000 -0.005526  0.470720 -0.000000
  0F   3pz       -0.002305  0.026853 -0.193239 -0.000000 -0.000000  0.381346
  0F   3px        0.000000  0.000000  0.000000  0.336430  0.003949 -0.000000
  0F   3py       -0.000000  0.000000  0.000000 -0.003949  0.336430 -0.000000
  0F   4pz       -0.000201  0.004196 -0.010592 -0.000000 -0.000000  0.221684
  0F   4px        0.000000  0.000000  0.000000  0.029284  0.000344  0.000000
  0F   4py       -0.000000 -0.000000  0.000000 -0.000344  0.029284  0.000000
  0F   1dz2       0.000013 -0.002696  0.007988 -0.000000 -0.000000  0.000591
  0F   1dxz       0.000000 -0.000000 -0.000000 -0.003770 -0.000044 -0.000000
  0F   1dyz      -0.000000  0.000000  0.000000  0.000044 -0.003770  0.000000
  0F   1dx2y2     0.000000  0.000000 -0.000000  0.000000 -0.000000 -0.000000
  0F   1dxy      -0.000000  0.000000 -0.000000  0.000000  0.000000 -0.000000
  0F   2dz2      -0.000539 -0.008037  0.017917  0.000000  0.000000 -0.015804
  0F   2dxz      -0.000000 -0.000000  0.000000 -0.011490 -0.000135  0.000000
  0F   2dyz       0.000000 -0.000000 -0.000000  0.000135 -0.011490  0.000000
  0F   2dx2y2     0.000000  0.000000  0.000000  0.000000 -0.000000  0.000000
  0F   2dxy       0.000000 -0.000000  0.000000  0.000000 -0.000000  0.000000
  0F   3dz2       0.001023 -0.004254 -0.001899  0.000000  0.000000 -0.094695
  0F   3dxz      -0.000000 -0.000000 -0.000000 -0.009501 -0.000112 -0.000000
  0F   3dyz       0.000000 -0.000000 -0.000000  0.000112 -0.009501  0.000000
  0F   3dx2y2    -0.000000  0.000000 -0.000000  0.000000  0.000000 -0.000000
  0F   3dxy      -0.000000  0.000000 -0.000000 -0.000000 -0.000000 -0.000000
  0F   1f0        0.000109  0.001550 -0.003357 -0.000000 -0.000000 -0.000344
  0F   1f+1       0.000000 -0.000000 -0.000000  0.002300  0.000027 -0.000000
  0F   1f-1      -0.000000 -0.000000 -0.000000 -0.000027  0.002300 -0.000000
  0F   1f+2      -0.000000  0.000000 -0.000000  0.000000  0.000000 -0.000000
  0F   1f-2      -0.000000  0.000000 -0.000000  0.000000 -0.000000  0.000000
  0F   1f+3       0.000000 -0.000000 -0.000000  0.000000 -0.000000  0.000000
  0F   1f-3       0.000000 -0.000000  0.000000 -0.000000 -0.000000  0.000000
  0F   2f0       -0.000046  0.000717 -0.002102  0.000000  0.000000  0.011470
  0F   2f+1       0.000000  0.000000  0.000000  0.002283  0.000027 -0.000000
  0F   2f-1      -0.000000  0.000000  0.000000 -0.000027  0.002283 -0.000000
  0F   2f+2       0.000000 -0.000000  0.000000 -0.000000  0.000000  0.000000
  0F   2f-2       0.000000 -0.000000  0.000000  0.000000  0.000000 -0.000000
  0F   2f+3      -0.000000  0.000000  0.000000  0.000000  0.000000  0.000000
  0F   2f-3      -0.000000  0.000000 -0.000000  0.000000 -0.000000 -0.000000
  1H   1s         0.000559 -0.085830  0.159452  0.000000  0.000000  0.007540
  1H   2s        -0.002544 -0.040730  0.274028 -0.000000 -0.000000  0.480651
  1H   3s        -0.000585  0.021883  0.068364 -0.000000 -0.000000  0.899231
  1H   4s         0.000074  0.000530  0.000980 -0.000000 -0.000000  1.317521
  1H   1pz        0.000549 -0.015073  0.014822  0.000000  0.000000  0.000671
  1H   1px        0.000000  0.000000  0.000000  0.012142  0.000143 -0.000000
  1H   1py        0.000000  0.000000 -0.000000 -0.000143  0.012142 -0.000000
  1H   2pz       -0.000159 -0.006348  0.058235 -0.000000 -0.000000  0.145755
  1H   2px       -0.000000 -0.000000 -0.000000  0.020517  0.000241  0.000000
  1H   2py        0.000000 -0.000000 -0.000000 -0.000241  0.020517  0.000000
  1H   3pz        0.000015  0.006460  0.007875 -0.000000 -0.000000  0.255163
  1H   3px       -0.000000 -0.000000 -0.000000  0.007865  0.000092 -0.000000
  1H   3py        0.000000  0.000000 -0.000000 -0.000092  0.007865 -0.000000
  1H   1dz2       0.000134 -0.002758  0.005755 -0.000000 -0.000000  0.009010
  1H   1dxz      -0.000000 -0.000000 -0.000000  0.005402  0.000063  0.000000
  1H   1dyz       0.000000 -0.000000 -0.000000 -0.000063  0.005402  0.000000
  1H   1dx2y2    -0.000000  0.000000 -0.000000  0.000000  0.000000  0.000000
  1H   1dxy       0.000000 -0.000000  0.000000 -0.000000  0.000000  0.000000
  1H   2dz2       0.000507 -0.001688  0.010962 -0.000000 -0.000000  0.018872
  1H   2dxz      -0.000000 -0.000000 -0.000000  0.001039  0.000012 -0.000000
  1H   2dyz       0.000000 -0.000000 -0.000000 -0.000012  0.001039 -0.000000
  1H   2dx2y2     0.000000  0.000000  0.000000 -0.000000 -0.000000 -0.000000
  1H   2dxy       0.000000 -0.000000  0.000000  0.000000  0.000000 -0.000000
                      6         7         8         9        10        11   
                   0.13881   0.20125   0.20125   0.20808   0.28552   0.28552
                   0.00000   0.00000   0.00000   0.00000   0.00000   0.00000
                  --------  --------  --------  --------  --------  --------
  0F   1s        -0.015071 -0.000000 -0.000000  0.005956 -0.000000 -0.000000
  0F   2s        -0.058015 -0.000000 -0.000000  0.126569 -0.000000 -0.000000
  0F   3s        -0.016476 -0.000000 -0.000000  0.051947 -0.000000 -0.000000
  0F   4s         1.061656  0.000000  0.000000 -0.398530  0.000000  0.000000
  0F   5s         7.842023  0.000000  0.000000  0.334778  0.000000  0.000000
  0F   1pz        0.093767 -0.000000 -0.000000 -0.040030 -0.000000 -0.000000
  0F   1px       -0.000000  0.050736 -0.086114  0.000000  0.031132 -0.024655
  0F   1py        0.000000  0.086114  0.050736 -0.000000 -0.024655 -0.031132
  0F   2pz        0.063279 -0.000000 -0.000000 -0.000586 -0.000000 -0.000000
  0F   2px       -0.000000  0.036625 -0.062164  0.000000  0.000723 -0.000573
  0F   2py       -0.000000  0.062164  0.036625 -0.000000 -0.000573 -0.000723
  0F   3pz       -0.500982 -0.000000 -0.000000  0.687107 -0.000000 -0.000000
  0F   3px       -0.000000  0.150215 -0.254956 -0.000000  0.577740 -0.457535
  0F   3py       -0.000000  0.254956  0.150215 -0.000000 -0.457535 -0.577740
  0F   4pz       -2.326967 -0.000000 -0.000000 -1.658156 -0.000000 -0.000000
  0F   4px        0.000000 -0.696352  1.181901 -0.000000  1.317300 -1.043220
  0F   4py       -0.000000 -1.181901 -0.696352 -0.000000 -1.043220 -1.317300
  0F   1dz2      -0.001196 -0.000000 -0.000000  0.002207 -0.000000 -0.000000
  0F   1dxz      -0.000000  0.000785 -0.001332 -0.000000 -0.000583  0.000461
  0F   1dyz       0.000000  0.001332  0.000785  0.000000  0.000461  0.000583
  0F   1dx2y2     0.000000  0.000000  0.000000  0.000000  0.000000  0.000000
  0F   1dxy       0.000000 -0.000000  0.000000 -0.000000  0.000000  0.000000
  0F   2dz2       0.023994  0.000000  0.000000 -0.064677  0.000000  0.000000
  0F   2dxz       0.000000 -0.010330  0.017533 -0.000000  0.025236 -0.019985
  0F   2dyz      -0.000000 -0.017533 -0.010330  0.000000 -0.019985 -0.025236
  0F   2dx2y2    -0.000000 -0.000000  0.000000  0.000000 -0.000000  0.000000
  0F   2dxy      -0.000000  0.000000 -0.000000  0.000000  0.000000  0.000000
  0F   3dz2       0.078076  0.000000  0.000000 -0.183178  0.000000 -0.000000
  0F   3dxz       0.000000  0.035248 -0.059825  0.000000 -0.289714  0.229436
  0F   3dyz       0.000000  0.059825  0.035248  0.000000  0.229436  0.289714
  0F   3dx2y2     0.000000  0.000000  0.000000 -0.000000  0.000000 -0.000000
  0F   3dxy       0.000000  0.000000  0.000000 -0.000000  0.000000 -0.000000
  0F   1f0       -0.001816 -0.000000 -0.000000 -0.000065  0.000000 -0.000000
  0F   1f+1       0.000000  0.000830 -0.001409  0.000000 -0.005595  0.004431
  0F   1f-1       0.000000  0.001409  0.000830  0.000000  0.004431  0.005595
  0F   1f+2      -0.000000  0.000000 -0.000000 -0.000000 -0.000000  0.000000
  0F   1f-2      -0.000000 -0.000000  0.000000 -0.000000  0.000000  0.000000
  0F   1f+3      -0.000000 -0.000000 -0.000000  0.000000  0.000000  0.000000
  0F   1f-3      -0.000000 -0.000000  0.000000 -0.000000 -0.000000  0.000000
  0F   2f0        0.003502  0.000000 -0.000000  0.033178 -0.000000  0.000000
  0F   2f+1      -0.000000  0.001001 -0.001699 -0.000000  0.031665 -0.025077
  0F   2f-1      -0.000000  0.001699  0.001001 -0.000000 -0.025077 -0.031665
  0F   2f+2       0.000000 -0.000000  0.000000  0.000000  0.000000  0.000000
  0F   2f-2      -0.000000  0.000000 -0.000000 -0.000000 -0.000000 -0.000000
  0F   2f+3       0.000000  0.000000 -0.000000 -0.000000  0.000000 -0.000000
  0F   2f-3       0.000000 -0.000000 -0.000000  0.000000  0.000000  0.000000
  1H   1s         0.020558  0.000000 -0.000000 -0.065215  0.000000  0.000000
  1H   2s        -0.481633 -0.000000 -0.000000  1.122148 -0.000000 -0.000000
  1H   3s        -7.100477 -0.000000 -0.000000 -2.379594 -0.000000 -0.000000
  1H   4s        -1.102677  0.000000  0.000000  0.772704 -0.000000 -0.000000
  1H   1pz       -0.003008  0.000000  0.000000  0.041600  0.000000  0.000000
  1H   1px       -0.000000 -0.002409  0.004089 -0.000000 -0.008514  0.006743
  1H   1py        0.000000 -0.004089 -0.002409  0.000000  0.006743  0.008514
  1H   2pz       -0.458324 -0.000000 -0.000000  0.339990 -0.000000 -0.000000
  1H   2px        0.000000  0.007726 -0.013113  0.000000 -0.208997  0.165513
  1H   2py        0.000000  0.013113  0.007726  0.000000  0.165513  0.208997
  1H   3pz       -2.706763 -0.000000 -0.000000  0.458382 -0.000000 -0.000000
  1H   3px       -0.000000  0.142649 -0.242115  0.000000 -1.886008  1.493601
  1H   3py        0.000000  0.242115  0.142649  0.000000  1.493601  1.886008
  1H   1dz2      -0.020540 -0.000000 -0.000000  0.028468 -0.000000 -0.000000
  1H   1dxz       0.000000 -0.003757  0.006376  0.000000 -0.007304  0.005784
  1H   1dyz       0.000000 -0.006376 -0.003757  0.000000  0.005784  0.007304
  1H   1dx2y2    -0.000000  0.000000 -0.000000 -0.000000 -0.000000  0.000000
  1H   1dxy      -0.000000 -0.000000  0.000000 -0.000000 -0.000000  0.000000
  1H   2dz2      -0.252408 -0.000000 -0.000000  0.019117 -0.000000 -0.000000
  1H   2dxz       0.000000  0.030385 -0.051572  0.000000 -0.294909  0.233550
  1H   2dyz       0.000000  0.051572  0.030385  0.000000  0.233550  0.294909
  1H   2dx2y2     0.000000 -0.000000  0.000000  0.000000  0.000000  0.000000
  1H   2dxy      -0.000000  0.000000 -0.000000  0.000000  0.000000 -0.000000
                     12        13        14        15        16        17   
                   0.31060   0.42740   0.71076   0.75990   0.75990   0.82641
                   0.00000   0.00000   0.00000   0.00000   0.00000   0.00000
                  --------  --------  --------  --------  --------  --------
  0F   1s        -0.006139 -0.029063  0.016729  0.000000  0.000000 -0.000000
  0F   2s        -0.115315  0.003635  0.124744  0.000000  0.000000 -0.000000
  0F   3s        -0.052645 -0.000890  0.020080  0.000000  0.000000  0.000000
  0F   4s         0.457156  2.910341  0.399720  0.000000 -0.000000  0.000000
  0F   5s         4.755465 15.005028 -8.223806 -0.000000 -0.000000  0.000000
  0F   1pz       -0.019993 -0.156528 -0.070484 -0.000000 -0.000000  0.000000
  0F   1px       -0.000000  0.000000 -0.000000  0.000000  0.000000 -0.012138
  0F   1py        0.000000  0.000000 -0.000000  0.000000 -0.000000  0.007684
  0F   2pz       -0.047825 -0.333676 -0.161513 -0.000000  0.000000  0.000000
  0F   2px        0.000000  0.000000 -0.000000  0.000000  0.000000 -0.092194
  0F   2py       -0.000000 -0.000000 -0.000000 -0.000000 -0.000000  0.058364
  0F   3pz       -1.755213 -1.798052 -0.482574 -0.000000  0.000000 -0.000000
  0F   3px       -0.000000 -0.000000  0.000000 -0.000000 -0.000000  2.072139
  0F   3py        0.000000 -0.000000  0.000000  0.000000  0.000000 -1.311794
  0F   4pz       -1.895810 -2.723280  2.550392  0.000000  0.000000 -0.000000
  0F   4px       -0.000000 -0.000000  0.000000 -0.000000 -0.000000  1.022129
  0F   4py        0.000000  0.000000  0.000000  0.000000  0.000000 -0.647072
  0F   1dz2      -0.001992 -0.007417 -0.020738 -0.000000 -0.000000  0.000000
  0F   1dxz      -0.000000 -0.000000  0.000000  0.000000  0.000000 -0.011021
  0F   1dyz      -0.000000  0.000000 -0.000000 -0.000000 -0.000000  0.006977
  0F   1dx2y2     0.000000 -0.000000 -0.000000 -0.000125  0.020133  0.000000
  0F   1dxy       0.000000  0.000000 -0.000000  0.020133  0.000125  0.000000
  0F   2dz2       0.013607  0.098299  0.047089  0.000000 -0.000000  0.000000
  0F   2dxz      -0.000000  0.000000 -0.000000  0.000000 -0.000000  0.009021
  0F   2dyz       0.000000  0.000000 -0.000000 -0.000000 -0.000000 -0.005711
  0F   2dx2y2    -0.000000 -0.000000  0.000000  0.000194 -0.031272 -0.000000
  0F   2dxy      -0.000000  0.000000  0.000000 -0.031272 -0.000194 -0.000000
  0F   3dz2       0.690212  0.029957 -0.018239  0.000000 -0.000000  0.000000
  0F   3dxz       0.000000  0.000000 -0.000000  0.000000  0.000000 -1.186015
  0F   3dyz      -0.000000  0.000000 -0.000000 -0.000000 -0.000000  0.750822
  0F   3dx2y2     0.000000 -0.000000  0.000000 -0.001388  0.223757  0.000000
  0F   3dxy       0.000000 -0.000000  0.000000  0.223757  0.001388  0.000000
  0F   1f0        0.010067 -0.010164  0.003005 -0.000000  0.000000  0.000000
  0F   1f+1       0.000000  0.000000 -0.000000  0.000000  0.000000 -0.018403
  0F   1f-1      -0.000000 -0.000000 -0.000000 -0.000000 -0.000000  0.011650
  0F   1f+2      -0.000000 -0.000000  0.000000  0.000086 -0.013927 -0.000000
  0F   1f-2      -0.000000  0.000000  0.000000 -0.013927 -0.000086 -0.000000
  0F   1f+3      -0.000000 -0.000000  0.000000  0.000000 -0.000000 -0.000000
  0F   1f-3      -0.000000 -0.000000  0.000000 -0.000000 -0.000000  0.000000
  0F   2f0       -0.068093  0.007956 -0.053358 -0.000000  0.000000 -0.000000
  0F   2f+1      -0.000000 -0.000000  0.000000 -0.000000 -0.000000  0.113293
  0F   2f-1       0.000000 -0.000000  0.000000  0.000000  0.000000 -0.071721
  0F   2f+2       0.000000  0.000000 -0.000000 -0.000263  0.042317  0.000000
  0F   2f-2      -0.000000 -0.000000 -0.000000  0.042317  0.000263  0.000000
  0F   2f+3       0.000000  0.000000 -0.000000  0.000000  0.000000 -0.000000
  0F   2f-3       0.000000  0.000000 -0.000000  0.000000  0.000000 -0.000000
  1H   1s        -0.031206 -0.051919 -0.164496 -0.000000 -0.000000  0.000000
  1H   2s        -2.382126 -1.448364 -2.486958 -0.000000 -0.000000 -0.000000
  1H   3s        -3.456102-15.162353  9.966234  0.000000  0.000000 -0.000000
  1H   4s        -0.435722 -0.868915 -0.034190  0.000000  0.000000 -0.000000
  1H   1pz       -0.010467  0.011790 -0.074726 -0.000000 -0.000000  0.000000
  1H   1px        0.000000 -0.000000  0.000000 -0.000000 -0.000000  0.025889
  1H   1py        0.000000  0.000000  0.000000  0.000000  0.000000 -0.016390
  1H   2pz       -0.688770 -0.946453  0.212160 -0.000000  0.000000 -0.000000
  1H   2px        0.000000  0.000000 -0.000000  0.000000  0.000000 -0.742425
  1H   2py       -0.000000  0.000000 -0.000000 -0.000000 -0.000000  0.470002
  1H   3pz        0.613722 -5.352623  1.806224  0.000000  0.000000 -0.000000
  1H   3px        0.000000  0.000000 -0.000000  0.000000  0.000000 -1.942811
  1H   3py       -0.000000 -0.000000 -0.000000 -0.000000 -0.000000  1.229922
  1H   1dz2      -0.033966 -0.057575 -0.021135 -0.000000  0.000000 -0.000000
  1H   1dxz       0.000000  0.000000 -0.000000  0.000000 -0.000000 -0.017333
  1H   1dyz       0.000000  0.000000 -0.000000  0.000000 -0.000000  0.010973
  1H   1dx2y2    -0.000000 -0.000000  0.000000  0.000294 -0.047430 -0.000000
  1H   1dxy      -0.000000 -0.000000 -0.000000 -0.047430 -0.000294 -0.000000
  1H   2dz2       0.188629 -0.627112 -0.050088  0.000000 -0.000000 -0.000000
  1H   2dxz       0.000000  0.000000 -0.000000  0.000000  0.000000 -1.682109
  1H   2dyz      -0.000000  0.000000 -0.000000 -0.000000 -0.000000  1.064880
  1H   2dx2y2     0.000000  0.000000 -0.000000 -0.005430  0.875113  0.000000
  1H   2dxy      -0.000000  0.000000 -0.000000  0.875113  0.005430  0.000000
                     18        19        20        21        22        23   
                   0.82641   0.94920   1.04221   1.04221   1.06907   1.08572
                   0.00000   0.00000   0.00000   0.00000   0.00000   0.00000
                  --------  --------  --------  --------  --------  --------
  0F   1s        -0.000000  0.024452 -0.000000 -0.000000  0.057636 -0.000000
  0F   2s        -0.000000  0.132794 -0.000000  0.000000 -0.109409 -0.000000
  0F   3s        -0.000000  0.042648 -0.000000 -0.000000 -0.007548 -0.000000
  0F   4s         0.000000 -3.709590  0.000000  0.000000 -5.877494  0.000000
  0F   5s        -0.000000 -6.102738  0.000000  0.000000 -3.919696  0.000000
  0F   1pz        0.000000 -0.095648 -0.000000  0.000000 -0.045312  0.000000
  0F   1px        0.007684 -0.000000 -0.001346  0.005874 -0.000000 -0.000000
  0F   1py        0.012138  0.000000 -0.005874 -0.001346 -0.000000 -0.000000
  0F   2pz       -0.000000  0.117328 -0.000000 -0.000000  0.153629 -0.000000
  0F   2px        0.058364 -0.000000 -0.013056  0.056987 -0.000000 -0.000000
  0F   2py        0.092194  0.000000 -0.056987 -0.013056 -0.000000 -0.000000
  0F   3pz       -0.000000  0.253787 -0.000000 -0.000000  6.980046 -0.000000
  0F   3px       -1.311794  0.000000  0.217218 -0.948121  0.000000  0.000000
  0F   3py       -2.072139 -0.000000  0.948121  0.217218 -0.000000  0.000000
  0F   4pz        0.000000  0.795787 -0.000000 -0.000000  0.808701 -0.000000
  0F   4px       -0.647072 -0.000000 -0.068630  0.299557  0.000000 -0.000000
  0F   4py       -1.022129 -0.000000 -0.299557 -0.068630 -0.000000 -0.000000
  0F   1dz2      -0.000000 -0.007497  0.000000 -0.000000 -0.011575  0.000000
  0F   1dxz       0.006977  0.000000  0.008750 -0.038193 -0.000000  0.000000
  0F   1dyz       0.011021  0.000000  0.038193  0.008750  0.000000  0.000000
  0F   1dx2y2     0.000000  0.000000  0.000000  0.000000 -0.000000 -0.000203
  0F   1dxy      -0.000000  0.000000 -0.000000  0.000000 -0.000000  0.039029
  0F   2dz2       0.000000 -0.040720 -0.000000  0.000000 -0.132578  0.000000
  0F   2dxz      -0.005711 -0.000000 -0.021943  0.095778  0.000000 -0.000000
  0F   2dyz      -0.009021 -0.000000 -0.095778 -0.021943 -0.000000 -0.000000
  0F   2dx2y2     0.000000 -0.000000 -0.000000 -0.000000  0.000000  0.000735
  0F   2dxy       0.000000 -0.000000  0.000000 -0.000000 -0.000000 -0.141467
  0F   3dz2       0.000000 -0.004710  0.000000  0.000000 -3.248601  0.000000
  0F   3dxz       0.750822  0.000000  0.182952 -0.798555 -0.000000  0.000000
  0F   3dyz       1.186015  0.000000  0.798555  0.182952  0.000000 -0.000000
  0F   3dx2y2     0.000000  0.000000  0.000000  0.000000 -0.000000 -0.007390
  0F   3dxy       0.000000  0.000000 -0.000000  0.000000 -0.000000  1.421519
  0F   1f0       -0.000000  0.003185  0.000000  0.000000 -0.027210  0.000000
  0F   1f+1       0.011650 -0.000000 -0.000383  0.001671 -0.000000  0.000000
  0F   1f-1       0.018403  0.000000 -0.001671 -0.000383  0.000000 -0.000000
  0F   1f+2      -0.000000 -0.000000  0.000000  0.000000 -0.000000 -0.000069
  0F   1f-2       0.000000  0.000000  0.000000  0.000000  0.000000  0.013270
  0F   1f+3      -0.000000  0.000000  0.000000 -0.000000  0.000000 -0.000000
  0F   1f-3      -0.000000  0.000000 -0.000000 -0.000000  0.000000  0.000000
  0F   2f0       -0.000000 -0.030539 -0.000000 -0.000000  0.260345 -0.000000
  0F   2f+1      -0.071721  0.000000 -0.001930  0.008425  0.000000 -0.000000
  0F   2f-1      -0.113293 -0.000000 -0.008425 -0.001930 -0.000000  0.000000
  0F   2f+2       0.000000  0.000000 -0.000000 -0.000000  0.000000  0.000256
  0F   2f-2      -0.000000 -0.000000 -0.000000 -0.000000  0.000000 -0.049188
  0F   2f+3       0.000000 -0.000000 -0.000000  0.000000 -0.000000  0.000000
  0F   2f-3      -0.000000 -0.000000  0.000000  0.000000 -0.000000 -0.000000
  1H   1s         0.000000 -0.139989  0.000000 -0.000000 -0.010298  0.000000
  1H   2s        -0.000000  0.448385 -0.000000 -0.000000 10.758357 -0.000000
  1H   3s        -0.000000  7.558039  0.000000 -0.000000  1.593416 -0.000000
  1H   4s        -0.000000  0.253493 -0.000000 -0.000000  0.408320 -0.000000
  1H   1pz       -0.000000 -0.033103  0.000000 -0.000000  0.082550 -0.000000
  1H   1px       -0.016390  0.000000  0.001153 -0.005034  0.000000 -0.000000
  1H   1py       -0.025889 -0.000000  0.005034  0.001153 -0.000000 -0.000000
  1H   2pz       -0.000000  0.988269  0.000000 -0.000000  2.892092 -0.000000
  1H   2px        0.470002 -0.000000 -0.048266  0.210674 -0.000000  0.000000
  1H   2py        0.742425  0.000000 -0.210674 -0.048266  0.000000 -0.000000
  1H   3pz       -0.000000  3.401008  0.000000 -0.000000 -0.290716 -0.000000
  1H   3px        1.229922  0.000000  0.011441 -0.049936 -0.000000  0.000000
  1H   3py        1.942811  0.000000  0.049936  0.011441  0.000000 -0.000000
  1H   1dz2      -0.000000  0.017148  0.000000 -0.000000  0.118941 -0.000000
  1H   1dxz       0.010973 -0.000000  0.004882 -0.021309 -0.000000  0.000000
  1H   1dyz       0.017333 -0.000000  0.021309  0.004882  0.000000 -0.000000
  1H   1dx2y2    -0.000000  0.000000  0.000000  0.000000 -0.000000 -0.000151
  1H   1dxy       0.000000 -0.000000 -0.000000  0.000000  0.000000  0.028985
  1H   2dz2      -0.000000  2.044360  0.000000  0.000000 -0.421438 -0.000000
  1H   2dxz       1.064880  0.000000 -0.212845  0.929033  0.000000 -0.000000
  1H   2dyz       1.682109  0.000000 -0.929033 -0.212845  0.000000 -0.000000
  1H   2dx2y2     0.000000  0.000000 -0.000000 -0.000000  0.000000  0.005646
  1H   2dxy      -0.000000 -0.000000  0.000000 -0.000000  0.000000 -1.086076
                     24        25        26        27        28        29   
                   1.08572   1.14540   1.14540   1.14890   1.66784   1.66784
                   0.00000   0.00000   0.00000   0.00000   0.00000   0.00000
                  --------  --------  --------  --------  --------  --------
  0F   1s         0.000000 -0.000000  0.000000 -0.027102  0.000000  0.000000
  0F   2s        -0.000000 -0.000000  0.000000 -0.004615  0.000000  0.000000
  0F   3s        -0.000000 -0.000000  0.000000 -0.042529 -0.000000 -0.000000
  0F   4s        -0.000000  0.000000 -0.000000  6.313379 -0.000000  0.000000
  0F   5s        -0.000000  0.000000 -0.000000 11.546654  0.000000 -0.000000
  0F   1pz       -0.000000  0.000000 -0.000000  0.248156  0.000000 -0.000000
  0F   1px        0.000000  0.260860 -0.042072 -0.000000 -0.001806  0.007454
  0F   1py       -0.000000  0.042072  0.260860  0.000000 -0.007454 -0.001806
  0F   2pz        0.000000  0.000000 -0.000000  0.063191  0.000000 -0.000000
  0F   2px        0.000000  0.740086 -0.119362 -0.000000 -0.038919  0.160600
  0F   2py       -0.000000  0.119362  0.740086  0.000000 -0.160600 -0.038919
  0F   3pz        0.000000 -0.000000  0.000000 -5.086437  0.000000 -0.000000
  0F   3px       -0.000000 -1.171623  0.188961  0.000000  1.050097 -4.333205
  0F   3py       -0.000000 -0.188961 -1.171623 -0.000000  4.333205  1.050097
  0F   4pz        0.000000 -0.000000  0.000000 -1.641921 -0.000000  0.000000
  0F   4px       -0.000000  0.497875 -0.080298 -0.000000  0.137883 -0.568971
  0F   4py       -0.000000  0.080298  0.497875  0.000000  0.568971  0.137883
  0F   1dz2      -0.000000 -0.000000  0.000000 -0.036380 -0.000000  0.000000
  0F   1dxz       0.000000 -0.005844  0.000942  0.000000  0.001233 -0.005089
  0F   1dyz      -0.000000 -0.000942 -0.005844 -0.000000  0.005089  0.001233
  0F   1dx2y2     0.039029 -0.000000  0.000000 -0.000000 -0.000000 -0.000000
  0F   1dxy       0.000203  0.000000  0.000000 -0.000000  0.000000 -0.000000
  0F   2dz2      -0.000000  0.000000 -0.000000  0.361092  0.000000 -0.000000
  0F   2dxz       0.000000  0.039759 -0.006412 -0.000000  0.005663 -0.023366
  0F   2dyz       0.000000  0.006412  0.039759  0.000000  0.023366  0.005663
  0F   2dx2y2    -0.141467  0.000000 -0.000000 -0.000000 -0.000000  0.000000
  0F   2dxy      -0.000735 -0.000000 -0.000000  0.000000  0.000000  0.000000
  0F   3dz2      -0.000000  0.000000 -0.000000  0.211611 -0.000000  0.000000
  0F   3dxz       0.000000 -0.091079  0.014689  0.000000 -0.633993  2.616160
  0F   3dyz       0.000000 -0.014689 -0.091079 -0.000000 -2.616160 -0.633993
  0F   3dx2y2     1.421519 -0.000000  0.000000  0.000000  0.000000 -0.000000
  0F   3dxy       0.007390  0.000000  0.000000 -0.000000 -0.000000 -0.000000
  0F   1f0       -0.000000 -0.000000  0.000000 -0.017817 -0.000000 -0.000000
  0F   1f+1       0.000000 -0.000443  0.000071  0.000000 -0.008609  0.035525
  0F   1f-1       0.000000 -0.000071 -0.000443 -0.000000 -0.035525 -0.008609
  0F   1f+2       0.013270  0.000000  0.000000  0.000000 -0.000000  0.000000
  0F   1f-2       0.000069 -0.000000  0.000000 -0.000000 -0.000000  0.000000
  0F   1f+3      -0.000000 -0.000000 -0.000000 -0.000000  0.000000 -0.000000
  0F   1f-3      -0.000000 -0.000000  0.000000 -0.000000 -0.000000 -0.000000
  0F   2f0        0.000000 -0.000000  0.000000 -0.060803 -0.000000  0.000000
  0F   2f+1      -0.000000 -0.030811  0.004969  0.000000  0.060293 -0.248798
  0F   2f-1      -0.000000 -0.004969 -0.030811 -0.000000  0.248798  0.060293
  0F   2f+2      -0.049188  0.000000 -0.000000 -0.000000  0.000000 -0.000000
  0F   2f-2      -0.000256  0.000000 -0.000000 -0.000000  0.000000 -0.000000
  0F   2f+3       0.000000  0.000000 -0.000000  0.000000  0.000000  0.000000
  0F   2f-3       0.000000 -0.000000 -0.000000  0.000000  0.000000 -0.000000
  1H   1s         0.000000  0.000000 -0.000000  0.074163  0.000000 -0.000000
  1H   2s         0.000000 -0.000000  0.000000 -5.036891  0.000000 -0.000000
  1H   3s         0.000000 -0.000000  0.000000-12.227100 -0.000000  0.000000
  1H   4s         0.000000 -0.000000  0.000000 -0.492737 -0.000000  0.000000
  1H   1pz        0.000000 -0.000000  0.000000 -0.086060 -0.000000  0.000000
  1H   1px        0.000000  0.037066 -0.005978 -0.000000  0.020151 -0.083154
  1H   1py       -0.000000  0.005978  0.037066  0.000000  0.083154  0.020151
  1H   2pz        0.000000 -0.000000  0.000000 -3.151822  0.000000 -0.000000
  1H   2px        0.000000 -0.229213  0.036968  0.000000 -0.958822  3.956562
  1H   2py        0.000000 -0.036968 -0.229213 -0.000000 -3.956562 -0.958822
  1H   3pz       -0.000000 -0.000000  0.000000 -3.920493 -0.000000  0.000000
  1H   3px        0.000000  0.067894 -0.010950 -0.000000 -0.346699  1.430649
  1H   3py        0.000000  0.010950  0.067894 -0.000000 -1.430649 -0.346699
  1H   1dz2       0.000000 -0.000000  0.000000 -0.211432 -0.000000 -0.000000
  1H   1dxz       0.000000  0.059275 -0.009560 -0.000000 -0.034132  0.140844
  1H   1dyz       0.000000  0.009560  0.059275  0.000000 -0.140844 -0.034132
  1H   1dx2y2     0.028985 -0.000000  0.000000 -0.000000 -0.000000  0.000000
  1H   1dxy       0.000151  0.000000  0.000000 -0.000000  0.000000 -0.000000
  1H   2dz2      -0.000000 -0.000000  0.000000 -0.688836 -0.000000 -0.000000
  1H   2dxz      -0.000000 -0.266583  0.042995  0.000000 -0.515565  2.127468
  1H   2dyz       0.000000 -0.042995 -0.266583 -0.000000 -2.127468 -0.515565
  1H   2dx2y2    -1.086076  0.000000 -0.000000 -0.000000 -0.000000  0.000000
  1H   2dxy      -0.005646 -0.000000 -0.000000  0.000000  0.000000  0.000000
                     30        31        32        33        34        35   
                   1.98509   2.39134   2.72792   2.80795   2.80795   2.90469
                   0.00000   0.00000   0.00000   0.00000   0.00000   0.00000
                  --------  --------  --------  --------  --------  --------
  0F   1s         0.081962 -0.471084  0.506011  0.000000  0.000000 -0.000000
  0F   2s         0.309278 -1.205049  1.308140  0.000000  0.000000 -0.000000
  0F   3s         0.114231 -0.305149  0.547895  0.000000  0.000000 -0.000000
  0F   4s         5.336430  2.521465-17.945982 -0.000000 -0.000000  0.000000
  0F   5s         8.066287  2.301808 -6.273761  0.000000 -0.000000  0.000000
  0F   1pz       -0.210463  0.041789  0.107054 -0.000000  0.000000 -0.000000
  0F   1px       -0.000000 -0.000000 -0.000000  0.000000  0.000000  0.005410
  0F   1py        0.000000  0.000000  0.000000 -0.000000  0.000000  0.028717
  0F   2pz       -0.629174  0.306100  1.601975  0.000000  0.000000 -0.000000
  0F   2px       -0.000000  0.000000  0.000000  0.000000 -0.000000  0.006760
  0F   2py       -0.000000 -0.000000  0.000000  0.000000  0.000000  0.035880
  0F   3pz       -1.699515 -2.776861 10.583631  0.000000  0.000000 -0.000000
  0F   3px        0.000000  0.000000 -0.000000 -0.000000 -0.000000 -0.088355
  0F   3py        0.000000  0.000000 -0.000000  0.000000  0.000000 -0.468973
  0F   4pz       -1.636961 -0.772743  0.592987 -0.000000  0.000000 -0.000000
  0F   4px        0.000000  0.000000 -0.000000  0.000000 -0.000000  0.046157
  0F   4py        0.000000  0.000000 -0.000000 -0.000000 -0.000000  0.244996
  0F   1dz2      -0.003744  0.012117  0.035158  0.000000  0.000000 -0.000000
  0F   1dxz      -0.000000 -0.000000  0.000000  0.000000  0.000000  0.002782
  0F   1dyz       0.000000 -0.000000  0.000000  0.000000 -0.000000  0.014766
  0F   1dx2y2    -0.000000 -0.000000  0.000000 -0.000108 -0.003305  0.000000
  0F   1dxy      -0.000000 -0.000000 -0.000000 -0.003305  0.000108  0.000000
  0F   2dz2      -0.316015 -0.389513 -1.057998 -0.000000 -0.000000  0.000000
  0F   2dxz       0.000000  0.000000 -0.000000  0.000000  0.000000  0.214983
  0F   2dyz       0.000000  0.000000  0.000000 -0.000000 -0.000000  1.141096
  0F   2dx2y2    -0.000000 -0.000000  0.000000 -0.035031 -1.075615 -0.000000
  0F   2dxy       0.000000  0.000000  0.000000 -1.075615  0.035031  0.000000
  0F   3dz2       0.229874  1.454449 -2.824634 -0.000000 -0.000000  0.000000
  0F   3dxz      -0.000000 -0.000000  0.000000 -0.000000  0.000000 -0.107825
  0F   3dyz      -0.000000 -0.000000  0.000000  0.000000  0.000000 -0.572320
  0F   3dx2y2     0.000000  0.000000 -0.000000  0.019496  0.598618  0.000000
  0F   3dxy      -0.000000 -0.000000 -0.000000  0.598618 -0.019496 -0.000000
  0F   1f0        0.016126 -0.047713  0.070590 -0.000000  0.000000 -0.000000
  0F   1f+1      -0.000000 -0.000000 -0.000000 -0.000000 -0.000000 -0.004269
  0F   1f-1      -0.000000  0.000000 -0.000000  0.000000  0.000000 -0.022662
  0F   1f+2       0.000000 -0.000000 -0.000000 -0.001722 -0.052867 -0.000000
  0F   1f-2       0.000000  0.000000  0.000000 -0.052867  0.001722 -0.000000
  0F   1f+3      -0.000000 -0.000000  0.000000 -0.000000  0.000000  0.000000
  0F   1f-3      -0.000000 -0.000000  0.000000 -0.000000  0.000000 -0.000000
  0F   2f0        0.144264  0.408227  0.285036  0.000000  0.000000 -0.000000
  0F   2f+1       0.000000  0.000000  0.000000  0.000000  0.000000  0.029643
  0F   2f-1       0.000000 -0.000000  0.000000  0.000000 -0.000000  0.157339
  0F   2f+2      -0.000000 -0.000000  0.000000  0.012999  0.399119  0.000000
  0F   2f-2      -0.000000 -0.000000 -0.000000  0.399119 -0.012999  0.000000
  0F   2f+3       0.000000  0.000000 -0.000000  0.000000 -0.000000 -0.000000
  0F   2f-3       0.000000  0.000000 -0.000000  0.000000 -0.000000  0.000000
  1H   1s        -0.398584 -0.444987 -0.635773 -0.000000 -0.000000  0.000000
  1H   2s        -2.185234 -2.598967 18.763845  0.000000  0.000000 -0.000000
  1H   3s        -9.962331 -2.215412  5.859166 -0.000000  0.000000 -0.000000
  1H   4s        -0.138404  0.018642  0.377268  0.000000  0.000000 -0.000000
  1H   1pz        0.297542  0.106752  0.442769  0.000000  0.000000 -0.000000
  1H   1px        0.000000 -0.000000  0.000000 -0.000000 -0.000000 -0.042146
  1H   1py        0.000000  0.000000 -0.000000  0.000000  0.000000 -0.223706
  1H   2pz       -3.540999 -0.257642  7.739753  0.000000  0.000000 -0.000000
  1H   2px       -0.000000 -0.000000 -0.000000  0.000000  0.000000  0.092842
  1H   2py       -0.000000 -0.000000  0.000000 -0.000000 -0.000000  0.492790
  1H   3pz       -2.891032  0.003822  2.221324 -0.000000  0.000000 -0.000000
  1H   3px       -0.000000 -0.000000  0.000000 -0.000000  0.000000 -0.046447
  1H   3py       -0.000000 -0.000000  0.000000  0.000000  0.000000 -0.246535
  1H   1dz2       0.031724 -0.087071  0.549305  0.000000  0.000000 -0.000000
  1H   1dxz      -0.000000 -0.000000  0.000000 -0.000000 -0.000000 -0.026774
  1H   1dyz       0.000000  0.000000 -0.000000 -0.000000  0.000000 -0.142110
  1H   1dx2y2    -0.000000 -0.000000  0.000000 -0.006552 -0.201180 -0.000000
  1H   1dxy      -0.000000 -0.000000 -0.000000 -0.201180  0.006552  0.000000
  1H   2dz2      -1.481291  0.841140  0.831286 -0.000000  0.000000 -0.000000
  1H   2dxz      -0.000000 -0.000000 -0.000000  0.000000  0.000000  0.072166
  1H   2dyz      -0.000000 -0.000000  0.000000 -0.000000 -0.000000  0.383044
  1H   2dx2y2    -0.000000  0.000000 -0.000000  0.002419  0.074273 -0.000000
  1H   2dxy      -0.000000  0.000000 -0.000000  0.074273 -0.002419  0.000000
                     36        37        38        39        40        41   
                   2.90469   2.93424   2.93424   3.15961   3.15961   3.16225
                   0.00000   0.00000   0.00000   0.00000   0.00000   0.00000
                  --------  --------  --------  --------  --------  --------
  0F   1s        -0.000000 -0.000000  0.000000  0.000000 -0.000000  0.180737
  0F   2s        -0.000000 -0.000000  0.000000  0.000000 -0.000000  0.459248
  0F   3s        -0.000000 -0.000000  0.000000  0.000000 -0.000000  0.156511
  0F   4s         0.000000  0.000000 -0.000000  0.000000  0.000000  1.131973
  0F   5s         0.000000  0.000000 -0.000000  0.000000 -0.000000  3.167914
  0F   1pz       -0.000000 -0.000000  0.000000 -0.000000  0.000000 -0.090424
  0F   1px       -0.028717  0.000000 -0.000000 -0.000000 -0.000000 -0.000000
  0F   1py        0.005410  0.000000  0.000000 -0.000000  0.000000  0.000000
  0F   2pz       -0.000000 -0.000000  0.000000 -0.000000  0.000000 -0.322129
  0F   2px       -0.035880  0.000000 -0.000000  0.000000  0.000000 -0.000000
  0F   2py        0.006760  0.000000  0.000000  0.000000 -0.000000 -0.000000
  0F   3pz       -0.000000 -0.000000  0.000000  0.000000 -0.000000  0.577353
  0F   3px        0.468973  0.000000 -0.000000  0.000000 -0.000000  0.000000
  0F   3py       -0.088355  0.000000  0.000000 -0.000000  0.000000  0.000000
  0F   4pz       -0.000000 -0.000000  0.000000 -0.000000  0.000000 -0.405199
  0F   4px       -0.244996  0.000000 -0.000000 -0.000000  0.000000  0.000000
  0F   4py        0.046157  0.000000  0.000000 -0.000000  0.000000  0.000000
  0F   1dz2      -0.000000 -0.000000  0.000000  0.000000 -0.000000  0.029308
  0F   1dxz      -0.014766 -0.000000  0.000000 -0.000000  0.000000 -0.000000
  0F   1dyz       0.002782 -0.000000 -0.000000 -0.000000  0.000000  0.000000
  0F   1dx2y2     0.000000 -0.000000 -0.000000  0.000144  0.005202  0.000000
  0F   1dxy      -0.000000  0.000000  0.000000  0.005202 -0.000144 -0.000000
  0F   2dz2       0.000000  0.000000 -0.000000  0.000000 -0.000000  1.111556
  0F   2dxz      -1.141096 -0.000000  0.000000 -0.000000  0.000000  0.000000
  0F   2dyz       0.214983 -0.000000 -0.000000 -0.000000 -0.000000  0.000000
  0F   2dx2y2    -0.000000  0.000000 -0.000000  0.017914  0.648389  0.000000
  0F   2dxy      -0.000000 -0.000000  0.000000  0.648389 -0.017914 -0.000000
  0F   3dz2       0.000000  0.000000 -0.000000 -0.000000  0.000000 -1.439681
  0F   3dxz       0.572320 -0.000000  0.000000  0.000000 -0.000000  0.000000
  0F   3dyz      -0.107825 -0.000000 -0.000000  0.000000 -0.000000 -0.000000
  0F   3dx2y2    -0.000000 -0.000000  0.000000 -0.019340 -0.699995 -0.000000
  0F   3dxy       0.000000  0.000000 -0.000000 -0.699995  0.019340  0.000000
  0F   1f0       -0.000000 -0.000000  0.000000 -0.000000  0.000000 -0.094435
  0F   1f+1       0.022662  0.000000 -0.000000 -0.000000 -0.000000  0.000000
  0F   1f-1      -0.004269  0.000000  0.000000  0.000000 -0.000000 -0.000000
  0F   1f+2      -0.000000  0.000000 -0.000000 -0.003752 -0.135808 -0.000000
  0F   1f-2      -0.000000 -0.000000 -0.000000 -0.135808  0.003752  0.000000
  0F   1f+3      -0.000000  0.151503 -0.044225 -0.000000  0.000000  0.000000
  0F   1f-3      -0.000000 -0.044225 -0.151503  0.000000 -0.000000  0.000000
  0F   2f0       -0.000000 -0.000000  0.000000  0.000000 -0.000000  0.699742
  0F   2f+1      -0.157339  0.000000 -0.000000  0.000000  0.000000 -0.000000
  0F   2f-1       0.029643  0.000000  0.000000 -0.000000  0.000000  0.000000
  0F   2f+2       0.000000 -0.000000  0.000000  0.028057  1.015502  0.000000
  0F   2f-2       0.000000  0.000000  0.000000  1.015502 -0.028057 -0.000000
  0F   2f+3       0.000000 -1.042891  0.304427  0.000000 -0.000000 -0.000000
  0F   2f-3       0.000000  0.304427  1.042891 -0.000000  0.000000 -0.000000
  1H   1s         0.000000  0.000000 -0.000000 -0.000000  0.000000 -0.183068
  1H   2s        -0.000000 -0.000000  0.000000  0.000000 -0.000000  1.238739
  1H   3s        -0.000000 -0.000000  0.000000 -0.000000  0.000000 -4.467387
  1H   4s        -0.000000 -0.000000  0.000000 -0.000000 -0.000000 -0.031177
  1H   1pz       -0.000000 -0.000000  0.000000  0.000000 -0.000000  0.275739
  1H   1px        0.223706  0.000000 -0.000000  0.000000 -0.000000 -0.000000
  1H   1py       -0.042146  0.000000  0.000000  0.000000  0.000000 -0.000000
  1H   2pz       -0.000000 -0.000000  0.000000 -0.000000 -0.000000 -1.470186
  1H   2px       -0.492790 -0.000000  0.000000 -0.000000  0.000000  0.000000
  1H   2py        0.092842 -0.000000 -0.000000  0.000000 -0.000000 -0.000000
  1H   3pz       -0.000000 -0.000000  0.000000 -0.000000  0.000000 -1.618526
  1H   3px        0.246535 -0.000000  0.000000  0.000000 -0.000000 -0.000000
  1H   3py       -0.046447 -0.000000 -0.000000  0.000000 -0.000000 -0.000000
  1H   1dz2      -0.000000 -0.000000  0.000000 -0.000000  0.000000 -0.232774
  1H   1dxz       0.142110  0.000000 -0.000000  0.000000 -0.000000  0.000000
  1H   1dyz      -0.026774  0.000000  0.000000  0.000000 -0.000000  0.000000
  1H   1dx2y2    -0.000000  0.000000 -0.000000 -0.002195 -0.079462 -0.000000
  1H   1dxy      -0.000000 -0.000000 -0.000000 -0.079462  0.002195  0.000000
  1H   2dz2      -0.000000 -0.000000  0.000000 -0.000000  0.000000 -0.665868
  1H   2dxz      -0.383044 -0.000000  0.000000 -0.000000  0.000000 -0.000000
  1H   2dyz       0.072166 -0.000000 -0.000000  0.000000 -0.000000 -0.000000
  1H   2dx2y2     0.000000 -0.000000  0.000000  0.014258  0.516069  0.000000
  1H   2dxy       0.000000  0.000000  0.000000  0.516069 -0.014258 -0.000000
                     42        43        44        45        46        47   
                   3.62477   3.62477   4.09113   4.16513   4.16513   4.30313
                   0.00000   0.00000   0.00000   0.00000   0.00000   0.00000
                  --------  --------  --------  --------  --------  --------
  0F   1s        -0.000000  0.000000  0.034972  0.000000 -0.000000 -0.000000
  0F   2s        -0.000000  0.000000  0.210532  0.000000 -0.000000 -0.000000
  0F   3s        -0.000000  0.000000  0.216989  0.000000 -0.000000 -0.000000
  0F   4s         0.000000 -0.000000 -6.511472 -0.000000  0.000000  0.000000
  0F   5s         0.000000 -0.000000 -4.617961 -0.000000  0.000000  0.000000
  0F   1pz       -0.000000  0.000000  0.078900  0.000000 -0.000000 -0.000000
  0F   1px       -0.018049  0.028603  0.000000  0.000000 -0.000000  0.058305
  0F   1py       -0.028603 -0.018049  0.000000  0.000000  0.000000 -0.010487
  0F   2pz       -0.000000  0.000000  0.550354  0.000000 -0.000000  0.000000
  0F   2px       -0.018339  0.029064  0.000000  0.000000 -0.000000  0.177335
  0F   2py       -0.029064 -0.018339  0.000000  0.000000 -0.000000 -0.031897
  0F   3pz       -0.000000  0.000000  4.727775  0.000000 -0.000000 -0.000000
  0F   3px        1.610360 -2.552050 -0.000000  0.000000 -0.000000  1.976536
  0F   3py        2.552050  1.610360  0.000000  0.000000 -0.000000 -0.355513
  0F   4pz       -0.000000  0.000000  0.913147  0.000000 -0.000000 -0.000000
  0F   4px        0.192435 -0.304965 -0.000000 -0.000000  0.000000  0.020416
  0F   4py        0.304965  0.192435 -0.000000  0.000000  0.000000 -0.003672
  0F   1dz2      -0.000000  0.000000 -0.035251 -0.000000  0.000000 -0.000000
  0F   1dxz       0.002889 -0.004578  0.000000  0.000000  0.000000  0.034166
  0F   1dyz       0.004578  0.002889  0.000000  0.000000  0.000000 -0.006145
  0F   1dx2y2    -0.000000  0.000000 -0.000000  0.007657 -0.000108  0.000000
  0F   1dxy      -0.000000 -0.000000 -0.000000  0.000108  0.007657  0.000000
  0F   2dz2       0.000000 -0.000000 -0.419339 -0.000000  0.000000  0.000000
  0F   2dxz      -0.079993  0.126770  0.000000 -0.000000  0.000000 -0.374898
  0F   2dyz      -0.126770 -0.079993 -0.000000 -0.000000  0.000000  0.067432
  0F   2dx2y2    -0.000000 -0.000000 -0.000000  0.357137 -0.005050 -0.000000
  0F   2dxy       0.000000  0.000000  0.000000  0.005050  0.357137  0.000000
  0F   3dz2       0.000000 -0.000000 -1.543523 -0.000000  0.000000  0.000000
  0F   3dxz      -1.026494  1.626757  0.000000 -0.000000  0.000000 -1.135421
  0F   3dyz      -1.626757 -1.026494 -0.000000 -0.000000  0.000000  0.204225
  0F   3dx2y2     0.000000  0.000000  0.000000 -0.106415  0.001505  0.000000
  0F   3dxy      -0.000000 -0.000000 -0.000000 -0.001505 -0.106415 -0.000000
  0F   1f0       -0.000000  0.000000 -0.065209 -0.000000  0.000000  0.000000
  0F   1f+1      -0.084728  0.134274  0.000000  0.000000 -0.000000  0.062565
  0F   1f-1      -0.134274 -0.084728  0.000000  0.000000 -0.000000 -0.011253
  0F   1f+2       0.000000  0.000000 -0.000000  0.072609 -0.001027 -0.000000
  0F   1f-2      -0.000000  0.000000  0.000000  0.001027  0.072609 -0.000000
  0F   1f+3      -0.000000  0.000000 -0.000000  0.000000  0.000000  0.000000
  0F   1f-3       0.000000  0.000000 -0.000000  0.000000  0.000000  0.000000
  0F   2f0        0.000000 -0.000000  0.946170  0.000000 -0.000000 -0.000000
  0F   2f+1       0.837597 -1.327398 -0.000000  0.000000 -0.000000  0.260938
  0F   2f-1       1.327398  0.837597  0.000000  0.000000 -0.000000 -0.046934
  0F   2f+2      -0.000000 -0.000000  0.000000 -0.632712  0.008947  0.000000
  0F   2f-2       0.000000  0.000000 -0.000000 -0.008947 -0.632712 -0.000000
  0F   2f+3       0.000000 -0.000000  0.000000 -0.000000 -0.000000  0.000000
  0F   2f-3      -0.000000 -0.000000  0.000000 -0.000000 -0.000000  0.000000
  1H   1s         0.000000 -0.000000  0.979979  0.000000 -0.000000 -0.000000
  1H   2s        -0.000000  0.000000  6.597068  0.000000 -0.000000 -0.000000
  1H   3s        -0.000000  0.000000  4.597410  0.000000 -0.000000 -0.000000
  1H   4s        -0.000000  0.000000  0.161904  0.000000 -0.000000 -0.000000
  1H   1pz       -0.000000  0.000000 -0.410417 -0.000000  0.000000 -0.000000
  1H   1px        0.032088 -0.050852  0.000000  0.000000 -0.000000  1.032241
  1H   1py        0.050852  0.032088  0.000000  0.000000 -0.000000 -0.185666
  1H   2pz       -0.000000  0.000000  3.212250  0.000000 -0.000000 -0.000000
  1H   2px       -1.677877  2.659049  0.000000 -0.000000  0.000000 -2.686713
  1H   2py       -2.659049 -1.677877 -0.000000 -0.000000  0.000000  0.483251
  1H   3pz       -0.000000  0.000000  0.951360  0.000000 -0.000000 -0.000000
  1H   3px       -0.453560  0.718788  0.000000 -0.000000 -0.000000 -0.201741
  1H   3py       -0.718788 -0.453560  0.000000 -0.000000  0.000000  0.036287
  1H   1dz2       0.000000 -0.000000  0.830835  0.000000 -0.000000  0.000000
  1H   1dxz      -0.082160  0.130205 -0.000000 -0.000000  0.000000 -1.020229
  1H   1dyz      -0.130205 -0.082160 -0.000000 -0.000000  0.000000  0.183505
  1H   1dx2y2     0.000000 -0.000000  0.000000 -1.201240  0.016986  0.000000
  1H   1dxy       0.000000 -0.000000 -0.000000 -0.016986 -1.201240 -0.000000
  1H   2dz2      -0.000000  0.000000  0.032849  0.000000 -0.000000  0.000000
  1H   2dxz      -0.710610  1.126154  0.000000 -0.000000  0.000000 -0.706421
  1H   2dyz      -1.126154 -0.710610 -0.000000 -0.000000  0.000000  0.127062
  1H   2dx2y2    -0.000000 -0.000000 -0.000000  0.277350 -0.003922 -0.000000
  1H   2dxy       0.000000  0.000000  0.000000  0.003922  0.277350  0.000000
                     48        49        50        51        52        53   
                   4.30313   4.76858   4.76858   5.06854   5.65682   6.07723
                   0.00000   0.00000   0.00000   0.00000   0.00000   0.00000
                  --------  --------  --------  --------  --------  --------
  0F   1s         0.000000 -0.000000 -0.000000  0.039306 -0.392483  0.000000
  0F   2s        -0.000000 -0.000000 -0.000000  0.257028 -1.028382  0.000000
  0F   3s        -0.000000 -0.000000 -0.000000  0.101796 -0.398554 -0.000000
  0F   4s         0.000000  0.000000  0.000000 -1.756736 -8.939516  0.000000
  0F   5s         0.000000  0.000000  0.000000 -2.287210 -2.970616  0.000000
  0F   1pz       -0.000000 -0.000000 -0.000000 -0.676886 -0.225225 -0.000000
  0F   1px        0.010487 -0.436116  0.734935 -0.000000 -0.000000 -0.219973
  0F   1py        0.058305  0.734935  0.436116 -0.000000 -0.000000 -0.879000
  0F   2pz       -0.000000  0.000000  0.000000  0.148739  2.404770 -0.000000
  0F   2px        0.031897  0.375025 -0.631985  0.000000  0.000000  0.382094
  0F   2py        0.177335 -0.631985 -0.375025  0.000000  0.000000  1.526829
  0F   3pz       -0.000000 -0.000000 -0.000000 -0.175645  3.207158 -0.000000
  0F   3px        0.355513 -0.711620  1.199210 -0.000000 -0.000000  0.126756
  0F   3py        1.976536  1.199210  0.711620 -0.000000  0.000000  0.506512
  0F   4pz       -0.000000 -0.000000 -0.000000  0.482045  0.299415 -0.000000
  0F   4px        0.003672  0.077976 -0.131404 -0.000000 -0.000000  0.013964
  0F   4py        0.020416 -0.131404 -0.077976 -0.000000 -0.000000  0.055800
  0F   1dz2       0.000000  0.000000 -0.000000 -0.100407  0.119838  0.000000
  0F   1dxz       0.006145 -0.007989  0.013463  0.000000  0.000000 -0.006935
  0F   1dyz       0.034166  0.013463  0.007989 -0.000000 -0.000000 -0.027713
  0F   1dx2y2    -0.000000  0.000000  0.000000  0.000000  0.000000 -0.000000
  0F   1dxy       0.000000 -0.000000 -0.000000 -0.000000 -0.000000  0.000000
  0F   2dz2       0.000000 -0.000000  0.000000  0.814850 -0.250943 -0.000000
  0F   2dxz      -0.067432  0.446054 -0.751682  0.000000 -0.000000 -0.267899
  0F   2dyz      -0.374898 -0.751682 -0.446054 -0.000000 -0.000000 -1.070512
  0F   2dx2y2    -0.000000 -0.000000  0.000000 -0.000000 -0.000000  0.000000
  0F   2dxy       0.000000 -0.000000  0.000000 -0.000000 -0.000000  0.000000
  0F   3dz2       0.000000  0.000000  0.000000  0.087409 -0.168842  0.000000
  0F   3dxz      -0.204225  0.210486 -0.354707  0.000000  0.000000 -0.134813
  0F   3dyz      -1.135421 -0.354707 -0.210486  0.000000 -0.000000 -0.538705
  0F   3dx2y2     0.000000  0.000000 -0.000000  0.000000  0.000000  0.000000
  0F   3dxy      -0.000000  0.000000 -0.000000  0.000000  0.000000 -0.000000
  0F   1f0        0.000000  0.000000 -0.000000 -0.022210  0.217028 -0.000000
  0F   1f+1       0.011253  0.026238 -0.044215 -0.000000 -0.000000 -0.023614
  0F   1f-1       0.062565 -0.044215 -0.026238  0.000000  0.000000 -0.094360
  0F   1f+2      -0.000000  0.000000  0.000000 -0.000000 -0.000000 -0.000000
  0F   1f-2       0.000000  0.000000 -0.000000  0.000000  0.000000 -0.000000
  0F   1f+3       0.000000 -0.000000  0.000000 -0.000000  0.000000 -0.000000
  0F   1f-3      -0.000000 -0.000000 -0.000000  0.000000 -0.000000  0.000000
  0F   2f0       -0.000000 -0.000000 -0.000000 -0.389242 -0.932938  0.000000
  0F   2f+1       0.046934 -0.406230  0.684572 -0.000000 -0.000000  0.250108
  0F   2f-1       0.260938  0.684572  0.406230  0.000000  0.000000  0.999419
  0F   2f+2       0.000000 -0.000000  0.000000 -0.000000 -0.000000  0.000000
  0F   2f-2      -0.000000  0.000000  0.000000  0.000000 -0.000000 -0.000000
  0F   2f+3       0.000000  0.000000 -0.000000  0.000000  0.000000  0.000000
[...]

 re-compute Schwartz prescreening matrix in partically contracted basis (3) ...done (   0.003 sec)
done (    9.2)
done (    1.1)
Building the initial guess                 ... done (    0.0)
Solving Root No   1 

Iter    Delta-E          Residual              Time
---------------------------------------------------
  0   0.385637523259   0.001829218919         0.000
  1   0.003741496279   0.000161830793         0.000
  2   0.000178625998   0.000023382543         0.000
  3   0.000000267895   0.000005470762         0.000

      *** CONVERGENCE OF RESIDUAL NORM REACHED ***
       --- The STEOM iterations have converged ---
Solving Root No   2 

Iter    Delta-E          Residual              Time
---------------------------------------------------
  0   0.385637544943   0.001829217381         0.000
  1   0.003741497442   0.000161830619         0.000
  2   0.000178625578   0.000023382472         0.000
  3   0.000000268041   0.000005470730         0.000

      *** CONVERGENCE OF RESIDUAL NORM REACHED ***
       --- The STEOM iterations have converged ---
Solving Root No   3 

Iter    Delta-E          Residual              Time
---------------------------------------------------
  0   0.505775181101   0.001225591012         0.000
  1   0.021493530070   0.032086480471         0.000
  2   0.020735189824   0.000690837568         0.000
  3   0.000578351054   0.000048290729         0.000
  4   0.000040046424   0.000020203223         0.000
  5   0.000029853399   0.000005279634         0.000

      *** CONVERGENCE OF RESIDUAL NORM REACHED ***
       --- The STEOM iterations have converged ---
Solving Root No   4 

Iter    Delta-E          Residual              Time
---------------------------------------------------
  0   0.505775176596   0.001225591343         0.000
  1   0.021493555908   0.032086491781         0.000
  2   0.020735216146   0.000690839102         0.000
  3   0.000578350937   0.000048291036         0.000
  4   0.000040046815   0.000020204197         0.000
  5   0.000029853681   0.000005279943         0.000

      *** CONVERGENCE OF RESIDUAL NORM REACHED ***
       --- The STEOM iterations have converged ---
Solving Root No   5 

Iter    Delta-E          Residual              Time
---------------------------------------------------
  0   0.529510171039   0.002371918661         0.000
  1   0.001526673373   0.000196203708         0.000
  2   0.000216644492   0.000062375456         0.000
  3   0.000179026742   0.000053047512         0.000
  4   0.000102447703   0.000007220487         0.000

      *** CONVERGENCE OF RESIDUAL NORM REACHED ***
       --- The STEOM iterations have converged ---
Solving Root No   6 

Iter    Delta-E          Residual              Time
---------------------------------------------------
  0   0.535614714667   0.000955486503         0.000
  1   0.001348959643   0.000026188730         0.000
  2   0.000012834167   0.000000498908         0.000

      *** CONVERGENCE OF RESIDUAL NORM REACHED ***
       --- The STEOM iterations have converged ---
Solving Root No   7 

Iter    Delta-E          Residual              Time
---------------------------------------------------
  0   0.535617885772   0.000997329166         0.000
  1   0.001338518944   0.000031184467         0.000
  2   0.000014459311   0.000000741431         0.000

      *** CONVERGENCE OF RESIDUAL NORM REACHED ***
       --- The STEOM iterations have converged ---
Solving Root No   8 

Iter    Delta-E          Residual              Time
---------------------------------------------------
  0   0.537439999497   0.000893080650         0.000
  1   0.001513812278   0.000013324826         0.000
  2   0.000003492859   0.000000757485         0.000

      *** CONVERGENCE OF RESIDUAL NORM REACHED ***
       --- The STEOM iterations have converged ---
Solving Root No   9 

Iter    Delta-E          Residual              Time
---------------------------------------------------
  0   0.553989143526   0.000359736938         0.000
  1   0.001171619992   0.003514853935         0.000
  2   0.001278621765   0.000047218407         0.000
  3   0.000121969318   0.000052955699         0.000
  4   0.000209690429   0.000418293834         0.000
  5   0.000261891817   0.000056293268         0.000
  6   0.000011338740   0.000002738081         0.000

      *** CONVERGENCE OF RESIDUAL NORM REACHED ***
       --- The STEOM iterations have converged ---
Solving Root No  10 

Iter    Delta-E          Residual              Time
---------------------------------------------------
  0   0.553989153557   0.000359738158         0.000
  1   0.001171632520   0.003514901503         0.000
  2   0.001278635748   0.000047218852         0.000
  3   0.000121975310   0.000052960615         0.000
  4   0.000209731753   0.000418399530         0.000
  5   0.000261941195   0.000056299500         0.000
  6   0.000011341975   0.000002739199         0.000

      *** CONVERGENCE OF RESIDUAL NORM REACHED ***
       --- The STEOM iterations have converged ---

------------------
STEOM-CCSD RESULTS
------------------

IROOT=  1:  0.381717 au    10.387 eV   83777.2 cm**-1
  Amplitude    Excitation
  -0.806208     4 ->   5
  -0.207805     4 ->   6
  -0.546580     4 ->   9
  Ground state amplitude: -0.000000

Percentage Active Character     99.83

  Amplitude    Excitation in Canonical Basis
   0.792384     4 ->   5
   0.419827     4 ->   6
  -0.361555     4 ->   9
   0.104962     4 ->  12
  -0.197709     4 ->  13

IROOT=  2:  0.381717 au    10.387 eV   83777.2 cm**-1
  Amplitude    Excitation
  -0.806208     3 ->   5
  -0.207805     3 ->   6
  -0.546580     3 ->   9
  Ground state amplitude: -0.000000

Percentage Active Character     99.83

  Amplitude    Excitation in Canonical Basis
  -0.792384     3 ->   5
  -0.419826     3 ->   6
   0.361555     3 ->   9
  -0.104962     3 ->  12
   0.197709     3 ->  13

IROOT=  3:  0.504369 au    13.725 eV  110696.1 cm**-1
  Amplitude    Excitation
   0.438559     3 ->   5
  -0.817237     3 ->   6
  -0.361979     3 ->   9
  Ground state amplitude:  0.000000

Percentage Active Character     99.35

  Amplitude    Excitation in Canonical Basis
   0.459305     3 ->   5
  -0.817210     3 ->   6
   0.197341     3 ->  12
   0.269399     3 ->  13

IROOT=  4:  0.504369 au    13.725 eV  110696.1 cm**-1
  Amplitude    Excitation
   0.438559     4 ->   5
  -0.817237     4 ->   6
  -0.361979     4 ->   9
  Ground state amplitude: -0.000000

Percentage Active Character     99.35

  Amplitude    Excitation in Canonical Basis
  -0.459305     4 ->   5
   0.817210     4 ->   6
  -0.197342     4 ->  12
  -0.269399     4 ->  13

IROOT=  5:  0.527690 au    14.359 eV  115814.6 cm**-1
  Amplitude    Excitation
   0.718018     2 ->   5
   0.157696     2 ->   6
   0.452471     2 ->   9
  -0.197509     3 ->   7
   0.292605     3 ->   8
  -0.292606     4 ->   7
  -0.197509     4 ->   8
  Ground state amplitude:  0.005754

Percentage Active Character     99.44

  Amplitude    Excitation in Canonical Basis
   0.706301     2 ->   5
   0.346084     2 ->   6
  -0.309257     2 ->   9
  -0.146899     2 ->  13
   0.158334     3 ->   7
  -0.303292     3 ->   8
   0.303292     4 ->   7
   0.158335     4 ->   8

IROOT=  6:  0.534253 au    14.538 eV  117255.0 cm**-1
  Amplitude    Excitation
   0.418180     3 ->   7
  -0.569526     3 ->   8
  -0.569525     4 ->   7
  -0.418182     4 ->   8
  Ground state amplitude: -0.000000

Percentage Active Character     99.85

  Amplitude    Excitation in Canonical Basis
  -0.295988     3 ->   7
   0.622431     3 ->   8
  -0.120187     3 ->  10
   0.622432     4 ->   7
   0.295986     4 ->   8
  -0.120189     4 ->  11

IROOT=  7:  0.534265 au    14.538 eV  117257.6 cm**-1
  Amplitude    Excitation
   0.569511     3 ->   7
   0.418192     3 ->   8
   0.418193     4 ->   7
  -0.569512     4 ->   8
  Ground state amplitude:  0.000000

Percentage Active Character     99.85

  Amplitude    Excitation in Canonical Basis
   0.622555     3 ->   7
   0.296021     3 ->   8
  -0.119697     3 ->  11
   0.296022     4 ->   7
  -0.622557     4 ->   8
   0.119699     4 ->  10

IROOT=  8:  0.535923 au    14.583 eV  117621.4 cm**-1
  Amplitude    Excitation
  -0.585495     3 ->   7
  -0.395942     3 ->   8
   0.395942     4 ->   7
  -0.585495     4 ->   8
  Ground state amplitude:  0.000061

Percentage Active Character     99.92

  Amplitude    Excitation in Canonical Basis
  -0.610068     3 ->   7
  -0.317351     3 ->   8
   0.120723     3 ->  11
   0.317351     4 ->   7
  -0.610068     4 ->   8
   0.120723     4 ->  10

IROOT=  9:  0.553801 au    15.070 eV  121545.3 cm**-1
  Amplitude    Excitation
   0.371643     4 ->   5
   0.536401     4 ->   6
  -0.756138     4 ->   9
  Ground state amplitude: -0.000000

Percentage Active Character     99.89

  Amplitude    Excitation in Canonical Basis
  -0.345150     4 ->   5
  -0.197140     4 ->   6
  -0.897777     4 ->   9
   0.100346     4 ->  12
  -0.127685     4 ->  14

IROOT= 10:  0.553801 au    15.070 eV  121545.3 cm**-1
  Amplitude    Excitation
  -0.371642     3 ->   5
  -0.536403     3 ->   6
   0.756137     3 ->   9
  Ground state amplitude:  0.000001

Percentage Active Character     99.89

  Amplitude    Excitation in Canonical Basis
  -0.345149     3 ->   5
  -0.197142     3 ->   6
  -0.897777     3 ->   9
   0.100345     3 ->  12
  -0.127685     3 ->  14


STEOM-CCSD done (    1.2 sec)
Calculating the Dipole integrals                  ... done
Transforming integrals                            ... done
Calculating the Linear Momentum integrals         ... done
Transforming integrals                            ... done
Calculating angular momentum integrals            ... done
Transforming integrals                            ... done

--------------------------------------------------------------------
               UNRELAXED EXCITED STATE DIPOLE MOMENTS
--------------------------------------------------------------------
               E(eV)     DX(au)      DY(au)      DZ(au)      |D|(D)
IROOT=  0:     0.000   -0.000000    0.000000   -0.711512    1.808519
IROOT=  1:    10.387   -0.000939   -0.000327    1.435159    3.647885
IROOT=  2:    10.387    0.000962    0.000318    1.435159    3.647885
IROOT=  3:    13.725   -0.001804   -0.000723   -1.040387    2.644459
IROOT=  4:    13.725    0.001785    0.000735   -1.040392    2.644472
IROOT=  5:    14.359   -0.000022    0.000013    0.957583    2.433982
IROOT=  6:    14.538    0.000930   -0.000723   -0.641173    1.629734
IROOT=  7:    14.538   -0.000923    0.000714   -0.644233    1.637512
IROOT=  8:    14.583   -0.000004    0.000001   -0.617898    1.570571
IROOT=  9:    15.070    0.001413    0.000615   -0.487613    1.239420
IROOT= 10:    15.070   -0.001401   -0.000621   -0.487620    1.239438
--------------------------------------------------------------------

-----------------------------------------------------------------------------
         ABSORPTION SPECTRUM VIA TRANSITION ELECTRIC DIPOLE MOMENTS
-----------------------------------------------------------------------------
State   Energy  Wavelength   fosc         T2         TX        TY        TZ  
        (cm-1)    (nm)                  (au**2)     (au)      (au)      (au) 
-----------------------------------------------------------------------------
   1   83777.2    119.4   0.038169874   0.14999   0.01168   0.38711   0.00000
   2   83777.2    119.4   0.038169883   0.14999   0.38711   0.01168   0.00000
   3  110696.1     90.3   0.013287018   0.03952   0.19879   0.00041   0.00000
   4  110696.1     90.3   0.013287055   0.03952   0.00041   0.19879   0.00000
   5  115814.6     86.3   0.126085280   0.35841   0.00000   0.00000   0.59867
   6  117255.0     85.3   0.000000148   0.00000   0.00056   0.00032   0.00000
   7  117257.6     85.3   0.000000149   0.00000   0.00032   0.00056   0.00000
   8  117621.4     85.0   0.000000010   0.00000   0.00000   0.00000   0.00017
   9  121545.3     82.3   0.004956775   0.01343   0.00179   0.11586   0.00000
  10  121545.3     82.3   0.004956753   0.01343   0.11586   0.00179   0.00000

-------------------------------------------------------------------
                             CD SPECTRUM
-------------------------------------------------------------------
State   Energy Wavelength       R         MX        MY        MZ   
        (cm-1)   (nm)       (1e40*cgs)   (au)      (au)      (au)  
-------------------------------------------------------------------
   1     119.4   83777.2     -0.00114  -0.06792  -0.00204   0.00002
   2     119.4   83777.2     -0.00113   0.00204  -0.06792  -0.00000
   3      90.3   110696.1      0.00027  -0.00010  -0.04533  -0.00001
   4      90.3   110696.1      0.00027  -0.04533   0.00010   0.00011
   5      86.3   115814.6      0.00000  -0.00000  -0.00000   0.00000
   6      85.3   117255.0      0.00006  -0.00001   0.00002  -0.01487
   7      85.3   117257.6      0.00003  -0.00002  -0.00001  -0.02014
   8      85.0   117621.4     -0.00000   0.00000  -0.00000   0.00000
   9      82.3   121545.3     -0.00089  -0.03963   0.00063   0.00001
  10      82.3   121545.3     -0.00089   0.00063   0.03963   0.00000

TDM done (    1.3 sec)
STEOM-CCSD done in (    1.3)


------------------------------------------------------------------------------- 
                                     TIMINGS                                   
------------------------------------------------------------------------------- 


Total execution time                   ...        9.337 sec

Localization of occupied MO's          ...        0.405 sec (  4.3%)
Fock Matrix Formation                  ...        0.293 sec (  3.1%)
Global overlap, Fock, MKN matrices     ...        0.173 sec (  1.9%)
Differential overlap integrals         ...        0.052 sec (  0.6%)
Organizing maps                        ...        0.003 sec (  0.0%)
RI 3-index integral generations        ...        0.479 sec (  5.1%)
RI-PNO integral transformation         ...        0.296 sec (  3.2%)
Initial Guess                          ...        0.040 sec (  0.4%)
DIIS Solver                            ...        0.011 sec (  0.1%)
State Vector Update                    ...        0.001 sec (  0.0%)
Sigma-vector construction              ...        1.965 sec ( 21.0%)
  <D|H|D>(0-ext)                       ...        0.014 sec (  0.7% of sigma)
  <D|H|D>(2-ext)                       ...        0.051 sec (  2.6% of sigma)
  <D|H|D>(4-ext)                       ...        0.309 sec ( 15.7% of sigma)
  <D|H|D>(4-ext-corr)                  ...        1.073 sec ( 54.6% of sigma)
  CCSD doubles correction              ...        0.003 sec (  0.1% of sigma)
  <S|H|S>                              ...        0.024 sec (  1.2% of sigma)
  <S|H|D>(1-ext)                       ...        0.003 sec (  0.1% of sigma)
  <S|H|D>(3-ext)                       ...        0.014 sec (  0.7% of sigma)
  Fock-dressing                        ...        0.079 sec (  4.0% of sigma)
  Singles amplitudes                   ...        0.005 sec (  0.3% of sigma)
  (ik|jl)-dressing                     ...        0.011 sec (  0.6% of sigma)
  (ij|ab),(ia|jb)-dressing             ...        0.042 sec (  2.1% of sigma)
Total Time for computing EOM-CCSD      ...        2.940 sec ( 31.5% of ALL)
  Dressing integrals                   ...        0.071 sec (  2.4% of (EOM))
  EOM Singles                          ...        0.045 sec (  1.5% of (EOM))
  EOM Doubles                          ...        2.608 sec ( 88.7% of (EOM))
  Build Hamiltonian                    ...        0.014 sec (  0.5% of (EOM))
  Diagonalize Hamiltonian              ...        0.006 sec (  0.2% of (EOM))
  Ritz vectors                         ...        0.043 sec (  1.5% of (EOM))
  Residual vectors                     ...        0.052 sec (  1.8% of (EOM))
One-particle density matrix            ...        0.004 sec (  0.0%)


Maximum memory used throughout the entire MDCI-calculation: 126.5 MB

-------------------------   --------------------
FINAL SINGLE POINT ENERGY       -99.960459132175
-------------------------   --------------------


                            ***************************************
                            *     ORCA property calculations      *
                            ***************************************

                                    ---------------------
                                    Active property flags
                                    ---------------------
   (+) Dipole Moment


------------------------------------------------------------------------------
                       ORCA ELECTRIC PROPERTIES CALCULATION
------------------------------------------------------------------------------

Dipole Moment Calculation                       ... on
Quadrupole Moment Calculation                   ... off
Polarizability Calculation                      ... off
GBWName                                         ... 000004.gbw
Electron density file                           ... 000004.scfp
The origin for moment calculation is the CENTER OF MASS  = ( 0.000000,  0.000000  0.086071)

-------------
DIPOLE MOMENT
-------------
                                X             Y             Z
Electronic contribution:     -0.00000      -0.00000       0.10244
Nuclear contribution   :      0.00000       0.00000      -0.86072
                        -----------------------------------------
Total Dipole Moment    :     -0.00000      -0.00000      -0.75828
                        -----------------------------------------
Magnitude (a.u.)       :      0.75828
Magnitude (Debye)      :      1.92740



--------------------
Rotational spectrum 
--------------------
 
Rotational constants in cm-1:     0.000000    20.897344    20.897344 
Rotational constants in MHz :     0.000000 626486.605951 626486.605951 

 Dipole components along the rotational axes: 
x,y,z [a.u.] :    -0.758283    -0.000000    -0.000000 
x,y,z [Debye]:    -1.927402    -0.000000    -0.000000 

 

                           *** MDCI DENSITY ***

------------------------------------------------------------------------------
                       ORCA ELECTRIC PROPERTIES CALCULATION
------------------------------------------------------------------------------

Dipole Moment Calculation                       ... on
Quadrupole Moment Calculation                   ... off
Polarizability Calculation                      ... off
GBWName                                         ... 000004.gbw
Electron density file                           ... 000004.mdcip
The origin for moment calculation is the CENTER OF MASS  = ( 0.000000,  0.000000  0.086071)

-------------
DIPOLE MOMENT
-------------
                                X             Y             Z
Electronic contribution:     -0.00000       0.00000       0.16188
Nuclear contribution   :      0.00000       0.00000      -0.86072
                        -----------------------------------------
Total Dipole Moment    :     -0.00000       0.00000      -0.69884
                        -----------------------------------------
Magnitude (a.u.)       :      0.69884
Magnitude (Debye)      :      1.77630



--------------------
Rotational spectrum 
--------------------
 
Rotational constants in cm-1:     0.000000    20.897344    20.897344 
Rotational constants in MHz :     0.000000 626486.605951 626486.605951 

 Dipole components along the rotational axes: 
x,y,z [a.u.] :    -0.698836     0.000000    -0.000000 
x,y,z [Debye]:    -1.776299     0.000000    -0.000000 

 

Timings for individual modules:

Sum of individual times         ...       12.500 sec (=   0.208 min)
GTO integral calculation        ...        1.020 sec (=   0.017 min)   8.2 %
SCF iterations                  ...        1.709 sec (=   0.028 min)  13.7 %
MDCI module                     ...        9.771 sec (=   0.163 min)  78.2 %
                             ****ORCA TERMINATED NORMALLY****
TOTAL RUN TIME: 0 days 0 hours 0 minutes 13 seconds 277 msec
