 Entering Gaussian System, Link 0=g16
 Input=000022.com
 Output=000022.log
 Initial command:
 /home/sabyasachi/g16/l1.exe "/scratch/sabyasachi/PBS_7976123.helios/Gau-106290.inp" -scrdir="/scratch/sabyasachi/PBS_7976123.helios/"
 Entering Link 1 = /home/sabyasachi/g16/l1.exe PID=    106291.
  
 Copyright (c) 1988-2019, Gaussian, Inc.  All Rights Reserved.
  
 This is part of the Gaussian(R) 16 program.  It is based on
 the Gaussian(R) 09 system (copyright 2009, Gaussian, Inc.),
 the Gaussian(R) 03 system (copyright 2003, Gaussian, Inc.),
 the Gaussian(R) 98 system (copyright 1998, Gaussian, Inc.),
 the Gaussian(R) 94 system (copyright 1995, Gaussian, Inc.),
 the Gaussian 92(TM) system (copyright 1992, Gaussian, Inc.),
 the Gaussian 90(TM) system (copyright 1990, Gaussian, Inc.),
 the Gaussian 88(TM) system (copyright 1988, Gaussian, Inc.),
 the Gaussian 86(TM) system (copyright 1986, Carnegie Mellon
 University), and the Gaussian 82(TM) system (copyright 1983,
 Carnegie Mellon University). Gaussian is a federally registered
 trademark of Gaussian, Inc.
  
 This software contains proprietary and confidential information,
 including trade secrets, belonging to Gaussian, Inc.
  
 This software is provided under written license and may be
 used, copied, transmitted, or stored only in accord with that
 written license.
  
 The following legend is applicable only to US Government
 contracts under FAR:
  
                    RESTRICTED RIGHTS LEGEND
  
 Use, reproduction and disclosure by the US Government is
 subject to restrictions as set forth in subparagraphs (a)
 and (c) of the Commercial Computer Software - Restricted
 Rights clause in FAR 52.227-19.
  
 Gaussian, Inc.
 340 Quinnipiac St., Bldg. 40, Wallingford CT 06492
  
  
 ---------------------------------------------------------------
 Warning -- This program may not be used in any manner that
 competes with the business of Gaussian, Inc. or will provide
 assistance to any competitor of Gaussian, Inc.  The licensee
 of this program is prohibited from giving any competitor of
 Gaussian, Inc. access to this program.  By using this program,
 the user acknowledges that Gaussian, Inc. is engaged in the
 business of creating and licensing software in the field of
 computational chemistry and represents and warrants to the
 licensee that it is not a competitor of Gaussian, Inc. and that
 it will not use this program in any manner prohibited above.
 ---------------------------------------------------------------
  

 Cite this work as:
 Gaussian 16, Revision C.01,
 M. J. Frisch, G. W. Trucks, H. B. Schlegel, G. E. Scuseria, 
 M. A. Robb, J. R. Cheeseman, G. Scalmani, V. Barone, 
 G. A. Petersson, H. Nakatsuji, X. Li, M. Caricato, A. V. Marenich, 
 J. Bloino, B. G. Janesko, R. Gomperts, B. Mennucci, H. P. Hratchian, 
 J. V. Ortiz, A. F. Izmaylov, J. L. Sonnenberg, D. Williams-Young, 
 F. Ding, F. Lipparini, F. Egidi, J. Goings, B. Peng, A. Petrone, 
 T. Henderson, D. Ranasinghe, V. G. Zakrzewski, J. Gao, N. Rega, 
 G. Zheng, W. Liang, M. Hada, M. Ehara, K. Toyota, R. Fukuda, 
 J. Hasegawa, M. Ishida, T. Nakajima, Y. Honda, O. Kitao, H. Nakai, 
 T. Vreven, K. Throssell, J. A. Montgomery, Jr., J. E. Peralta, 
 F. Ogliaro, M. J. Bearpark, J. J. Heyd, E. N. Brothers, K. N. Kudin, 
 V. N. Staroverov, T. A. Keith, R. Kobayashi, J. Normand, 
 K. Raghavachari, A. P. Rendell, J. C. Burant, S. S. Iyengar, 
 J. Tomasi, M. Cossi, J. M. Millam, M. Klene, C. Adamo, R. Cammi, 
 J. W. Ochterski, R. L. Martin, K. Morokuma, O. Farkas, 
 J. B. Foresman, and D. J. Fox, Gaussian, Inc., Wallingford CT, 2019.
 
 ******************************************
 Gaussian 16:  EM64L-G16RevC.01  3-Jul-2019
                21-Mar-2022 
 ******************************************
 %mem=64gb
 %nproc=8
 Will use up to    8 processors via shared memory.
 ---------------------------------------------------------------------
 #P TD(Nstates=10000) m062x/Gen SCF(maxcycles=100) Int(Grid=ultrafine)
 ---------------------------------------------------------------------
 1/38=1,172=1/1;
 2/12=2,17=6,18=5,40=1/2;
 3/5=7,11=9,25=1,30=1,74=-55,75=-5/1,2,3,8;
 4//1;
 5/5=2,7=100,38=5/2;
 8/6=1,10=1,108=10000/1;
 9/41=10000,42=1,70=2/14;
 6/7=2,8=2,9=2,10=2/1;
 99/5=1,9=1/99;
 Leave Link    1 at Mon Mar 21 04:05:07 2022, MaxMem=  8589934592 cpu:               0.4 elap:               0.1
 (Enter /home/sabyasachi/g16/l101.exe)
 ---------------------
 xGDB7_00001_tier4.com
 ---------------------
 Symbolic Z-matrix:
 Charge =  0 Multiplicity = 1
 6                     0.92625  -0.71906   0. 
 6                     0.        0.45928   0. 
 8                    -1.197     0.38714   0. 
 1                     1.57597  -0.66868   0.8777 
 1                     1.57597  -0.66868  -0.8777 
 1                     0.36673  -1.65224   0. 
 1                     0.49981   1.45118   0. 
 
 ITRead=  0  0  0  0  0  0  0
 MicOpt= -1 -1 -1 -1 -1 -1 -1
 NAtoms=      7 NQM=        7 NQMF=       0 NMMI=      0 NMMIF=      0
                NMic=       0 NMicF=      0.
                    Isotopes and Nuclear Properties:
 (Nuclear quadrupole moments (NQMom) in fm**2, nuclear magnetic moments (NMagM)
  in nuclear magnetons)

  Atom         1           2           3           4           5           6           7
 IAtWgt=          12          12          16           1           1           1           1
 AtmWgt=  12.0000000  12.0000000  15.9949146   1.0078250   1.0078250   1.0078250   1.0078250
 NucSpn=           0           0           0           1           1           1           1
 AtZEff=  -0.0000000  -0.0000000  -0.0000000  -0.0000000  -0.0000000  -0.0000000  -0.0000000
 NQMom=    0.0000000   0.0000000   0.0000000   0.0000000   0.0000000   0.0000000   0.0000000
 NMagM=    0.0000000   0.0000000   0.0000000   2.7928460   2.7928460   2.7928460   2.7928460
 AtZNuc=   6.0000000   6.0000000   8.0000000   1.0000000   1.0000000   1.0000000   1.0000000
 Leave Link  101 at Mon Mar 21 04:05:07 2022, MaxMem=  8589934592 cpu:               0.6 elap:               0.1
 (Enter /home/sabyasachi/g16/l202.exe)
                          Input orientation:                          
 ---------------------------------------------------------------------
 Center     Atomic      Atomic             Coordinates (Angstroms)
 Number     Number       Type             X           Y           Z
 ---------------------------------------------------------------------
      1          6           0        0.926252   -0.719055    0.000000
      2          6           0        0.000000    0.459276    0.000000
      3          8           0       -1.196998    0.387135    0.000000
      4          1           0        1.575966   -0.668677    0.877698
      5          1           0        1.575966   -0.668677   -0.877698
      6          1           0        0.366734   -1.652236    0.000000
      7          1           0        0.499812    1.451182    0.000000
 ---------------------------------------------------------------------
                    Distance matrix (angstroms):
                    1          2          3          4          5
     1  C    0.000000
     2  C    1.498802   0.000000
     3  O    2.394128   1.199170   0.000000
     4  H    1.093170   2.127510   3.094256   0.000000
     5  H    1.093170   2.127510   3.094256   1.755396   0.000000
     6  H    1.088066   2.143123   2.569882   1.788850   1.788850
     7  H    2.211737   1.110716   2.002838   2.534218   2.534218
                    6          7
     6  H    0.000000
     7  H    3.106270   0.000000
 Stoichiometry    C2H4O
 Framework group  CS[SG(C2H2O),X(H2)]
 Deg. of freedom    10
 Full point group                 CS      NOp   2
 Largest Abelian subgroup         CS      NOp   2
 Largest concise Abelian subgroup CS      NOp   2
                         Standard orientation:                         
 ---------------------------------------------------------------------
 Center     Atomic      Atomic             Coordinates (Angstroms)
 Number     Number       Type             X           Y           Z
 ---------------------------------------------------------------------
      1          6           0        0.926251   -0.719055    0.000000
      2          6           0        0.000000    0.459276    0.000000
      3          8           0       -1.196998    0.387136    0.000000
      4          1           0        1.575965   -0.668678    0.877698
      5          1           0        1.575965   -0.668678   -0.877698
      6          1           0        0.366733   -1.652236    0.000000
      7          1           0        0.499813    1.451182    0.000000
 ---------------------------------------------------------------------
 Rotational constants (GHZ):          57.4985089          10.2267038           9.1717854
 Leave Link  202 at Mon Mar 21 04:05:08 2022, MaxMem=  8589934592 cpu:               0.1 elap:               0.0
 (Enter /home/sabyasachi/g16/l301.exe)
 General basis read from cards:  (5D, 7F)
 Centers:       4      5      6      7
 S 3 1.00
     Exponent=  1.3010701000D+01 Coefficients=  1.9682158000D-02
     Exponent=  1.9622572000D+00 Coefficients=  1.3796524000D-01
     Exponent=  4.4453796000D-01 Coefficients=  4.7831935000D-01
 S 1 1.00
     Exponent=  1.2194962000D-01 Coefficients=  1.0000000000D+00
 P 1 1.00
     Exponent=  8.0000000000D-01 Coefficients=  1.0000000000D+00
 P 1 1.00
     Exponent=  1.1704099050D-01 Coefficients=  1.0000000000D+00
 ****
 Centers:       1      2
 S 5 1.00
     Exponent=  1.2384016938D+03 Coefficients=  5.4568832082D-03
     Exponent=  1.8629004992D+02 Coefficients=  4.0638409211D-02
     Exponent=  4.2251176346D+01 Coefficients=  1.8025593888D-01
     Exponent=  1.1676557932D+01 Coefficients=  4.6315121755D-01
     Exponent=  3.5930506482D+00 Coefficients=  4.4087173314D-01
 S 1 1.00
     Exponent=  4.0245147363D-01 Coefficients=  1.0000000000D+00
 S 1 1.00
     Exponent=  1.3090182668D-01 Coefficients=  1.0000000000D+00
 S 1 1.00
     Exponent=  6.7053540256D-02 Coefficients=  1.0000000000D+00
 P 3 1.00
     Exponent=  9.4680970621D+00 Coefficients=  3.8387871728D-02
     Exponent=  2.0103545142D+00 Coefficients=  2.1117025112D-01
     Exponent=  5.4771004707D-01 Coefficients=  5.1328172114D-01
 P 1 1.00
     Exponent=  1.5268613795D-01 Coefficients=  1.0000000000D+00
 D 1 1.00
     Exponent=  8.0000000000D-01 Coefficients=  1.0000000000D+00
 D 1 1.00
     Exponent=  1.1713185140D-01 Coefficients=  1.0000000000D+00
 ****
 Centers:       3
 S 5 1.00
     Exponent=  2.2661767785D+03 Coefficients= -5.3431809926D-03
     Exponent=  3.4087010191D+02 Coefficients= -3.9890039230D-02
     Exponent=  7.7363135167D+01 Coefficients= -1.7853911985D-01
     Exponent=  2.1479644940D+01 Coefficients= -4.6427684959D-01
     Exponent=  6.6589433124D+00 Coefficients= -4.4309745172D-01
 S 1 1.00
     Exponent=  8.0975975668D-01 Coefficients=  1.0000000000D+00
 S 1 1.00
     Exponent=  2.5530772234D-01 Coefficients=  1.0000000000D+00
 S 1 1.00
     Exponent=  7.6572453250D-02 Coefficients=  1.0000000000D+00
 P 3 1.00
     Exponent=  1.7721504317D+01 Coefficients=  4.3394573193D-02
     Exponent=  3.8635505440D+00 Coefficients=  2.3094120765D-01
     Exponent=  1.0480920883D+00 Coefficients=  5.1375311064D-01
 P 1 1.00
     Exponent=  2.7641544411D-01 Coefficients=  1.0000000000D+00
 P 1 1.00
     Exponent=  6.9002276350D-02 Coefficients=  1.0000000000D+00
 D 1 1.00
     Exponent=  1.2000000000D+00 Coefficients=  1.0000000000D+00
 D 1 1.00
     Exponent=  1.7992024323D-01 Coefficients=  1.0000000000D+00
 ****
 Ernie: Thresh=  0.10000D-02 Tol=  0.10000D-05 Strict=F.
 There are    70 symmetry adapted cartesian basis functions of A'  symmetry.
 There are    31 symmetry adapted cartesian basis functions of A"  symmetry.
 There are    64 symmetry adapted basis functions of A'  symmetry.
 There are    31 symmetry adapted basis functions of A"  symmetry.
    95 basis functions,   139 primitive gaussians,   101 cartesian basis functions
    12 alpha electrons       12 beta electrons
       nuclear repulsion energy        69.9674668624 Hartrees.
 IExCor= 4336 DFT=T Ex+Corr=M062X ExCW=0 ScaHFX=  0.540000
 ScaDFX=  1.000000  1.000000  1.000000  1.000000 ScalE2=  1.000000  1.000000
 IRadAn=      5 IRanWt=     -1 IRanGd=            0 ICorTp=0 IEmpDi=  4
 NAtoms=    7 NActive=    7 NUniq=    6 SFac= 1.36D+00 NAtFMM=   60 NAOKFM=F Big=F
 Integral buffers will be    131072 words long.
 Regular integral format.
 Two-electron integral symmetry is turned on.
 Leave Link  301 at Mon Mar 21 04:05:08 2022, MaxMem=  8589934592 cpu:               0.5 elap:               0.1
 (Enter /home/sabyasachi/g16/l302.exe)
 NPDir=0 NMtPBC=     1 NCelOv=     1 NCel=       1 NClECP=     1 NCelD=      1
         NCelK=      1 NCelE2=     1 NClLst=     1 CellRange=     0.0.
 One-electron integrals computed using PRISM.
 One-electron integral symmetry used in STVInt
 NBasis=    95 RedAO= T EigKep=  2.98D-04  NBF=    64    31
 NBsUse=    95 1.00D-06 EigRej= -1.00D+00 NBFU=    64    31
 Precomputing XC quadrature grid using
 IXCGrd= 4 IRadAn=           5 IRanWt=          -1 IRanGd=           0 AccXCQ= 0.00D+00.
 Generated NRdTot=       0 NPtTot=           0 NUsed=           0 NTot=          32
 NSgBfM=   101   101   101   101   101 MxSgAt=     7 MxSgA2=     7.
 Leave Link  302 at Mon Mar 21 04:05:08 2022, MaxMem=  8589934592 cpu:               1.0 elap:               0.1
 (Enter /home/sabyasachi/g16/l303.exe)
 DipDrv:  MaxL=1.
 Leave Link  303 at Mon Mar 21 04:05:08 2022, MaxMem=  8589934592 cpu:               0.2 elap:               0.0
 (Enter /home/sabyasachi/g16/l308.exe)
 Leave Link  308 at Mon Mar 21 04:05:08 2022, MaxMem=  8589934592 cpu:               0.2 elap:               0.1
 (Enter /home/sabyasachi/g16/l401.exe)
 ExpMin= 6.71D-02 ExpMax= 2.27D+03 ExpMxC= 3.41D+02 IAcc=3 IRadAn=         5 AccDes= 0.00D+00
 Harris functional with IExCor= 1009 and IRadAn=       5 diagonalized for initial guess.
 HarFok:  IExCor= 1009 AccDes= 0.00D+00 IRadAn=         5 IDoV= 1 UseB2=F ITyADJ=14
 ICtDFT=  3500011 ScaDFX=  1.000000  1.000000  1.000000  1.000000
 FoFCou: FMM=F IPFlag=           0 FMFlag=      100000 FMFlg1=           0
         NFxFlg=           0 DoJE=T BraDBF=F KetDBF=T FulRan=T
         wScrn=  0.000000 ICntrl=       500 IOpCl=  0 I1Cent=   200000004 NGrid=           0
         NMat0=    1 NMatS0=      1 NMatT0=    0 NMatD0=    1 NMtDS0=    0 NMtDT0=    0
 Petite list used in FoFCou.
 Harris En= -153.604189165728    
 JPrj=0 DoOrth=F DoCkMO=F.
 Initial guess orbital symmetries:
       Occupied  (A') (A') (A') (A') (A') (A') (A') (A') (A") (A')
                 (A") (A')
       Virtual   (A") (A') (A') (A") (A') (A') (A') (A") (A') (A")
                 (A') (A') (A') (A") (A') (A") (A') (A') (A') (A")
                 (A') (A") (A') (A') (A') (A") (A') (A") (A') (A')
                 (A') (A") (A') (A') (A") (A") (A') (A') (A') (A")
                 (A') (A") (A') (A') (A') (A") (A') (A') (A") (A')
                 (A') (A') (A") (A') (A") (A') (A") (A") (A') (A")
                 (A') (A') (A') (A") (A') (A') (A") (A') (A') (A")
                 (A') (A') (A") (A') (A') (A') (A") (A") (A') (A')
                 (A") (A') (A')
 The electronic state of the initial guess is 1-A'.
 Leave Link  401 at Mon Mar 21 04:05:08 2022, MaxMem=  8589934592 cpu:               1.9 elap:               0.3
 (Enter /home/sabyasachi/g16/l502.exe)
 Keep R1 ints in memory in symmetry-blocked form, NReq=17829700.
 FoFCou: FMM=F IPFlag=           0 FMFlag=           0 FMFlg1=           0
         NFxFlg=           0 DoJE=F BraDBF=F KetDBF=F FulRan=T
         wScrn=  0.000000 ICntrl=       600 IOpCl=  0 I1Cent=           0 NGrid=           0
         NMat0=    1 NMatS0=   4560 NMatT0=    0 NMatD0=    1 NMtDS0=    0 NMtDT0=    0
 Petite list used in FoFCou.
 Closed shell SCF:
 Using DIIS extrapolation, IDIIS=  1040.
 NGot=  8589934592 LenX=  8584613300 LenY=  8584602658
 Requested convergence on RMS density matrix=1.00D-08 within 100 cycles.
 Requested convergence on MAX density matrix=1.00D-06.
 Requested convergence on             energy=1.00D-06.
 No special actions if energy rises.
 Integral accuracy reduced to 1.0D-05 until final iterations.

 Cycle   1  Pass 0  IDiag  1:
 E= -153.555619496240    
 DIIS: error= 2.77D-02 at cycle   1 NSaved=   1.
 NSaved= 1 IEnMin= 1 EnMin= -153.555619496240     IErMin= 1 ErrMin= 2.77D-02
 ErrMax= 2.77D-02  0.00D+00 EMaxC= 1.00D-01 BMatC= 1.04D-01 BMatP= 1.04D-01
 IDIUse=3 WtCom= 7.23D-01 WtEn= 2.77D-01
 Coeff-Com:  0.100D+01
 Coeff-En:   0.100D+01
 Coeff:      0.100D+01
 Gap=     0.291 Goal=   None    Shift=    0.000
 GapD=    0.291 DampG=1.000 DampE=0.500 DampFc=0.5000 IDamp=-1.
 Damping current iteration by 5.00D-01
 RMSDP=7.44D-03 MaxDP=1.61D-01              OVMax= 1.70D-01

 Cycle   2  Pass 0  IDiag  1:
 E= -153.599447609763     Delta-E=       -0.043828113523 Rises=F Damp=T
 DIIS: error= 7.72D-03 at cycle   2 NSaved=   2.
 NSaved= 2 IEnMin= 2 EnMin= -153.599447609763     IErMin= 2 ErrMin= 7.72D-03
 ErrMax= 7.72D-03  0.00D+00 EMaxC= 1.00D-01 BMatC= 7.66D-03 BMatP= 1.04D-01
 IDIUse=3 WtCom= 9.23D-01 WtEn= 7.72D-02
 Coeff-Com:  0.306D-01 0.969D+00
 Coeff-En:   0.000D+00 0.100D+01
 Coeff:      0.282D-01 0.972D+00
 Gap=     0.361 Goal=   None    Shift=    0.000
 RMSDP=2.08D-03 MaxDP=4.72D-02 DE=-4.38D-02 OVMax= 9.50D-02

 Cycle   3  Pass 0  IDiag  1:
 E= -153.644353867993     Delta-E=       -0.044906258230 Rises=F Damp=F
 DIIS: error= 5.66D-03 at cycle   3 NSaved=   3.
 NSaved= 3 IEnMin= 3 EnMin= -153.644353867993     IErMin= 3 ErrMin= 5.66D-03
 ErrMax= 5.66D-03  0.00D+00 EMaxC= 1.00D-01 BMatC= 5.35D-03 BMatP= 7.66D-03
 IDIUse=3 WtCom= 9.43D-01 WtEn= 5.66D-02
 Coeff-Com: -0.411D-01 0.461D+00 0.580D+00
 Coeff-En:   0.000D+00 0.000D+00 0.100D+01
 Coeff:     -0.388D-01 0.435D+00 0.604D+00
 Gap=     0.347 Goal=   None    Shift=    0.000
 RMSDP=8.99D-04 MaxDP=2.00D-02 DE=-4.49D-02 OVMax= 3.24D-02

 Cycle   4  Pass 0  IDiag  1:
 E= -153.648228056937     Delta-E=       -0.003874188944 Rises=F Damp=F
 DIIS: error= 1.81D-03 at cycle   4 NSaved=   4.
 NSaved= 4 IEnMin= 4 EnMin= -153.648228056937     IErMin= 4 ErrMin= 1.81D-03
 ErrMax= 1.81D-03  0.00D+00 EMaxC= 1.00D-01 BMatC= 6.68D-04 BMatP= 5.35D-03
 IDIUse=3 WtCom= 9.82D-01 WtEn= 1.81D-02
 Coeff-Com: -0.764D-02 0.108D-01 0.268D+00 0.728D+00
 Coeff-En:   0.000D+00 0.000D+00 0.771D-01 0.923D+00
 Coeff:     -0.750D-02 0.106D-01 0.265D+00 0.732D+00
 Gap=     0.350 Goal=   None    Shift=    0.000
 RMSDP=2.66D-04 MaxDP=5.01D-03 DE=-3.87D-03 OVMax= 5.23D-03

 Cycle   5  Pass 0  IDiag  1:
 E= -153.648775311435     Delta-E=       -0.000547254497 Rises=F Damp=F
 DIIS: error= 1.30D-04 at cycle   5 NSaved=   5.
 NSaved= 5 IEnMin= 5 EnMin= -153.648775311435     IErMin= 5 ErrMin= 1.30D-04
 ErrMax= 1.30D-04  0.00D+00 EMaxC= 1.00D-01 BMatC= 3.04D-06 BMatP= 6.68D-04
 IDIUse=3 WtCom= 9.99D-01 WtEn= 1.30D-03
 Coeff-Com:  0.120D-02-0.876D-02 0.332D-01 0.107D+00 0.867D+00
 Coeff-En:   0.000D+00 0.000D+00 0.000D+00 0.000D+00 0.100D+01
 Coeff:      0.120D-02-0.874D-02 0.332D-01 0.107D+00 0.867D+00
 Gap=     0.350 Goal=   None    Shift=    0.000
 RMSDP=3.61D-05 MaxDP=6.74D-04 DE=-5.47D-04 OVMax= 8.30D-04

 Cycle   6  Pass 0  IDiag  1:
 E= -153.648779139075     Delta-E=       -0.000003827641 Rises=F Damp=F
 DIIS: error= 5.94D-05 at cycle   6 NSaved=   6.
 NSaved= 6 IEnMin= 6 EnMin= -153.648779139075     IErMin= 6 ErrMin= 5.94D-05
 ErrMax= 5.94D-05  0.00D+00 EMaxC= 1.00D-01 BMatC= 4.13D-07 BMatP= 3.04D-06
 IDIUse=1 WtCom= 1.00D+00 WtEn= 0.00D+00
 Coeff-Com:  0.123D-02-0.314D-02-0.122D-01-0.392D-01 0.107D+00 0.946D+00
 Coeff:      0.123D-02-0.314D-02-0.122D-01-0.392D-01 0.107D+00 0.946D+00
 Gap=     0.350 Goal=   None    Shift=    0.000
 RMSDP=1.37D-05 MaxDP=2.54D-04 DE=-3.83D-06 OVMax= 3.75D-04

 Cycle   7  Pass 0  IDiag  1:
 E= -153.648779706281     Delta-E=       -0.000000567206 Rises=F Damp=F
 DIIS: error= 2.32D-05 at cycle   7 NSaved=   7.
 NSaved= 7 IEnMin= 7 EnMin= -153.648779706281     IErMin= 7 ErrMin= 2.32D-05
 ErrMax= 2.32D-05  0.00D+00 EMaxC= 1.00D-01 BMatC= 6.40D-08 BMatP= 4.13D-07
 IDIUse=1 WtCom= 1.00D+00 WtEn= 0.00D+00
 Coeff-Com:  0.395D-03-0.377D-03-0.638D-02-0.235D-01-0.613D-01 0.296D+00
 Coeff-Com:  0.795D+00
 Coeff:      0.395D-03-0.377D-03-0.638D-02-0.235D-01-0.613D-01 0.296D+00
 Coeff:      0.795D+00
 Gap=     0.351 Goal=   None    Shift=    0.000
 RMSDP=4.07D-06 MaxDP=1.05D-04 DE=-5.67D-07 OVMax= 1.12D-04

 Initial convergence to 1.0D-05 achieved.  Increase integral accuracy.
 Cycle   8  Pass 1  IDiag  1:
 E= -153.648781436887     Delta-E=       -0.000001730606 Rises=F Damp=F
 DIIS: error= 1.11D-05 at cycle   1 NSaved=   1.
 NSaved= 1 IEnMin= 1 EnMin= -153.648781436887     IErMin= 1 ErrMin= 1.11D-05
 ErrMax= 1.11D-05  0.00D+00 EMaxC= 1.00D-01 BMatC= 3.02D-08 BMatP= 3.02D-08
 IDIUse=1 WtCom= 1.00D+00 WtEn= 0.00D+00
 Coeff-Com:  0.100D+01
 Coeff:      0.100D+01
 Gap=     0.351 Goal=   None    Shift=    0.000
 RMSDP=4.07D-06 MaxDP=1.05D-04 DE=-1.73D-06 OVMax= 6.21D-05

 Cycle   9  Pass 1  IDiag  1:
 E= -153.648781470071     Delta-E=       -0.000000033184 Rises=F Damp=F
 DIIS: error= 4.07D-06 at cycle   2 NSaved=   2.
 NSaved= 2 IEnMin= 2 EnMin= -153.648781470071     IErMin= 2 ErrMin= 4.07D-06
 ErrMax= 4.07D-06  0.00D+00 EMaxC= 1.00D-01 BMatC= 3.36D-09 BMatP= 3.02D-08
 IDIUse=1 WtCom= 1.00D+00 WtEn= 0.00D+00
 Coeff-Com:  0.877D-01 0.912D+00
 Coeff:      0.877D-01 0.912D+00
 Gap=     0.351 Goal=   None    Shift=    0.000
 RMSDP=1.23D-06 MaxDP=2.81D-05 DE=-3.32D-08 OVMax= 4.17D-05

 Cycle  10  Pass 1  IDiag  1:
 E= -153.648781469887     Delta-E=        0.000000000184 Rises=F Damp=F
 DIIS: error= 5.48D-06 at cycle   3 NSaved=   3.
 NSaved= 3 IEnMin= 2 EnMin= -153.648781470071     IErMin= 2 ErrMin= 4.07D-06
 ErrMax= 5.48D-06  0.00D+00 EMaxC= 1.00D-01 BMatC= 4.59D-09 BMatP= 3.36D-09
 IDIUse=1 WtCom= 1.00D+00 WtEn= 0.00D+00
 Coeff-Com: -0.485D-01 0.560D+00 0.488D+00
 Coeff:     -0.485D-01 0.560D+00 0.488D+00
 Gap=     0.351 Goal=   None    Shift=    0.000
 RMSDP=6.04D-07 MaxDP=1.41D-05 DE= 1.84D-10 OVMax= 2.01D-05

 Cycle  11  Pass 1  IDiag  1:
 E= -153.648781473312     Delta-E=       -0.000000003425 Rises=F Damp=F
 DIIS: error= 6.31D-07 at cycle   4 NSaved=   4.
 NSaved= 4 IEnMin= 4 EnMin= -153.648781473312     IErMin= 4 ErrMin= 6.31D-07
 ErrMax= 6.31D-07  0.00D+00 EMaxC= 1.00D-01 BMatC= 7.38D-11 BMatP= 3.36D-09
 IDIUse=1 WtCom= 1.00D+00 WtEn= 0.00D+00
 Coeff-Com: -0.242D-01 0.176D+00 0.181D+00 0.667D+00
 Coeff:     -0.242D-01 0.176D+00 0.181D+00 0.667D+00
 Gap=     0.351 Goal=   None    Shift=    0.000
 RMSDP=1.30D-07 MaxDP=3.05D-06 DE=-3.43D-09 OVMax= 3.26D-06

 Cycle  12  Pass 1  IDiag  1:
 E= -153.648781473382     Delta-E=       -0.000000000070 Rises=F Damp=F
 DIIS: error= 2.02D-07 at cycle   5 NSaved=   5.
 NSaved= 5 IEnMin= 5 EnMin= -153.648781473382     IErMin= 5 ErrMin= 2.02D-07
 ErrMax= 2.02D-07  0.00D+00 EMaxC= 1.00D-01 BMatC= 6.79D-12 BMatP= 7.38D-11
 IDIUse=1 WtCom= 1.00D+00 WtEn= 0.00D+00
 Coeff-Com:  0.256D-02-0.427D-01-0.433D-01 0.150D+00 0.934D+00
 Coeff:      0.256D-02-0.427D-01-0.433D-01 0.150D+00 0.934D+00
 Gap=     0.351 Goal=   None    Shift=    0.000
 RMSDP=5.05D-08 MaxDP=8.93D-07 DE=-6.95D-11 OVMax= 1.00D-06

 Cycle  13  Pass 1  IDiag  1:
 E= -153.648781473390     Delta-E=       -0.000000000008 Rises=F Damp=F
 DIIS: error= 3.56D-08 at cycle   6 NSaved=   6.
 NSaved= 6 IEnMin= 6 EnMin= -153.648781473390     IErMin= 6 ErrMin= 3.56D-08
 ErrMax= 3.56D-08  0.00D+00 EMaxC= 1.00D-01 BMatC= 1.84D-13 BMatP= 6.79D-12
 IDIUse=1 WtCom= 1.00D+00 WtEn= 0.00D+00
 Coeff-Com:  0.154D-02-0.169D-01-0.191D-01 0.865D-02 0.182D+00 0.844D+00
 Coeff:      0.154D-02-0.169D-01-0.191D-01 0.865D-02 0.182D+00 0.844D+00
 Gap=     0.351 Goal=   None    Shift=    0.000
 RMSDP=8.87D-09 MaxDP=1.27D-07 DE=-7.67D-12 OVMax= 1.94D-07

 SCF Done:  E(RM062X) =  -153.648781473     A.U. after   13 cycles
            NFock= 13  Conv=0.89D-08     -V/T= 2.0096
 KE= 1.521902590226D+02 PE=-4.983973174025D+02 EE= 1.225908100441D+02
 Leave Link  502 at Mon Mar 21 04:05:11 2022, MaxMem=  8589934592 cpu:              18.3 elap:               2.4
 (Enter /home/sabyasachi/g16/l801.exe)
 DoSCS=F DFT=T ScalE2(SS,OS)=  1.000000  1.000000
 ExpMin= 6.71D-02 ExpMax= 2.27D+03 ExpMxC= 3.41D+02 IAcc=3 IRadAn=         5 AccDes= 0.00D+00
 HarFok:  IExCor=  205 AccDes= 0.00D+00 IRadAn=         5 IDoV=-2 UseB2=F ITyADJ=14
 ICtDFT= 12500011 ScaDFX=  1.000000  1.000000  1.000000  1.000000
 Largest valence mixing into a core orbital is  9.29D-05
 Largest core mixing into a valence orbital is  2.87D-05
 Range of M.O.s used for correlation:     4    95
 NBasis=    95 NAE=    12 NBE=    12 NFC=     3 NFV=     0
 NROrb=     92 NOA=     9 NOB=     9 NVA=    83 NVB=    83

 **** Warning!!: The largest alpha MO coefficient is  0.29393648D+02

 Leave Link  801 at Mon Mar 21 04:05:11 2022, MaxMem=  8589934592 cpu:               0.5 elap:               0.1
 (Enter /home/sabyasachi/g16/l914.exe)
 RHF ground state
 Keep R1, R2, and R3 ints in memory in symmetry-blocked form, NReq=643601520.
 FoFCou: FMM=F IPFlag=           0 FMFlag=           0 FMFlg1=           0
         NFxFlg=           0 DoJE=F BraDBF=F KetDBF=F FulRan=T
         wScrn=  0.000000 ICntrl=       600 IOpCl=  0 I1Cent=           0 NGrid=           0
         NMat0=    1 NMatS0=   4560 NMatT0=    0 NMatD0=    1 NMtDS0=    0 NMtDT0=    0
 Petite list used in FoFCou.
 MDV=  8589934592 DFT=T DoStab=F Mixed=T DoRPA=T DoScal=F NonHer=T
 Making orbital integer symmetry assigments:
 Orbital symmetries:
       Occupied  (A') (A') (A') (A') (A') (A') (A') (A") (A') (A')
                 (A") (A')
       Virtual   (A") (A') (A') (A") (A') (A') (A') (A") (A') (A")
                 (A') (A') (A') (A") (A") (A') (A') (A') (A") (A')
                 (A') (A") (A') (A') (A") (A') (A') (A") (A') (A')
                 (A") (A') (A') (A") (A') (A") (A') (A') (A') (A")
                 (A") (A') (A') (A') (A") (A') (A') (A") (A') (A')
                 (A') (A') (A") (A") (A') (A') (A") (A") (A') (A")
                 (A') (A') (A') (A') (A") (A') (A") (A') (A') (A")
                 (A') (A') (A") (A') (A') (A') (A") (A") (A') (A')
                 (A") (A') (A')
   747 initial guesses have been made.
 Convergence on wavefunction:    0.001000000000000
 Davidson Disk Diagonalization:  ConvIn= 1.00D-03 SkipCon=T Conv= 1.00D-03.
 Max sub-space:  4482 roots to seek:  1494 dimension of matrix:         1494
 *** WARNING: Number of orthogonal guesses is          747
 Iteration     1 Dimension   747 NMult     0 NNew    747
 CISAX will form   747 AO SS matrices at one time.
 NMat=   747 NSing=   747 JSym2X=-1.
 New state      4 was old state     12
 New state      6 was old state      4
 New state      7 was old state      6
 New state      8 was old state     17
 New state      9 was old state      7
 New state     10 was old state      9
 New state     11 was old state      8
 New state     12 was old state     10
 New state     13 was old state     11
 New state     15 was old state     29
 New state     16 was old state     13
 New state     17 was old state     18
 New state     18 was old state     15
 New state     19 was old state     22
 New state     20 was old state     16
 New state     22 was old state     19
 New state     23 was old state     20
 New state     24 was old state     26
 New state     26 was old state     24
 New state     27 was old state     23
 New state     28 was old state     27
 New state     29 was old state     30
 New state     30 was old state     31
 New state     31 was old state     28
 New state     32 was old state     34
 New state     33 was old state     35
 New state     34 was old state     36
 New state     35 was old state     32
 New state     36 was old state     39
 New state     37 was old state     33
 New state     39 was old state     37
 New state     40 was old state     41
 New state     41 was old state     65
 New state     42 was old state     40
 New state     44 was old state     46
 New state     45 was old state     44
 New state     46 was old state     49
 New state     47 was old state     52
 New state     48 was old state     42
 New state     49 was old state     48
 New state     50 was old state     53
 New state     51 was old state     45
 New state     52 was old state     47
 New state     53 was old state     50
 New state     54 was old state     57
 New state     55 was old state     51
 New state     56 was old state     54
 New state     57 was old state     55
 New state     59 was old state     56
 New state     60 was old state     59
 New state     61 was old state     63
 New state     62 was old state     60
 New state     63 was old state     66
 New state     64 was old state     62
 New state     65 was old state     67
 New state     66 was old state     61
 New state     67 was old state     64
 New state     68 was old state     70
 New state     69 was old state     71
 New state     70 was old state     68
 New state     71 was old state     69
 New state     72 was old state     75
 New state     73 was old state     76
 New state     75 was old state     77
 New state     76 was old state     72
 New state     77 was old state     79
 New state     78 was old state     80
 New state     79 was old state     73
 New state     80 was old state     81
 New state     81 was old state     88
 New state     82 was old state     84
 New state     83 was old state     82
 New state     84 was old state     78
 New state     85 was old state     83
 New state     88 was old state     89
 New state     89 was old state     85
 New state     90 was old state     94
 New state     91 was old state     92
 New state     92 was old state     91
 New state     94 was old state     97
 New state     95 was old state     96
 New state     96 was old state     98
 New state     97 was old state     90
 New state     98 was old state     95
 New state     99 was old state    102
 New state    100 was old state    106
 New state    101 was old state    100
 New state    102 was old state    101
 New state    103 was old state     99
 New state    104 was old state    111
 New state    105 was old state    103
 New state    106 was old state    107
 New state    107 was old state    108
 New state    108 was old state    104
 New state    109 was old state    105
 New state    110 was old state    113
 New state    111 was old state    110
 New state    112 was old state    109
 New state    113 was old state    121
 New state    114 was old state    116
 New state    115 was old state    119
 New state    116 was old state    115
 New state    117 was old state    114
 New state    118 was old state    112
 New state    119 was old state    117
 New state    120 was old state    125
 New state    121 was old state    124
 New state    122 was old state    118
 New state    123 was old state    131
 New state    124 was old state    132
 New state    125 was old state    122
 New state    126 was old state    123
 New state    127 was old state    139
 New state    128 was old state    134
 New state    129 was old state    126
 New state    130 was old state    120
 New state    131 was old state    136
 New state    132 was old state    130
 New state    133 was old state    128
 New state    134 was old state    127
 New state    135 was old state    129
 New state    136 was old state    135
 New state    137 was old state    138
 New state    138 was old state    137
 New state    139 was old state    133
 New state    140 was old state    142
 New state    141 was old state    140
 New state    142 was old state    141
 New state    143 was old state    146
 New state    144 was old state    143
 New state    145 was old state    147
 New state    146 was old state    144
 New state    147 was old state    151
 New state    148 was old state    145
 New state    149 was old state    176
 New state    150 was old state    148
 New state    151 was old state    153
 New state    152 was old state    157
 New state    153 was old state    152
 New state    154 was old state    164
 New state    156 was old state    154
 New state    157 was old state    149
 New state    158 was old state    161
 New state    160 was old state    163
 New state    161 was old state    156
 New state    162 was old state    160
 New state    163 was old state    167
 New state    164 was old state    158
 New state    165 was old state    162
 New state    167 was old state    170
 New state    168 was old state    171
 New state    170 was old state    168
 New state    171 was old state    165
 New state    172 was old state    175
 New state    173 was old state    183
 New state    174 was old state    178
 New state    175 was old state    177
 New state    176 was old state    194
 New state    177 was old state    174
 New state    178 was old state    182
 New state    179 was old state    190
 New state    180 was old state    173
 New state    181 was old state    189
 New state    182 was old state    186
 New state    183 was old state    179
 New state    184 was old state    185
 New state    185 was old state    184
 New state    186 was old state    180
 New state    187 was old state    181
 New state    188 was old state    197
 New state    189 was old state    187
 New state    190 was old state    188
 New state    191 was old state    193
 New state    192 was old state    195
 New state    193 was old state    196
 New state    194 was old state    192
 New state    195 was old state    213
 New state    196 was old state    191
 New state    197 was old state    198
 New state    198 was old state    199
 New state    199 was old state    200
 New state    200 was old state    209
 New state    201 was old state    210
 New state    202 was old state    201
 New state    203 was old state    206
 New state    204 was old state    202
 New state    205 was old state    217
 New state    206 was old state    208
 New state    207 was old state    205
 New state    208 was old state    212
 New state    209 was old state    204
 New state    210 was old state    203
 New state    211 was old state    224
 New state    212 was old state    227
 New state    213 was old state    214
 New state    214 was old state    236
 New state    215 was old state    211
 New state    216 was old state    207
 New state    217 was old state    215
 New state    218 was old state    223
 New state    219 was old state    216
 New state    220 was old state    218
 New state    221 was old state    225
 New state    222 was old state    221
 New state    223 was old state    220
 New state    224 was old state    228
 New state    225 was old state    219
 New state    226 was old state    234
 New state    227 was old state    226
 New state    228 was old state    232
 New state    229 was old state    222
 New state    230 was old state    229
 New state    232 was old state    230
 No map to state    233
 New state    234 was old state    239
 New state    235 was old state    242
 New state    236 was old state    235
 New state    237 was old state    233
 New state    238 was old state    237
 New state    239 was old state    238
 New state    242 was old state    250
 New state    244 was old state    245
 New state    245 was old state    244
 New state    247 was old state    249
 New state    248 was old state    254
 New state    249 was old state    247
 New state    250 was old state    251
 New state    251 was old state    276
 New state    252 was old state    256
 New state    253 was old state    248
 New state    254 was old state    257
 New state    255 was old state    260
 New state    256 was old state    264
 New state    257 was old state    253
 New state    258 was old state    252
 New state    259 was old state    263
 New state    260 was old state    255
 New state    261 was old state    259
 New state    262 was old state    258
 New state    263 was old state    269
 New state    264 was old state    262
 New state    265 was old state    297
 New state    266 was old state    261
 New state    267 was old state    268
 New state    268 was old state    270
 New state    269 was old state    275
 New state    270 was old state    266
 New state    271 was old state    267
 New state    272 was old state    265
 New state    273 was old state    274
 New state    274 was old state    272
 New state    275 was old state    271
 New state    276 was old state    273
 New state    278 was old state    279
 New state    279 was old state    278
 New state    280 was old state    282
 New state    282 was old state    284
 New state    284 was old state    280
 New state    285 was old state    287
 New state    286 was old state    293
 New state    287 was old state    286
 New state    288 was old state    290
 New state    289 was old state    288
 New state    290 was old state    296
 New state    291 was old state    289
 New state    292 was old state    285
 New state    293 was old state    302
 New state    295 was old state    291
 New state    296 was old state    299
 New state    297 was old state    295
 New state    299 was old state    301
 New state    301 was old state    292
 New state    302 was old state    303
 New state    303 was old state    312
 New state    304 was old state    311
 New state    306 was old state    309
 New state    309 was old state    310
 New state    310 was old state    306
 New state    311 was old state    313
 New state    312 was old state    304
 New state    313 was old state    320
 New state    315 was old state    318
 New state    317 was old state    321
 New state    318 was old state    315
 New state    319 was old state    324
 New state    320 was old state    323
 No map to state    321
 New state    322 was old state    317
 New state    323 was old state    322
 New state    324 was old state    339
 New state    325 was old state    333
 New state    326 was old state    331
 New state    327 was old state    326
 New state    328 was old state    325
 New state    329 was old state    327
 New state    330 was old state    319
 New state    331 was old state    332
 New state    332 was old state    330
 New state    333 was old state    329
 New state    334 was old state    344
 New state    335 was old state    334
 New state    338 was old state    342
 New state    339 was old state    338
 New state    340 was old state    328
 New state    341 was old state    335
 New state    342 was old state    346
 New state    343 was old state    341
 New state    344 was old state    340
 New state    346 was old state    356
 New state    347 was old state    349
 New state    348 was old state    343
 New state    349 was old state    347
 New state    350 was old state    355
 New state    351 was old state    348
 New state    352 was old state    361
 New state    353 was old state    350
 New state    355 was old state    364
 New state    356 was old state    367
 New state    357 was old state    353
 New state    358 was old state    351
 New state    360 was old state    366
 New state    361 was old state    352
 New state    362 was old state    358
 New state    363 was old state    357
 New state    364 was old state    365
 New state    365 was old state    362
 New state    366 was old state    363
 New state    367 was old state    372
 New state    368 was old state    376
 New state    369 was old state    360
 New state    372 was old state    369
 New state    373 was old state    377
 New state    374 was old state    368
 New state    375 was old state    378
 New state    376 was old state    381
 New state    377 was old state    380
 New state    378 was old state    383
 New state    379 was old state    374
 New state    380 was old state    387
 New state    381 was old state    396
 New state    382 was old state    388
 New state    383 was old state    379
 New state    384 was old state    375
 New state    385 was old state    389
 New state    386 was old state    382
 New state    387 was old state    390
 New state    388 was old state    391
 New state    389 was old state    397
 New state    390 was old state    384
 New state    391 was old state    395
 New state    392 was old state    385
 New state    393 was old state    398
 New state    394 was old state    392
 New state    395 was old state    399
 New state    396 was old state    401
 New state    397 was old state    386
 New state    398 was old state    393
 New state    399 was old state    394
 New state    400 was old state    404
 New state    401 was old state    406
 New state    403 was old state    400
 New state    404 was old state    403
 New state    405 was old state    410
 New state    406 was old state    407
 New state    407 was old state    405
 New state    409 was old state    428
 New state    410 was old state    411
 New state    411 was old state    414
 New state    412 was old state    413
 New state    413 was old state    409
 New state    414 was old state    416
 New state    415 was old state    417
 New state    416 was old state    412
 New state    417 was old state    420
 New state    419 was old state    423
 New state    420 was old state    422
 New state    421 was old state    415
 New state    422 was old state    421
 New state    423 was old state    427
 New state    424 was old state    419
 New state    425 was old state    424
 New state    426 was old state    425
 New state    427 was old state    426
 New state    428 was old state    429
 New state    429 was old state    433
 New state    430 was old state    432
 New state    431 was old state    430
 New state    432 was old state    431
 New state    433 was old state    441
 New state    436 was old state    437
 New state    437 was old state    438
 New state    438 was old state    440
 New state    439 was old state    436
 New state    440 was old state    439
 New state    441 was old state    449
 New state    442 was old state    445
 New state    443 was old state    444
 New state    444 was old state    442
 New state    445 was old state    443
 New state    446 was old state    455
 New state    447 was old state    457
 New state    448 was old state    447
 New state    449 was old state    446
 New state    450 was old state    452
 New state    452 was old state    448
 New state    454 was old state    450
 New state    455 was old state    454
 New state    456 was old state    460
 New state    457 was old state    456
 New state    459 was old state    462
 New state    460 was old state    478
 New state    461 was old state    459
 New state    462 was old state    464
 New state    464 was old state    461
 New state    466 was old state    469
 New state    468 was old state    472
 New state    469 was old state    470
 New state    470 was old state    466
 New state    472 was old state    477
 New state    473 was old state    468
 New state    474 was old state    475
 New state    475 was old state    482
 New state    476 was old state    487
 New state    477 was old state    476
 New state    478 was old state    481
 New state    480 was old state    473
 New state    481 was old state    483
 New state    482 was old state    485
 New state    483 was old state    492
 No map to state    484
 New state    485 was old state    480
 New state    487 was old state    484
 New state    489 was old state    491
 New state    490 was old state    489
 New state    491 was old state    490
 New state    492 was old state    493
 New state    493 was old state    497
 New state    494 was old state    496
 New state    496 was old state    504
 New state    497 was old state    499
 New state    498 was old state    494
 New state    499 was old state    511
 New state    500 was old state    503
 New state    501 was old state    498
 New state    502 was old state    509
 New state    503 was old state    507
 New state    504 was old state    501
 New state    507 was old state    500
 New state    508 was old state    502
 New state    509 was old state    510
 New state    510 was old state    508
 New state    511 was old state    520
 New state    512 was old state    515
 New state    513 was old state    521
 New state    514 was old state    512
 New state    515 was old state    517
 New state    517 was old state    514
 New state    518 was old state    513
 New state    519 was old state    518
 New state    520 was old state    523
 New state    521 was old state    519
 New state    522 was old state    525
 New state    523 was old state    526
 New state    524 was old state    522
 New state    525 was old state    524
 New state    526 was old state    529
 New state    527 was old state    530
 New state    529 was old state    532
 New state    530 was old state    531
 New state    531 was old state    545
 New state    532 was old state    539
 New state    533 was old state    527
 New state    534 was old state    537
 New state    535 was old state    536
 New state    536 was old state    535
 New state    537 was old state    540
 New state    539 was old state    541
 New state    540 was old state    534
 New state    541 was old state    533
 New state    542 was old state    548
 New state    545 was old state    542
 New state    546 was old state    550
 New state    547 was old state    546
 New state    548 was old state    547
 New state    550 was old state    554
 New state    551 was old state    552
 New state    552 was old state    561
 New state    553 was old state    556
 New state    554 was old state    557
 New state    555 was old state    551
 New state    556 was old state    553
 New state    557 was old state    562
 New state    558 was old state    555
 New state    561 was old state    558
 New state    562 was old state    565
 New state    564 was old state    568
 New state    565 was old state    564
 New state    566 was old state    569
 New state    568 was old state    572
 New state    569 was old state    570
 New state    570 was old state    566
 New state    572 was old state    581
 New state    573 was old state    577
 New state    574 was old state    575
 New state    575 was old state    578
 New state    576 was old state    574
 New state    577 was old state    573
 New state    578 was old state    576
 New state    581 was old state    583
 New state    582 was old state    584
 New state    583 was old state    585
 New state    584 was old state    593
 New state    585 was old state    582
 New state    586 was old state    590
 New state    587 was old state    586
 New state    588 was old state    591
 New state    589 was old state    587
 New state    590 was old state    588
 New state    591 was old state    596
 New state    592 was old state    589
 New state    593 was old state    598
 New state    594 was old state    595
 New state    595 was old state    592
 New state    596 was old state    594
 New state    597 was old state    602
 New state    598 was old state    597
 New state    599 was old state    617
 New state    602 was old state    599
 New state    603 was old state    609
 New state    605 was old state    603
 New state    606 was old state    605
 New state    608 was old state    606
 New state    609 was old state    610
 New state    610 was old state    608
 New state    612 was old state    614
 New state    613 was old state    612
 No map to state    614
 New state    615 was old state    618
 New state    616 was old state    613
 New state    617 was old state    615
 New state    618 was old state    616
 New state    621 was old state    623
 New state    622 was old state    621
 New state    623 was old state    622
 New state    627 was old state    630
 New state    628 was old state    627
 New state    629 was old state    628
 New state    630 was old state    633
 New state    631 was old state    629
 New state    633 was old state    631
 New state    636 was old state    638
 New state    637 was old state    636
 New state    638 was old state    639
 New state    639 was old state    637
 New state    641 was old state    642
 New state    642 was old state    644
 New state    643 was old state    641
 New state    644 was old state    643
 New state    645 was old state    648
 New state    646 was old state    645
 New state    648 was old state    649
 New state    649 was old state    650
 New state    650 was old state    646
 New state    652 was old state    654
 New state    653 was old state    652
 New state    654 was old state    659
 New state    655 was old state    653
 New state    657 was old state    655
 New state    658 was old state    661
 New state    659 was old state    660
 New state    660 was old state    662
 New state    661 was old state    663
 New state    662 was old state    657
 New state    663 was old state    658
 New state    665 was old state    672
 New state    666 was old state    667
 New state    667 was old state    680
 New state    668 was old state    666
 New state    669 was old state    673
 New state    670 was old state    668
 New state    671 was old state    669
 New state    672 was old state    675
 New state    673 was old state    670
 New state    674 was old state    671
 New state    675 was old state    676
 New state    676 was old state    674
 New state    677 was old state    679
 New state    679 was old state    677
 New state    680 was old state    682
 New state    681 was old state    683
 New state    682 was old state    684
 New state    683 was old state    686
 New state    684 was old state    687
 New state    685 was old state    696
 New state    686 was old state    685
 New state    687 was old state    681
 New state    690 was old state    693
 New state    691 was old state    690
 New state    692 was old state    694
 New state    693 was old state    691
 New state    694 was old state    692
 New state    695 was old state    700
 New state    696 was old state    695
 New state    697 was old state    699
 New state    698 was old state    697
 New state    699 was old state    698
 New state    700 was old state    701
 New state    701 was old state    703
 New state    702 was old state    704
 New state    703 was old state    706
 New state    704 was old state    702
 No map to state    705
 New state    706 was old state    707
 New state    707 was old state    705
 New state    711 was old state    713
 New state    712 was old state    711
 New state    713 was old state    712
 New state    714 was old state    716
 New state    715 was old state    714
 New state    716 was old state    717
 New state    717 was old state    718
 New state    718 was old state    715
 New state    720 was old state    722
 New state    721 was old state    720
 New state    722 was old state    721
 New state    723 was old state    725
 New state    724 was old state    723
 New state    725 was old state    724
 New state    726 was old state    727
 New state    727 was old state    732
 New state    728 was old state    726
 New state    729 was old state    731
 New state    730 was old state    728
 New state    731 was old state    729
 New state    732 was old state    730
 New state    733 was old state    735
 New state    734 was old state    733
 New state    735 was old state    736
 New state    736 was old state    734
 New state    738 was old state    739
 New state    739 was old state    738
 New state    742 was old state    743
 New state    743 was old state    742
 New state    745 was old state    746
 New state    746 was old state    745
 Excitation Energies [eV] at current iteration:
 Root      1 :     4.060020109088174
 Root      2 :     7.620781280942302
 Root      3 :     8.433311699678368
 Root      4 :     8.797783650336404
 Root      5 :     9.096886951105914
 Root      6 :     9.226576810490192
 Root      7 :     9.376689919685173
 Root      8 :     9.537922976282740
 Root      9 :     9.793648609932051
 Root     10 :    10.104937130400760
 Root     11 :    10.136788470736480
 Root     12 :    10.293341762979340
 Root     13 :    10.628580646282610
 Root     14 :    10.959537263499390
 Root     15 :    11.034929528285530
 Root     16 :    11.118899078677390
 Root     17 :    11.345794016707520
 Root     18 :    11.488281086023510
 Root     19 :    11.789144085822590
 Root     20 :    11.940064263032150
 Root     21 :    11.962278606317880
 Root     22 :    12.041719645065260
 Root     23 :    12.217634247779870
 Root     24 :    12.342604381407840
 Root     25 :    12.561457983632270
 Root     26 :    12.576472251714510
 Root     27 :    12.641876035335570
 Root     28 :    12.674715656556170
 Root     29 :    12.799190147489150
 Root     30 :    12.984738008967280
 Root     31 :    13.079419560299740
 Root     32 :    13.176426986582330
 Root     33 :    13.244516904818040
 Root     34 :    13.386481702455820
 Root     35 :    13.425143171389260
 Root     36 :    13.539621593717640
 Root     37 :    13.592358746586530
 Root     38 :    13.665673339159310
 Root     39 :    13.885572769238080
 Root     40 :    13.906917779675870
 Root     41 :    14.069016470846220
 Root     42 :    14.070155984551950
 Root     43 :    14.108518946404150
 Root     44 :    14.199218460562640
 Root     45 :    14.225440683078690
 Root     46 :    14.338797213949610
 Root     47 :    14.474178672357940
 Root     48 :    14.527210713525880
 Root     49 :    14.578283764418000
 Root     50 :    14.620004240297710
 Root     51 :    14.671044011733500
 Root     52 :    14.691985487690510
 Root     53 :    14.794617681386880
 Root     54 :    14.926519698895790
 Root     55 :    14.952504296711550
 Root     56 :    15.049702324761190
 Root     57 :    15.101419957460730
 Root     58 :    15.197730248258320
 Root     59 :    15.296181285443530
 Root     60 :    15.424988081314140
 Root     61 :    15.451862940993120
 Root     62 :    15.480137203182360
 Root     63 :    15.546695931919370
 Root     64 :    15.618466498306190
 Root     65 :    15.639972211025400
 Root     66 :    15.806488296997620
 Root     67 :    15.839470874315390
 Root     68 :    15.867178061555290
 Root     69 :    15.993677891959570
 Root     70 :    15.995969003451030
 Root     71 :    16.138495023176780
 Root     72 :    16.262556894148940
 Root     73 :    16.280968228414760
 Root     74 :    16.370846078671480
 Root     75 :    16.449252798508790
 Root     76 :    16.460905437581950
 Root     77 :    16.531416029283130
 Root     78 :    16.652894246358670
 Root     79 :    16.687754928144430
 Root     80 :    16.768071831051430
 Root     81 :    16.811978818132610
 Root     82 :    16.855555046895340
 Root     83 :    16.865868216175790
 Root     84 :    16.921885353351810
 Root     85 :    16.967704063171220
 Root     86 :    17.047818894453250
 Root     87 :    17.108205859119930
 Root     88 :    17.180336149972980
 Root     89 :    17.346563414786640
 Root     90 :    17.350915739199430
 Root     91 :    17.404039170958400
 Root     92 :    17.447286918478550
 Root     93 :    17.548259302919060
 Root     94 :    17.573925948390590
 Root     95 :    17.614737835598340
 Root     96 :    17.733107774472610
 Root     97 :    17.765127809254580
 Root     98 :    17.815893982669610
 Root     99 :    17.988562023117140
 Root    100 :    18.114222244357150
 Root    101 :    18.144143682272860
 Root    102 :    18.221589845561210
 Root    103 :    18.336701322657490
 Root    104 :    18.353034543813030
 Root    105 :    18.406041445037150
 Root    106 :    18.448272816423150
 Root    107 :    18.497811749963670
 Root    108 :    18.512307912004780
 Root    109 :    18.583884708937410
 Root    110 :    18.584516979863600
 Root    111 :    18.589067084772970
 Root    112 :    18.734441879378050
 Root    113 :    18.863304625375480
 Root    114 :    18.871543997864730
 Root    115 :    18.920496322746570
 Root    116 :    18.938370306988420
 Root    117 :    19.024622335492510
 Root    118 :    19.027513778464180
 Root    119 :    19.129204513639300
 Root    120 :    19.225768418753990
 Root    121 :    19.242611111156760
 Root    122 :    19.319988192188620
 Root    123 :    19.422368447408890
 Root    124 :    19.458785683748540
 Root    125 :    19.497729959077030
 Root    126 :    19.553922934235600
 Root    127 :    19.569641697014100
 Root    128 :    19.610241836586440
 Root    129 :    19.636818531477330
 Root    130 :    19.687140904684310
 Root    131 :    19.766785419561880
 Root    132 :    19.788353478207010
 Root    133 :    19.871417108426370
 Root    134 :    19.904074782777270
 Root    135 :    19.985699050174060
 Root    136 :    20.109143518006500
 Root    137 :    20.271169206941890
 Root    138 :    20.314707061743610
 Root    139 :    20.334182517110970
 Root    140 :    20.412497228053150
 Root    141 :    20.461642877756080
 Root    142 :    20.512978204365760
 Root    143 :    20.532876358657680
 Root    144 :    20.576458659776160
 Root    145 :    20.646766774638210
 Root    146 :    20.676768435409640
 Root    147 :    20.792771622981600
 Root    148 :    20.865628487939160
 Root    149 :    20.879426978145960
 Root    150 :    20.907733839277670
 Root    151 :    21.024064884218560
 Root    152 :    21.068946381227840
 Root    153 :    21.071910137601420
 Root    154 :    21.131627162323690
 Root    155 :    21.210285334998420
 Root    156 :    21.221019451394860
 Root    157 :    21.278952969064870
 Root    158 :    21.331415932936690
 Root    159 :    21.383273031169820
 Root    160 :    21.406459086647870
 Root    161 :    21.468608531752520
 Root    162 :    21.495784700228660
 Root    163 :    21.534417769601670
 Root    164 :    21.576135355992710
 Root    165 :    21.640558116317710
 Root    166 :    21.758131280321240
 Root    167 :    21.769878618177560
 Root    168 :    21.792847923086420
 Root    169 :    21.934257547474730
 Root    170 :    21.964107432188350
 Root    171 :    22.092002503451750
 Root    172 :    22.138562414437520
 Root    173 :    22.140440240477690
 Root    174 :    22.175864296162740
 Root    175 :    22.225057557161310
 Root    176 :    22.237626036727160
 Root    177 :    22.309629237448420
 Root    178 :    22.329255133883050
 Root    179 :    22.360905918967170
 Root    180 :    22.483475441713720
 Root    181 :    22.511257804683280
 Root    182 :    22.572775074070740
 Root    183 :    22.613292272673110
 Root    184 :    22.626351382779390
 Root    185 :    22.685457295228580
 Root    186 :    22.737967996028480
 Root    187 :    22.756323787061440
 Root    188 :    22.838953078989500
 Root    189 :    22.895263230536980
 Root    190 :    22.936988340740690
 Root    191 :    23.052058931338590
 Root    192 :    23.101554318206660
 Root    193 :    23.170607312602650
 Root    194 :    23.217679858152770
 Root    195 :    23.284320824757810
 Root    196 :    23.336141021439320
 Root    197 :    23.460248788103540
 Root    198 :    23.540906121219670
 Root    199 :    23.584851456559640
 Root    200 :    23.640233174890790
 Root    201 :    23.662068111434540
 Root    202 :    23.683288587611950
 Root    203 :    23.692671672672040
 Root    204 :    23.706826149355780
 Root    205 :    23.802761317257540
 Root    206 :    23.846477264884540
 Root    207 :    23.926474620699310
 Root    208 :    23.991417269592470
 Root    209 :    23.999297704409250
 Root    210 :    24.049465813372910
 Root    211 :    24.236875356559040
 Root    212 :    24.251240670201040
 Root    213 :    24.336024370025920
 Root    214 :    24.390227137828740
 Root    215 :    24.421245164704080
 Root    216 :    24.486888641587240
 Root    217 :    24.532588946323980
 Root    218 :    24.603440364885070
 Root    219 :    24.640531793952710
 Root    220 :    24.663946601640470
 Root    221 :    24.752348541861800
 Root    222 :    24.804109606349050
 Root    223 :    24.843006998483660
 Root    224 :    24.906083679162560
 Root    225 :    24.927930066318540
 Root    226 :    24.980436007883150
 Root    227 :    25.046923064983450
 Root    228 :    25.093361512720790
 Root    229 :    25.220335095300140
 Root    230 :    25.270097915825360
 Root    231 :    25.368912768795890
 Root    232 :    25.425378130444970
 Root    233 :    25.455333687348360
 Root    234 :    25.516305068401540
 Root    235 :    25.535788374460900
 Root    236 :    25.670237239571540
 Root    237 :    25.700031471780060
 Root    238 :    25.757787243877870
 Root    239 :    25.852271690280230
 Root    240 :    25.948140355417940
 Root    241 :    26.028668582707550
 Root    242 :    26.136522860264720
 Root    243 :    26.143611906652210
 Root    244 :    26.221200035552910
 Root    245 :    26.291626962836170
 Root    246 :    26.328441027251720
 Root    247 :    26.354227726322560
 Root    248 :    26.514785770555400
 Root    249 :    26.517745941314710
 Root    250 :    26.770779668835990
 Root    251 :    26.825041740091380
 Root    252 :    26.865328012991770
 Root    253 :    26.987892048750730
 Root    254 :    27.016111357878740
 Root    255 :    27.173241447756310
 Root    256 :    27.386282174885160
 Root    257 :    27.411583386489650
 Root    258 :    27.496020664396060
 Root    259 :    27.553129616793330
 Root    260 :    27.553568638992500
 Root    261 :    27.602450854323740
 Root    262 :    27.715605044911620
 Root    263 :    27.790763695784540
 Root    264 :    27.818642375354680
 Root    265 :    27.879613550901560
 Root    266 :    28.001937288000470
 Root    267 :    28.043550985887800
 Root    268 :    28.132607850035760
 Root    269 :    28.144908317169260
 Root    270 :    28.263416215537290
 Root    271 :    28.285801346011530
 Root    272 :    28.381629966154960
 Root    273 :    28.532195896578480
 Root    274 :    28.651840682367620
 Root    275 :    28.696495758938120
 Root    276 :    28.698071133412520
 Root    277 :    29.029143683653270
 Root    278 :    29.044422497369300
 Root    279 :    29.177762551926080
 Root    280 :    29.342116311595110
 Root    281 :    29.347273423773590
 Root    282 :    29.452895070366610
 Root    283 :    29.573677285100480
 Root    284 :    29.599036450390240
 Root    285 :    29.694246053179890
 Root    286 :    29.797425364891130
 Root    287 :    29.854412182076470
 Root    288 :    29.927267083197170
 Root    289 :    30.042713269693480
 Root    290 :    30.078439176944250
 Root    291 :    30.123395480800530
 Root    292 :    30.162041198619460
 Root    293 :    30.270035722379370
 Root    294 :    30.392491657394250
 Root    295 :    30.420309535876520
 Root    296 :    30.451139079295170
 Root    297 :    30.505841988438230
 Root    298 :    30.686865659588700
 Root    299 :    30.776273276138010
 Root    300 :    30.900923156869550
 Root    301 :    30.988818085967370
 Root    302 :    31.045851760879620
 Root    303 :    31.136607661394910
 Root    304 :    31.224892158471520
 Root    305 :    31.362934039452140
 Root    306 :    31.432778583384020
 Root    307 :    31.467579296478090
 Root    308 :    31.530343458736650
 Root    309 :    31.654268691127650
 Root    310 :    31.688471376565630
 Root    311 :    31.779579166983850
 Root    312 :    31.817000315392970
 Root    313 :    31.983441216304610
 Root    314 :    32.102757338087950
 Root    315 :    32.125906008422800
 Root    316 :    32.436760049047970
 Root    317 :    32.484238929010530
 Root    318 :    32.540055930175190
 Root    319 :    32.602447113925270
 Root    320 :    32.732936687289050
 Root    321 :    32.749201431105280
 Root    322 :    32.814624924623840
 Root    323 :    32.926551145978110
 Root    324 :    32.965007193488970
 Root    325 :    33.099070745112860
 Root    326 :    33.227033393554080
 Root    327 :    33.270881212797190
 Root    328 :    33.283901065578530
 Root    329 :    33.306898270484500
 Root    330 :    33.328253930197010
 Root    331 :    33.526128456337240
 Root    332 :    33.622984759139060
 Root    333 :    33.678632643445840
 Root    334 :    33.857438092629440
 Root    335 :    33.859555235074890
 Root    336 :    33.975528482098080
 Root    337 :    34.008968675119830
 Root    338 :    34.059964601504010
 Root    339 :    34.170431354770410
 Root    340 :    34.204981359258980
 Root    341 :    34.265369125092630
 Root    342 :    34.299312168809630
 Root    343 :    34.441021492900910
 Root    344 :    34.648381220199040
 Root    345 :    34.698156869506870
 Root    346 :    34.935574967280270
 Root    347 :    35.087346804840650
 Root    348 :    35.124440652891800
 Root    349 :    35.346479336728570
 Root    350 :    35.497579032415300
 Root    351 :    35.513096032930510
 Root    352 :    35.523362501375770
 Root    353 :    35.533615898813420
 Root    354 :    35.676163642122600
 Root    355 :    35.699884923369150
 Root    356 :    35.779996093645610
 Root    357 :    35.875944859969320
 Root    358 :    36.081571086223760
 Root    359 :    36.206563424164920
 Root    360 :    36.305777174287190
 Root    361 :    36.360344610455120
 Root    362 :    36.540113123247390
 Root    363 :    36.547163065850200
 Root    364 :    36.629403097701590
 Root    365 :    36.819150567703100
 Root    366 :    36.866160951404740
 Root    367 :    36.876308546558750
 Root    368 :    37.018135552254530
 Root    369 :    37.050162688545750
 Root    370 :    37.144065747464450
 Root    371 :    37.333622815991680
 Root    372 :    37.351037288551820
 Root    373 :    37.590866592298090
 Root    374 :    37.603712744924100
 Root    375 :    37.716922642885410
 Root    376 :    37.746471630254480
 Root    377 :    37.868179588146590
 Root    378 :    38.070918386403710
 Root    379 :    38.136912233337390
 Root    380 :    38.270009908997500
 Root    381 :    38.371713257388980
 Root    382 :    38.379799953765660
 Root    383 :    38.419821353616360
 Root    384 :    38.642975066568250
 Root    385 :    38.678275763137370
 Root    386 :    38.708353309253500
 Root    387 :    38.770956868354950
 Root    388 :    38.833829859978400
 Root    389 :    38.848117503014020
 Root    390 :    38.961562890707870
 Root    391 :    39.025747772336170
 Root    392 :    39.096129868677200
 Root    393 :    39.101532037041410
 Root    394 :    39.195225335465890
 Root    395 :    39.321866191589570
 Root    396 :    39.454511710027800
 Root    397 :    39.476926493255000
 Root    398 :    39.539055447925250
 Root    399 :    39.587868197276390
 Root    400 :    39.742534051624650
 Root    401 :    39.886072319341250
 Root    402 :    39.985627518197770
 Root    403 :    40.018700181966080
 Root    404 :    40.062358309101280
 Root    405 :    40.131704543226520
 Root    406 :    40.206186907062810
 Root    407 :    40.241391713485240
 Root    408 :    40.293260499039980
 Root    409 :    40.475504240423530
 Root    410 :    41.032206285910720
 Root    411 :    41.072643956747320
 Root    412 :    41.201601176081250
 Root    413 :    41.312274496076240
 Root    414 :    41.405960332803150
 Root    415 :    41.536993982355890
 Root    416 :    41.582875144685050
 Root    417 :    41.793759864785020
 Root    418 :    41.839807265392140
 Root    419 :    42.049238319902490
 Root    420 :    42.079047658593250
 Root    421 :    42.321753571716010
 Root    422 :    42.332754103459770
 Root    423 :    42.430558981769430
 Root    424 :    42.679390266601390
 Root    425 :    42.699122875934850
 Root    426 :    42.761868424263840
 Root    427 :    42.801918100898250
 Root    428 :    43.185588077798860
 Root    429 :    43.446643111288860
 Root    430 :    43.630538146636420
 Root    431 :    43.685557787876080
 Root    432 :    43.737459576658340
 Root    433 :    43.796437857387300
 Root    434 :    43.959539727783070
 Root    435 :    44.352193344785460
 Root    436 :    44.646737630194660
 Root    437 :    44.678705073319510
 Root    438 :    44.878874293734190
 Root    439 :    44.955142160702490
 Root    440 :    45.132021289777950
 Root    441 :    45.287279605822230
 Root    442 :    45.308348283641580
 Root    443 :    45.633337770931700
 Root    444 :    46.055187909361250
 Root    445 :    46.152014175173430
 Root    446 :    46.365498736910050
 Root    447 :    46.553246890427940
 Root    448 :    46.848065311804380
 Root    449 :    46.890145845767970
 Root    450 :    47.081187725998810
 Root    451 :    47.247829834952690
 Root    452 :    47.350207857847570
 Root    453 :    47.573774787145190
 Root    454 :    47.609917166655530
 Root    455 :    47.811656157196100
 Root    456 :    48.268711248404850
 Root    457 :    48.553314958141800
 Root    458 :    48.929019650932590
 Root    459 :    49.407536670756480
 Root    460 :    49.903777059645990
 Root    461 :    49.911366646027890
 Root    462 :    50.007918651630230
 Root    463 :    50.319091121329170
 Root    464 :    50.423088716763860
 Root    465 :    50.543457334566990
 Root    466 :    50.995023970516250
 Root    467 :    51.078039892512470
 Root    468 :    51.554757515547390
 Root    469 :    51.610344517826420
 Root    470 :    51.930281320889020
 Root    471 :    51.972278431322830
 Root    472 :    52.090851284222300
 Root    473 :    52.147994458736250
 Root    474 :    52.270441908746610
 Root    475 :    52.392681067922500
 Root    476 :    52.441287042249170
 Root    477 :    52.620198176762490
 Root    478 :    52.720769374118970
 Root    479 :    52.784659366417480
 Root    480 :    52.875631264750150
 Root    481 :    53.138186469182740
 Root    482 :    53.278683785055340
 Root    483 :    53.338033260002620
 Root    484 :    53.345207353437510
 Root    485 :    53.478429998994680
 Root    486 :    53.845545387071650
 Root    487 :    53.886116924958280
 Root    488 :    53.975566887895190
 Root    489 :    54.018767859631670
 Root    490 :    54.218575808162460
 Root    491 :    54.284684780570090
 Root    492 :    54.363448649991990
 Root    493 :    54.534271200036430
 Root    494 :    54.917466511597980
 Root    495 :    54.994360003832430
 Root    496 :    55.200971405991390
 Root    497 :    55.393920377095450
 Root    498 :    55.665199202609370
 Root    499 :    55.832264028735630
 Root    500 :    56.028264598613600
 Root    501 :    56.147495412609430
 Root    502 :    56.260859503680920
 Root    503 :    56.323227771932660
 Root    504 :    56.474815599560160
 Root    505 :    56.518283342572320
 Root    506 :    56.524518434504590
 Root    507 :    56.559717091335440
 Root    508 :    56.609222223984480
 Root    509 :    56.792589037164990
 Root    510 :    57.128417204208460
 Root    511 :    57.406917477011060
 Root    512 :    57.522761719258890
 Root    513 :    57.698144900027310
 Root    514 :    57.813003859921830
 Root    515 :    57.891163832777540
 Root    516 :    58.075674015500840
 Root    517 :    58.131591812716320
 Root    518 :    58.217036763433960
 Root    519 :    58.271249928770050
 Root    520 :    58.548856945174410
 Root    521 :    58.590250773146210
 Root    522 :    58.845207269020530
 Root    523 :    59.099946326760230
 Root    524 :    59.115877365792310
 Root    525 :    59.378718454294350
 Root    526 :    59.397637982799240
 Root    527 :    59.684335841808410
 Root    528 :    59.927414394421590
 Root    529 :    60.103065714111900
 Root    530 :    60.242813849492750
 Root    531 :    60.317839769547580
 Root    532 :    60.481068343315170
 Root    533 :    60.575663094844110
 Root    534 :    60.737596379859230
 Root    535 :    60.809946399779020
 Root    536 :    60.813786020574310
 Root    537 :    60.903043466702470
 Root    538 :    61.028841448244210
 Root    539 :    61.339842187159160
 Root    540 :    61.353871747405160
 Root    541 :    61.494522512975430
 Root    542 :    61.610265242436940
 Root    543 :    61.691406020229860
 Root    544 :    61.801414737398120
 Root    545 :    61.888482984891080
 Root    546 :    62.019197755321810
 Root    547 :    62.375858121092810
 Root    548 :    62.453637962970000
 Root    549 :    62.611675396166330
 Root    550 :    62.681816480502930
 Root    551 :    62.812985201319020
 Root    552 :    62.949620525441350
 Root    553 :    62.960138008830950
 Root    554 :    63.116199681934920
 Root    555 :    63.246311327288300
 Root    556 :    63.309969132495730
 Root    557 :    63.440857655927250
 Root    558 :    63.634038030198470
 Root    559 :    63.706221132277010
 Root    560 :    63.729528335331720
 Root    561 :    63.864959139732340
 Root    562 :    63.989338686868840
 Root    563 :    64.141309709252230
 Root    564 :    64.315370340140420
 Root    565 :    64.391197205048310
 Root    566 :    64.729749849552140
 Root    567 :    64.927274285071520
 Root    568 :    65.033909620454920
 Root    569 :    65.089237710793180
 Root    570 :    65.441273721034960
 Root    571 :    65.631925522178180
 Root    572 :    65.658331216509570
 Root    573 :    66.014676645761700
 Root    574 :    66.295514407860410
 Root    575 :    66.357269055994590
 Root    576 :    66.407373904929940
 Root    577 :    66.488188054322560
 Root    578 :    66.551489336779620
 Root    579 :    66.682936135125670
 Root    580 :    66.957799318822420
 Root    581 :    67.241014003060780
 Root    582 :    67.267737628236830
 Root    583 :    67.449355167237460
 Root    584 :    67.639623792826090
 Root    585 :    67.760186101360620
 Root    586 :    67.763342072005540
 Root    587 :    68.213445744410190
 Root    588 :    68.301539223875380
 Root    589 :    68.783458850060470
 Root    590 :    68.827955644262120
 Root    591 :    68.848209502277640
 Root    592 :    68.926145707083190
 Root    593 :    69.147342606996090
 Root    594 :    69.582600053533810
 Root    595 :    69.882778034008740
 Root    596 :    70.063061095278750
 Root    597 :    70.340653942691730
 Root    598 :    70.405905343577940
 Root    599 :    70.591264575278130
 Root    600 :    70.881603092985730
 Root    601 :    71.045079942873490
 Root    602 :    71.225573586025010
 Root    603 :    71.486482240889690
 Root    604 :    71.693268700527750
 Root    605 :    71.766333710077250
 Root    606 :    71.784189580502540
 Root    607 :    72.194486803746660
 Root    608 :    72.529910440606050
 Root    609 :    72.679093962726380
 Root    610 :    72.727266183152470
 Root    611 :    73.045066062627710
 Root    612 :    73.609725719481900
 Root    613 :    73.718017847856710
 Root    614 :    74.071253395185920
 Root    615 :    74.663688310034320
 Root    616 :    74.972872865884260
 Root    617 :    75.023631743462930
 Root    618 :    75.046082284365810
 Root    619 :    75.455869671352360
 Root    620 :    75.646120685470010
 Root    621 :    75.847916437435770
 Root    622 :    75.925170740680670
 Root    623 :    76.050922327820540
 Root    624 :    76.186379765724880
 Root    625 :    76.352206366539330
 Root    626 :    76.482265162662430
 Root    627 :    77.280747513135750
 Root    628 :    77.522667166557700
 Root    629 :    77.593609008423700
 Root    630 :    77.617385040612290
 Root    631 :    77.856278093431870
 Root    632 :    77.999974410670090
 Root    633 :    78.407230744889050
 Root    634 :    78.687764274776160
 Root    635 :    78.961738761543600
 Root    636 :    79.085289356656530
 Root    637 :    79.187549558969790
 Root    638 :    79.680272563022970
 Root    639 :    79.726701451702300
 Root    640 :    79.880194174216980
 Root    641 :    80.210439552803540
 Root    642 :    80.258552343058000
 Root    643 :    80.339050560077680
 Root    644 :    80.577015380422550
 Root    645 :    80.665817999838690
 Root    646 :    81.099298409438490
 Root    647 :    81.367563167601820
 Root    648 :    81.509412217155100
 Root    649 :    81.924771224847920
 Root    650 :    82.000221716137910
 Root    651 :    82.399991895896240
 Root    652 :    82.745893346107170
 Root    653 :    82.823669603599270
 Root    654 :    83.143522074995910
 Root    655 :    83.201418916121110
 Root    656 :    83.470967860208720
 Root    657 :    83.775287968220710
 Root    658 :    84.436180521063830
 Root    659 :    84.718685274194900
 Root    660 :    84.774212219425140
 Root    661 :    84.984906865187920
 Root    662 :    85.109121322595170
 Root    663 :    85.430480983450490
 Root    664 :    85.773246199479430
 Root    665 :    86.092156144180240
 Root    666 :    86.386898952458640
 Root    667 :    86.578232084596350
 Root    668 :    86.880134998244590
 Root    669 :    86.923956128990600
 Root    670 :    87.358160392304550
 Root    671 :    87.504402211244350
 Root    672 :    87.669347991275830
 Root    673 :    87.764832191977220
 Root    674 :    87.910137076084960
 Root    675 :    88.005726933187930
 Root    676 :    89.197628100728020
 Root    677 :    89.233167842668680
 Root    678 :    89.368214149759150
 Root    679 :    89.448604226333190
 Root    680 :    89.454056925988670
 Root    681 :    89.783452795987840
 Root    682 :    90.022602153586010
 Root    683 :    90.160820986579050
 Root    684 :    90.416795374179030
 Root    685 :    90.549728808805070
 Root    686 :    90.614976556831960
 Root    687 :    91.305496108070570
 Root    688 :    91.384437576631950
 Root    689 :    91.405289183029250
 Root    690 :    91.525489425148760
 Root    691 :    91.550835509390370
 Root    692 :    92.078350174732410
 Root    693 :    92.459803337416220
 Root    694 :    92.549266091203760
 Root    695 :    93.008248802339170
 Root    696 :    93.633146509420610
 Root    697 :    93.759016680678340
 Root    698 :    94.119429135941020
 Root    699 :    94.144328517577520
 Root    700 :    94.269537510512620
 Root    701 :    94.349066444768300
 Root    702 :    95.117952617495420
 Root    703 :    95.369545612298340
 Root    704 :    95.463772201670960
 Root    705 :    95.816842149608790
 Root    706 :    96.168764124939740
 Root    707 :    96.434695304930360
 Root    708 :    96.534534336782360
 Root    709 :    96.790695557071330
 Root    710 :    97.430398304545260
 Root    711 :    97.887278469054560
 Root    712 :    97.992574412610640
 Root    713 :    98.145555753570820
 Root    714 :    98.704097667644600
 Root    715 :    99.048324604133680
 Root    716 :    99.206458237245390
 Root    717 :    99.332826021134960
 Root    718 :    99.529899802619370
 Root    719 :   100.523167372254600
 Root    720 :   101.006213688752700
 Root    721 :   101.537275676057000
 Root    722 :   102.267281598714200
 Root    723 :   102.324993988404900
 Root    724 :   102.943374625897600
 Root    725 :   103.378970403404800
 Root    726 :   104.430112113992000
 Root    727 :   104.867865011075600
 Root    728 :   105.187575669242600
 Root    729 :   105.376829957595500
 Root    730 :   105.519375189391800
 Root    731 :   106.053997087595900
 Root    732 :   107.785850370791100
 Root    733 :   108.185766962059000
 Root    734 :   108.592373522406000
 Root    735 :   109.239016097833700
 Root    736 :   110.740348733309300
 Root    737 :   111.436509113897900
 Root    738 :   111.865909564243400
 Root    739 :   112.484628502132000
 Root    740 :   113.342287888100500
 Root    741 :   113.399566735394300
 Root    742 :   113.575056149850700
 Root    743 :   114.214757251546000
 Root    744 :   116.153530714437600
 Root    745 :   120.217602620206700
 Root    746 :   121.981954305487500
 Root    747 :   127.092769233657200
 Convergence achieved for final wavefunctions.
 ***********************************************************************
 Excited states from <AA,BB:AA,BB> singles matrix:
 ***********************************************************************
 
 1PDM for each excited state written to RWF  633
 Ground to excited state transition densities written to RWF  633
 Ground to excited state transition electric dipole moments (Au):
       state          X           Y           Z        Dip. S.      Osc.
[...]
      6  -0.317660D+00  0.000000D+00 -0.408332D+00  0.000000D+00  0.742208D+00
      7   0.000000D+00 -0.170659D-01  0.000000D+00  0.324160D+00  0.000000D+00
      8   0.000000D+00 -0.616874D-01  0.000000D+00 -0.171485D+00  0.000000D+00
      9   0.000000D+00 -0.104081D+00  0.000000D+00 -0.881886D-01  0.000000D+00
     10   0.690267D+00  0.000000D+00  0.411549D+00  0.000000D+00 -0.130589D+01
     11  -0.222417D+00  0.000000D+00 -0.585049D+00  0.000000D+00  0.415937D+00
     12  -0.575538D+00  0.000000D+00 -0.412980D+00  0.000000D+00  0.121798D+01
     13  -0.166954D+00  0.000000D+00  0.110812D+00  0.000000D+00  0.371426D-01
     14   0.873642D+00  0.000000D+00  0.696830D+00  0.000000D+00 -0.145837D+01
     15   0.000000D+00  0.111083D+00  0.000000D+00  0.793818D-01  0.000000D+00
     16   0.000000D+00 -0.329271D+00  0.000000D+00 -0.113866D+00  0.000000D+00
               681           682           683           684           685 
      1  -0.150349D+03 -0.150341D+03 -0.150335D+03 -0.150326D+03 -0.150321D+03
      2  -0.598844D-01 -0.561689D-01  0.000000D+00 -0.314249D-01  0.000000D+00
      3   0.129334D+00  0.470286D-02  0.000000D+00  0.116178D+00  0.000000D+00
      4   0.000000D+00  0.000000D+00 -0.233977D-01  0.000000D+00 -0.128108D-01
      5   0.180341D+00  0.158158D+00  0.000000D+00  0.753005D-01  0.000000D+00
      6  -0.364349D+00 -0.204327D-01  0.000000D+00 -0.337286D+00  0.000000D+00
      7   0.000000D+00  0.000000D+00  0.801314D-01  0.000000D+00  0.459583D-01
      8   0.000000D+00  0.000000D+00 -0.266174D+00  0.000000D+00 -0.527611D-01
      9   0.000000D+00  0.000000D+00 -0.424721D+00  0.000000D+00 -0.806234D-01
     10   0.110399D+01  0.725542D+00  0.000000D+00  0.806520D+00  0.000000D+00
     11   0.637546D+00  0.901538D+00  0.000000D+00  0.406153D+00  0.000000D+00
     12  -0.677543D+00 -0.278739D+00  0.000000D+00 -0.412206D+00  0.000000D+00
     13   0.268953D-01  0.125263D+00  0.000000D+00 -0.185087D+00  0.000000D+00
     14   0.524607D+00  0.729025D-01  0.000000D+00  0.770784D+00  0.000000D+00
     15   0.000000D+00  0.000000D+00  0.379971D+00  0.000000D+00  0.878444D-01
     16   0.000000D+00  0.000000D+00 -0.186057D+00  0.000000D+00 -0.680741D-01
               686           687           688           689           690 
      1  -0.150319D+03 -0.150293D+03 -0.150290D+03 -0.150290D+03 -0.150285D+03
      2   0.000000D+00  0.187875D-01  0.000000D+00 -0.179647D-01 -0.120639D-01
      3   0.000000D+00 -0.117908D-01  0.000000D+00 -0.150480D+00 -0.401426D-01
      4  -0.105473D+00  0.000000D+00 -0.232165D-01  0.000000D+00  0.000000D+00
      5   0.000000D+00 -0.594448D-01  0.000000D+00  0.507097D-01  0.394046D-01
      6   0.000000D+00  0.276449D-01  0.000000D+00  0.434110D+00  0.130710D+00
      7   0.280330D+00  0.000000D+00  0.648625D-01  0.000000D+00  0.000000D+00
      8   0.405524D+00  0.000000D+00  0.107065D+00  0.000000D+00  0.000000D+00
      9   0.114506D+01  0.000000D+00  0.266527D+00  0.000000D+00  0.000000D+00
     10   0.000000D+00  0.116660D+00  0.000000D+00 -0.471259D+00  0.568680D+00
     11   0.000000D+00  0.341190D+00  0.000000D+00  0.393856D+00 -0.295403D+00
     12   0.000000D+00 -0.652423D-01  0.000000D+00  0.555303D+00 -0.793647D+00
     13   0.000000D+00  0.377158D-01  0.000000D+00 -0.140989D+00  0.730894D-01
     14   0.000000D+00  0.361928D-01  0.000000D+00 -0.985392D+00  0.854755D+00
     15  -0.112454D+01  0.000000D+00 -0.275949D+00  0.000000D+00  0.000000D+00
     16   0.366049D+00  0.000000D+00  0.220182D+00  0.000000D+00  0.000000D+00
               691           692           693           694           695 
      1  -0.150284D+03 -0.150265D+03 -0.150251D+03 -0.150248D+03 -0.150231D+03
      2   0.000000D+00 -0.225820D-01  0.000000D+00  0.961554D-01 -0.396202D-02
      3   0.000000D+00  0.407636D-01  0.000000D+00  0.644300D-01  0.980032D-01
      4   0.145987D+00  0.000000D+00  0.819894D-01  0.000000D+00  0.000000D+00
      5   0.000000D+00  0.635110D-01  0.000000D+00 -0.296837D+00  0.107473D-01
      6   0.000000D+00 -0.115087D+00  0.000000D+00 -0.186770D+00 -0.302152D+00
      7  -0.426661D+00  0.000000D+00 -0.249329D+00  0.000000D+00  0.000000D+00
      8   0.516390D-01  0.000000D+00 -0.107742D+00  0.000000D+00  0.000000D+00
      9  -0.296364D+00  0.000000D+00 -0.502895D+00  0.000000D+00  0.000000D+00
     10   0.000000D+00  0.753269D+00  0.000000D+00  0.473228D+00  0.461319D+00
     11   0.000000D+00  0.927591D-01  0.000000D+00  0.133095D+00  0.783240D-01
     12   0.000000D+00 -0.650711D+00  0.000000D+00 -0.414616D+00 -0.350761D-01
     13   0.000000D+00 -0.148375D+00  0.000000D+00 -0.100087D-01 -0.259989D-01
     14   0.000000D+00  0.715625D+00  0.000000D+00  0.687674D+00  0.597504D+00
     15   0.318922D+00  0.000000D+00  0.517512D+00  0.000000D+00  0.000000D+00
     16  -0.195808D+00  0.000000D+00  0.513563D-01  0.000000D+00  0.000000D+00
               696           697           698           699           700 
      1  -0.150208D+03 -0.150203D+03 -0.150190D+03 -0.150189D+03 -0.150184D+03
      2   0.000000D+00 -0.461524D-02  0.000000D+00  0.000000D+00  0.000000D+00
      3   0.000000D+00 -0.214187D-01  0.000000D+00  0.000000D+00  0.000000D+00
      4  -0.902272D-02  0.000000D+00 -0.635830D-01  0.195452D-01  0.519019D-01
      5   0.000000D+00  0.940767D-02  0.000000D+00  0.000000D+00  0.000000D+00
      6   0.000000D+00  0.685781D-01  0.000000D+00  0.000000D+00  0.000000D+00
      7   0.168029D-01  0.000000D+00  0.198294D+00 -0.600640D-01 -0.150880D+00
      8  -0.158623D+00  0.000000D+00  0.165907D+00  0.592313D-01 -0.216421D+00
      9  -0.160050D+00  0.000000D+00  0.467001D+00  0.631210D-01 -0.554305D+00
     10   0.000000D+00  0.182724D+00  0.000000D+00  0.000000D+00  0.000000D+00
     11   0.000000D+00  0.126929D+00  0.000000D+00  0.000000D+00  0.000000D+00
     12   0.000000D+00 -0.382139D+00  0.000000D+00  0.000000D+00  0.000000D+00
     13   0.000000D+00  0.812746D-01  0.000000D+00  0.000000D+00  0.000000D+00
     14   0.000000D+00  0.126451D+00  0.000000D+00  0.000000D+00  0.000000D+00
     15   0.233255D+00  0.000000D+00 -0.689158D+00 -0.566584D-02  0.598070D+00
     16  -0.201927D+00  0.000000D+00  0.187022D+00 -0.131576D+00 -0.150187D+00
               701           702           703           704           705 
      1  -0.150182D+03 -0.150153D+03 -0.150144D+03 -0.150141D+03 -0.150128D+03
      2   0.133899D-01  0.578120D-01 -0.162568D+00 -0.292876D-01  0.149277D-01
      3   0.449798D-02 -0.390883D-01 -0.312912D-01  0.484450D-01  0.399197D-01
      4   0.000000D+00  0.000000D+00  0.000000D+00  0.000000D+00  0.000000D+00
      5  -0.529239D-01 -0.159110D+00  0.546758D+00  0.738496D-01 -0.577321D-01
      6  -0.149191D-01  0.101596D+00  0.103229D+00 -0.142589D+00 -0.113030D+00
      7   0.000000D+00  0.000000D+00  0.000000D+00  0.000000D+00  0.000000D+00
      8   0.000000D+00  0.000000D+00  0.000000D+00  0.000000D+00  0.000000D+00
      9   0.000000D+00  0.000000D+00  0.000000D+00  0.000000D+00  0.000000D+00
     10   0.256936D+00 -0.764060D-01 -0.593252D+00  0.119980D+00 -0.500238D-01
     11  -0.248867D+00 -0.301887D+00 -0.212198D+01  0.159756D-01  0.620346D+00
     12  -0.156588D+00 -0.324225D+00  0.194825D+00 -0.505290D+00  0.198359D+00
     13   0.768563D-01  0.173487D+00 -0.107992D+00  0.683938D-01 -0.945085D-01
     14   0.652239D+00  0.222260D+00  0.177447D+00  0.210539D+00 -0.250094D+00
     15   0.000000D+00  0.000000D+00  0.000000D+00  0.000000D+00  0.000000D+00
     16   0.000000D+00  0.000000D+00  0.000000D+00  0.000000D+00  0.000000D+00
               706           707           708           709           710 
      1  -0.150115D+03 -0.150105D+03 -0.150101D+03 -0.150092D+03 -0.150068D+03
      2   0.907489D-02 -0.462313D-01  0.000000D+00 -0.456649D-02  0.000000D+00
      3  -0.453600D-01  0.515837D-01  0.000000D+00  0.421994D-01  0.000000D+00
      4   0.000000D+00  0.000000D+00  0.110517D+00  0.000000D+00  0.193762D+00
      5  -0.366411D-01  0.154414D+00  0.000000D+00  0.112964D-01  0.000000D+00
      6   0.122295D+00 -0.156938D+00  0.000000D+00 -0.130374D+00  0.000000D+00
      7   0.000000D+00  0.000000D+00 -0.340265D+00  0.000000D+00 -0.613064D+00
      8   0.000000D+00  0.000000D+00  0.551086D-01  0.000000D+00 -0.496204D+00
      9   0.000000D+00  0.000000D+00 -0.199059D+00  0.000000D+00 -0.158981D+01
     10   0.310670D-02  0.155862D+00  0.000000D+00  0.389684D+00  0.000000D+00
     11   0.316757D+00 -0.643534D+00  0.000000D+00  0.140900D+00  0.000000D+00
     12   0.900765D-01 -0.326076D+00  0.000000D+00  0.144171D-01  0.000000D+00
     13  -0.598657D-01  0.213249D+00  0.000000D+00 -0.218525D+00  0.000000D+00
     14  -0.633354D-01  0.288295D+00  0.000000D+00  0.226529D+00  0.000000D+00
     15   0.000000D+00  0.000000D+00  0.383536D+00  0.000000D+00  0.209416D+01
     16   0.000000D+00  0.000000D+00  0.150794D+00  0.000000D+00 -0.495390D+00
               711           712           713           714           715 
      1  -0.150051D+03 -0.150048D+03 -0.150042D+03 -0.150021D+03 -0.150009D+03
      2   0.000000D+00  0.000000D+00 -0.138415D-01 -0.294468D-02  0.736668D-01
      3   0.000000D+00  0.000000D+00 -0.110222D-01  0.820353D-01 -0.113016D-01
      4  -0.656899D-01 -0.164463D+00  0.000000D+00  0.000000D+00  0.000000D+00
      5   0.000000D+00  0.000000D+00  0.403906D-01  0.305482D-01 -0.265018D+00
      6   0.000000D+00  0.000000D+00  0.381229D-01 -0.251977D+00  0.131947D-01
      7   0.226412D+00  0.523772D+00  0.000000D+00  0.000000D+00  0.000000D+00
      8   0.193864D+00  0.401999D+00  0.000000D+00  0.000000D+00  0.000000D+00
      9   0.759032D+00  0.123781D+01  0.000000D+00  0.000000D+00  0.000000D+00
     10   0.000000D+00  0.000000D+00  0.166646D+00  0.150119D+00  0.251189D-01
     11   0.000000D+00  0.000000D+00  0.308631D+00 -0.396027D+00  0.137036D+01
     12   0.000000D+00  0.000000D+00 -0.121656D+00 -0.233661D+00  0.851380D-01
     13   0.000000D+00  0.000000D+00 -0.938010D-02 -0.131648D+00 -0.313653D-01
     14   0.000000D+00  0.000000D+00 -0.291662D-01  0.883575D-01 -0.169871D+00
     15  -0.107694D+01 -0.148801D+01  0.000000D+00  0.000000D+00  0.000000D+00
     16   0.121670D-01  0.481350D+00  0.000000D+00  0.000000D+00  0.000000D+00
               716           717           718           719           720 
      1  -0.150003D+03 -0.149998D+03 -0.149991D+03 -0.149955D+03 -0.149937D+03
      2   0.000000D+00  0.180440D+00  0.000000D+00  0.000000D+00  0.000000D+00
      3   0.000000D+00 -0.329806D-02  0.000000D+00  0.000000D+00  0.000000D+00
      4   0.809499D-01  0.000000D+00 -0.846051D-01 -0.622468D-01  0.110033D-01
      5   0.000000D+00 -0.642686D+00  0.000000D+00  0.000000D+00  0.000000D+00
      6   0.000000D+00  0.182242D-01  0.000000D+00  0.000000D+00  0.000000D+00
      7  -0.272590D+00  0.000000D+00  0.268041D+00  0.200457D+00 -0.322653D-01
      8  -0.324221D+00  0.000000D+00 -0.171835D+00 -0.253959D+00  0.302463D-01
      9  -0.787182D+00  0.000000D+00 -0.993380D-01 -0.249423D+00 -0.382418D-01
     10   0.000000D+00  0.445418D+00  0.000000D+00  0.000000D+00  0.000000D+00
     11   0.000000D+00  0.316772D+01  0.000000D+00  0.000000D+00  0.000000D+00
     12   0.000000D+00 -0.121830D-01  0.000000D+00  0.000000D+00  0.000000D+00
     13   0.000000D+00  0.447542D-01  0.000000D+00  0.000000D+00  0.000000D+00
     14   0.000000D+00 -0.559234D+00  0.000000D+00  0.000000D+00  0.000000D+00
     15   0.950484D+00  0.000000D+00 -0.818760D-01  0.749821D-01  0.888780D-01
     16  -0.400590D+00  0.000000D+00 -0.303327D+00 -0.142145D+00 -0.238485D-01
               721           722           723           724           725 
      1  -0.149917D+03 -0.149891D+03 -0.149888D+03 -0.149866D+03 -0.149850D+03
      2   0.657540D-01  0.000000D+00  0.235091D-01  0.228080D-01  0.156308D-01
      3   0.581031D-01  0.000000D+00  0.982605D-02  0.337211D-01 -0.624331D-01
      4   0.000000D+00 -0.696041D-01  0.000000D+00  0.000000D+00  0.000000D+00
      5  -0.199377D+00  0.000000D+00 -0.895479D-01 -0.102174D+00 -0.638584D-01
      6  -0.181310D+00  0.000000D+00 -0.400455D-01 -0.104948D+00  0.196338D+00
      7   0.000000D+00  0.214054D+00  0.000000D+00  0.000000D+00  0.000000D+00
      8   0.000000D+00  0.152273D+00  0.000000D+00  0.000000D+00  0.000000D+00
      9   0.000000D+00  0.263655D+00  0.000000D+00  0.000000D+00  0.000000D+00
     10  -0.476296D+00  0.000000D+00  0.433278D+00 -0.110379D+00 -0.800615D+00
     11  -0.674695D+00  0.000000D+00  0.744959D+00  0.423061D+00  0.945868D-01
     12   0.368991D+00  0.000000D+00  0.616110D-01  0.315424D+00  0.287660D+00
     13  -0.336868D-01  0.000000D+00 -0.589633D+00 -0.206191D+00 -0.206275D-01
     14  -0.187260D-01  0.000000D+00  0.124969D+00 -0.287456D+00 -0.116512D+01
     15   0.000000D+00 -0.305704D+00  0.000000D+00  0.000000D+00  0.000000D+00
     16   0.000000D+00  0.121620D+00  0.000000D+00  0.000000D+00  0.000000D+00
               726           727           728           729           730 
      1  -0.149811D+03 -0.149795D+03 -0.149783D+03 -0.149776D+03 -0.149771D+03
      2   0.856912D-01  0.000000D+00  0.598429D-03  0.343001D-01  0.000000D+00
      3  -0.226028D-01  0.000000D+00  0.444075D-01  0.194680D+00  0.000000D+00
      4   0.000000D+00  0.925689D-02  0.000000D+00  0.000000D+00 -0.100533D-01
      5  -0.324429D+00  0.000000D+00  0.579480D-02 -0.139974D+00  0.000000D+00
      6   0.873320D-01  0.000000D+00 -0.164522D+00 -0.669066D+00  0.000000D+00
      7   0.000000D+00 -0.299020D-01  0.000000D+00  0.000000D+00  0.319553D-01
      8   0.000000D+00 -0.221005D-01  0.000000D+00  0.000000D+00 -0.248490D-01
      9   0.000000D+00 -0.517679D-01  0.000000D+00  0.000000D+00 -0.547581D-01
     10   0.651472D-01  0.000000D+00  0.598965D+00  0.165848D+01  0.000000D+00
     11   0.480778D+00  0.000000D+00 -0.234463D+00  0.485347D+00  0.000000D+00
     12   0.680244D-01  0.000000D+00 -0.984326D-01 -0.115547D+01  0.000000D+00
     13   0.380818D-01  0.000000D+00 -0.231723D-01  0.524719D-02  0.000000D+00
     14  -0.148016D+00  0.000000D+00  0.901019D+00  0.166785D+01  0.000000D+00
     15   0.000000D+00  0.426930D-02  0.000000D+00  0.000000D+00 -0.123186D-01
     16   0.000000D+00  0.528088D+00  0.000000D+00  0.000000D+00 -0.117103D+00
               731           732           733           734           735 
      1  -0.149751D+03 -0.149688D+03 -0.149673D+03 -0.149658D+03 -0.149634D+03
      2   0.469744D-01  0.000000D+00  0.000000D+00 -0.541649D-02  0.375791D-01
      3  -0.142205D+00  0.000000D+00  0.000000D+00  0.652482D-01  0.542767D-01
      4   0.000000D+00 -0.680792D-02  0.119971D+00  0.000000D+00  0.000000D+00
      5  -0.171674D+00  0.000000D+00  0.000000D+00  0.829102D-02 -0.140307D+00
      6   0.490821D+00  0.000000D+00  0.000000D+00 -0.230397D+00 -0.194620D+00
      7   0.000000D+00  0.925248D-02 -0.430684D+00  0.000000D+00  0.000000D+00
      8   0.000000D+00 -0.602249D-01 -0.306836D+00  0.000000D+00  0.000000D+00
      9   0.000000D+00 -0.250828D+00 -0.104359D+01  0.000000D+00  0.000000D+00
     10  -0.906988D+00  0.000000D+00  0.000000D+00  0.278628D+00  0.367853D+00
     11   0.716099D+00  0.000000D+00  0.000000D+00  0.135125D+00  0.561169D+00
     12   0.571482D+00  0.000000D+00  0.000000D+00 -0.101706D+00 -0.595852D+00
     13  -0.311788D-01  0.000000D+00  0.000000D+00 -0.663056D-01  0.108700D+00
     14  -0.161535D+01  0.000000D+00  0.000000D+00  0.302353D+00  0.177840D+00
     15   0.000000D+00  0.264489D+00  0.130796D+01  0.000000D+00  0.000000D+00
     16   0.000000D+00 -0.155738D-01 -0.284362D+00  0.000000D+00  0.000000D+00
               736           737           738           739           740 
      1  -0.149579D+03 -0.149554D+03 -0.149538D+03 -0.149515D+03 -0.149484D+03
      2   0.000000D+00  0.201378D+00 -0.117773D+00 -0.106962D-01  0.000000D+00
      3   0.000000D+00  0.251236D-01  0.282099D-01  0.155392D-01  0.000000D+00
      4   0.349229D-01  0.000000D+00  0.000000D+00  0.000000D+00  0.600461D-02
      5   0.000000D+00 -0.787099D+00  0.461380D+00  0.472670D-01  0.000000D+00
      6   0.000000D+00 -0.883038D-01 -0.934809D-01 -0.554285D-01  0.000000D+00
      7  -0.122950D+00  0.000000D+00  0.000000D+00  0.000000D+00 -0.153681D-01
      8  -0.136281D+00  0.000000D+00  0.000000D+00  0.000000D+00  0.159501D-01
      9  -0.317351D+00  0.000000D+00  0.000000D+00  0.000000D+00 -0.416701D-01
     10   0.000000D+00  0.788915D+00 -0.921111D-01 -0.128141D-01  0.000000D+00
     11   0.000000D+00  0.416545D+01 -0.254458D+01 -0.397034D+00  0.000000D+00
     12   0.000000D+00 -0.252299D+00  0.146291D-01  0.215056D-01  0.000000D+00
     13   0.000000D+00 -0.127874D+00  0.103318D+00 -0.772412D-03  0.000000D+00
     14   0.000000D+00 -0.287650D+00  0.706854D+00  0.989769D-01  0.000000D+00
     15   0.244156D+00  0.000000D+00  0.000000D+00  0.000000D+00  0.115141D+00
     16  -0.167606D+00  0.000000D+00  0.000000D+00  0.000000D+00  0.686918D-03
               741           742           743           744           745 
      1  -0.149481D+03 -0.149475D+03 -0.149451D+03 -0.149380D+03 -0.149231D+03
      2   0.542975D-01  0.000000D+00 -0.842023D-02  0.143898D-01 -0.631339D-02
      3   0.184810D-01  0.000000D+00 -0.149294D-01  0.691694D-03  0.160029D-01
      4   0.000000D+00 -0.687222D-01  0.000000D+00  0.000000D+00  0.000000D+00
      5  -0.233325D+00  0.000000D+00  0.448994D-01 -0.307952D-01  0.268601D-01
      6  -0.717977D-01  0.000000D+00  0.331859D-01 -0.460746D-02 -0.732977D-01
      7   0.000000D+00  0.248924D+00  0.000000D+00  0.000000D+00  0.000000D+00
      8   0.000000D+00  0.156278D+00  0.000000D+00  0.000000D+00  0.000000D+00
      9   0.000000D+00  0.500402D+00  0.000000D+00  0.000000D+00  0.000000D+00
     10   0.377577D+00  0.000000D+00 -0.317765D-01  0.108794D+00  0.349968D+00
     11   0.146528D+01  0.000000D+00 -0.276852D+00 -0.100435D+01 -0.107755D+00
     12  -0.173147D+00  0.000000D+00 -0.245165D+00  0.610249D-01 -0.920157D-01
     13  -0.856673D-01  0.000000D+00  0.533620D-01  0.141329D+00  0.257780D-01
     14   0.179844D+00  0.000000D+00  0.230263D+00  0.514146D-02  0.349904D+00
     15   0.000000D+00 -0.381728D+00  0.000000D+00  0.000000D+00  0.000000D+00
     16   0.000000D+00  0.165984D+00  0.000000D+00  0.000000D+00  0.000000D+00
               746           747 
      1  -0.149166D+03 -0.148978D+03
      2   0.169076D-01  0.192476D-01
      3   0.331633D-02  0.261054D-02
      4   0.000000D+00  0.000000D+00
      5  -0.624117D-01 -0.225274D-01
      6  -0.880883D-02 -0.806422D-02
      7   0.000000D+00  0.000000D+00
      8   0.000000D+00  0.000000D+00
      9   0.000000D+00  0.000000D+00
     10   0.206031D-01  0.475830D-01
     11  -0.705107D-01 -0.429714D+00
     12   0.672912D-01 -0.802973D-01
     13   0.618462D-01 -0.680469D-01
     14  -0.130013D+00 -0.207905D-01
     15   0.000000D+00  0.000000D+00
     16   0.000000D+00  0.000000D+00
 Unable to Open any file for archive entry.
 1\1\GINC-HEL13\SP\RM062X TD-FC\Gen\C2H4O1\SABYASACHI\21-Mar-2022\0\\#P
  TD(Nstates=10000) m062x/Gen SCF(maxcycles=100) Int(Grid=ultrafine)\\x
 GDB7_00001_tier4.com\\0,1\C,0,0.926252,-0.719055,0.\C,0,0.,0.459276,0.
 \O,0,-1.196998,0.387135,0.\H,0,1.575966,-0.668677,0.877698\H,0,1.57596
 6,-0.668677,-0.877698\H,0,0.366734,-1.652236,0.\H,0,0.499812,1.451182,
 0.\\Version=EM64L-G16RevC.01\State=1-A'\HF=-153.6487815\RMSD=8.872e-09
 \PG=CS [SG(C2H2O1),X(H2)]\\@
 The archive entry for this job was punched.


 WHEN YOU REACH FOR THE STARS, YOU MAY NOT QUITE GET ONE,
 BUT YOU WON'T COME UP WITH A HANDFUL OF MUD, EITHER.

                                         -- LEO BURNETT (AD AGENCY HEAD)
 Job cpu time:       0 days  0 hours 12 minutes  8.0 seconds.
 Elapsed time:       0 days  0 hours  1 minutes 31.3 seconds.
 File lengths (MBytes):  RWF=    719 Int=      0 D2E=      0 Chk=    165 Scr=      1
 Normal termination of Gaussian 16 at Mon Mar 21 04:06:39 2022.
