 Entering Gaussian System, Link 0=g16
 Input=000010.com
 Output=000010.log
 Initial command:
 /home/sabyasachi/g16/l1.exe "/scratch/sabyasachi/PBS_7976111.helios/Gau-31077.inp" -scrdir="/scratch/sabyasachi/PBS_7976111.helios/"
 Entering Link 1 = /home/sabyasachi/g16/l1.exe PID=     31078.
  
 Copyright (c) 1988-2019, Gaussian, Inc.  All Rights Reserved.
  
 This is part of the Gaussian(R) 16 program.  It is based on
 the Gaussian(R) 09 system (copyright 2009, Gaussian, Inc.),
 the Gaussian(R) 03 system (copyright 2003, Gaussian, Inc.),
 the Gaussian(R) 98 system (copyright 1998, Gaussian, Inc.),
 the Gaussian(R) 94 system (copyright 1995, Gaussian, Inc.),
 the Gaussian 92(TM) system (copyright 1992, Gaussian, Inc.),
 the Gaussian 90(TM) system (copyright 1990, Gaussian, Inc.),
 the Gaussian 88(TM) system (copyright 1988, Gaussian, Inc.),
 the Gaussian 86(TM) system (copyright 1986, Carnegie Mellon
 University), and the Gaussian 82(TM) system (copyright 1983,
 Carnegie Mellon University). Gaussian is a federally registered
 trademark of Gaussian, Inc.
  
 This software contains proprietary and confidential information,
 including trade secrets, belonging to Gaussian, Inc.
  
 This software is provided under written license and may be
 used, copied, transmitted, or stored only in accord with that
 written license.
  
 The following legend is applicable only to US Government
 contracts under FAR:
  
                    RESTRICTED RIGHTS LEGEND
  
 Use, reproduction and disclosure by the US Government is
 subject to restrictions as set forth in subparagraphs (a)
 and (c) of the Commercial Computer Software - Restricted
 Rights clause in FAR 52.227-19.
  
 Gaussian, Inc.
 340 Quinnipiac St., Bldg. 40, Wallingford CT 06492
  
  
 ---------------------------------------------------------------
 Warning -- This program may not be used in any manner that
 competes with the business of Gaussian, Inc. or will provide
 assistance to any competitor of Gaussian, Inc.  The licensee
 of this program is prohibited from giving any competitor of
 Gaussian, Inc. access to this program.  By using this program,
 the user acknowledges that Gaussian, Inc. is engaged in the
 business of creating and licensing software in the field of
 computational chemistry and represents and warrants to the
 licensee that it is not a competitor of Gaussian, Inc. and that
 it will not use this program in any manner prohibited above.
 ---------------------------------------------------------------
  

 Cite this work as:
 Gaussian 16, Revision C.01,
 M. J. Frisch, G. W. Trucks, H. B. Schlegel, G. E. Scuseria, 
 M. A. Robb, J. R. Cheeseman, G. Scalmani, V. Barone, 
 G. A. Petersson, H. Nakatsuji, X. Li, M. Caricato, A. V. Marenich, 
 J. Bloino, B. G. Janesko, R. Gomperts, B. Mennucci, H. P. Hratchian, 
 J. V. Ortiz, A. F. Izmaylov, J. L. Sonnenberg, D. Williams-Young, 
 F. Ding, F. Lipparini, F. Egidi, J. Goings, B. Peng, A. Petrone, 
 T. Henderson, D. Ranasinghe, V. G. Zakrzewski, J. Gao, N. Rega, 
 G. Zheng, W. Liang, M. Hada, M. Ehara, K. Toyota, R. Fukuda, 
 J. Hasegawa, M. Ishida, T. Nakajima, Y. Honda, O. Kitao, H. Nakai, 
 T. Vreven, K. Throssell, J. A. Montgomery, Jr., J. E. Peralta, 
 F. Ogliaro, M. J. Bearpark, J. J. Heyd, E. N. Brothers, K. N. Kudin, 
 V. N. Staroverov, T. A. Keith, R. Kobayashi, J. Normand, 
 K. Raghavachari, A. P. Rendell, J. C. Burant, S. S. Iyengar, 
 J. Tomasi, M. Cossi, J. M. Millam, M. Klene, C. Adamo, R. Cammi, 
 J. W. Ochterski, R. L. Martin, K. Morokuma, O. Farkas, 
 J. B. Foresman, and D. J. Fox, Gaussian, Inc., Wallingford CT, 2019.
 
 ******************************************
 Gaussian 16:  EM64L-G16RevC.01  3-Jul-2019
                21-Mar-2022 
 ******************************************
 %mem=64gb
 %nproc=8
 Will use up to    8 processors via shared memory.
 ---------------------------------------------------------------------
 #P TD(Nstates=10000) m062x/Gen SCF(maxcycles=100) Int(Grid=ultrafine)
 ---------------------------------------------------------------------
 1/38=1,172=1/1;
 2/12=2,17=6,18=5,40=1/2;
 3/5=7,11=9,25=1,30=1,74=-55,75=-5/1,2,3,8;
 4//1;
 5/5=2,7=100,38=5/2;
 8/6=1,10=1,108=10000/1;
 9/41=10000,42=1,70=2/14;
 6/7=2,8=2,9=2,10=2/1;
 99/5=1,9=1/99;
 Leave Link    1 at Mon Mar 21 20:10:20 2022, MaxMem=  8589934592 cpu:               0.4 elap:               0.1
 (Enter /home/sabyasachi/g16/l101.exe)
 ---------------------
 xGDB7_00001_tier4.com
 ---------------------
 Symbolic Z-matrix:
 Charge =  0 Multiplicity = 1
 6                     0.        0.        0.66087 
 6                     0.        0.       -0.66087 
 1                     0.        0.92259   1.22926 
 1                     0.       -0.92259   1.22926 
 1                     0.        0.92259  -1.22926 
 1                     0.       -0.92259  -1.22926 
 
 ITRead=  0  0  0  0  0  0
 MicOpt= -1 -1 -1 -1 -1 -1
 NAtoms=      6 NQM=        6 NQMF=       0 NMMI=      0 NMMIF=      0
                NMic=       0 NMicF=      0.
                    Isotopes and Nuclear Properties:
 (Nuclear quadrupole moments (NQMom) in fm**2, nuclear magnetic moments (NMagM)
  in nuclear magnetons)

  Atom         1           2           3           4           5           6
 IAtWgt=          12          12           1           1           1           1
 AtmWgt=  12.0000000  12.0000000   1.0078250   1.0078250   1.0078250   1.0078250
 NucSpn=           0           0           1           1           1           1
 AtZEff=  -0.0000000  -0.0000000  -0.0000000  -0.0000000  -0.0000000  -0.0000000
 NQMom=    0.0000000   0.0000000   0.0000000   0.0000000   0.0000000   0.0000000
 NMagM=    0.0000000   0.0000000   2.7928460   2.7928460   2.7928460   2.7928460
 AtZNuc=   6.0000000   6.0000000   1.0000000   1.0000000   1.0000000   1.0000000
 Leave Link  101 at Mon Mar 21 20:10:20 2022, MaxMem=  8589934592 cpu:               0.6 elap:               0.1
 (Enter /home/sabyasachi/g16/l202.exe)
                          Input orientation:                          
 ---------------------------------------------------------------------
 Center     Atomic      Atomic             Coordinates (Angstroms)
 Number     Number       Type             X           Y           Z
 ---------------------------------------------------------------------
      1          6           0        0.000000    0.000000    0.660866
      2          6           0        0.000000    0.000000   -0.660866
      3          1           0        0.000000    0.922586    1.229258
      4          1           0        0.000000   -0.922586    1.229258
      5          1           0        0.000000    0.922586   -1.229258
      6          1           0        0.000000   -0.922586   -1.229258
 ---------------------------------------------------------------------
                    Distance matrix (angstroms):
                    1          2          3          4          5
     1  C    0.000000
     2  C    1.321732   0.000000
     3  H    1.083621   2.103267   0.000000
     4  H    1.083621   2.103267   1.845172   0.000000
     5  H    2.103267   1.083621   2.458516   3.073916   0.000000
     6  H    2.103267   1.083621   3.073916   2.458516   1.845172
                    6
     6  H    0.000000
 Stoichiometry    C2H4
 Framework group  D2H[C2"(C.C),SG(H4)]
 Deg. of freedom     3
 Full point group                 D2H     NOp   8
 Largest Abelian subgroup         D2H     NOp   8
 Largest concise Abelian subgroup D2      NOp   4
                         Standard orientation:                         
 ---------------------------------------------------------------------
 Center     Atomic      Atomic             Coordinates (Angstroms)
 Number     Number       Type             X           Y           Z
 ---------------------------------------------------------------------
      1          6           0        0.000000    0.000000    0.660866
      2          6           0        0.000000    0.000000   -0.660866
      3          1           0        0.000000    0.922586    1.229258
      4          1           0       -0.000000   -0.922586    1.229258
      5          1           0        0.000000    0.922586   -1.229258
      6          1           0       -0.000000   -0.922586   -1.229258
 ---------------------------------------------------------------------
 Rotational constants (GHZ):         147.2849410          30.4932883          25.2629480
 Leave Link  202 at Mon Mar 21 20:10:20 2022, MaxMem=  8589934592 cpu:               0.1 elap:               0.0
 (Enter /home/sabyasachi/g16/l301.exe)
 General basis read from cards:  (5D, 7F)
 Centers:       3      4      5      6
 S 3 1.00
     Exponent=  1.3010701000D+01 Coefficients=  1.9682158000D-02
     Exponent=  1.9622572000D+00 Coefficients=  1.3796524000D-01
     Exponent=  4.4453796000D-01 Coefficients=  4.7831935000D-01
 S 1 1.00
     Exponent=  1.2194962000D-01 Coefficients=  1.0000000000D+00
 P 1 1.00
     Exponent=  8.0000000000D-01 Coefficients=  1.0000000000D+00
 P 1 1.00
     Exponent=  1.1704099050D-01 Coefficients=  1.0000000000D+00
 ****
 Centers:       1      2
 S 5 1.00
     Exponent=  1.2384016938D+03 Coefficients=  5.4568832082D-03
     Exponent=  1.8629004992D+02 Coefficients=  4.0638409211D-02
     Exponent=  4.2251176346D+01 Coefficients=  1.8025593888D-01
     Exponent=  1.1676557932D+01 Coefficients=  4.6315121755D-01
     Exponent=  3.5930506482D+00 Coefficients=  4.4087173314D-01
 S 1 1.00
     Exponent=  4.0245147363D-01 Coefficients=  1.0000000000D+00
 S 1 1.00
     Exponent=  1.3090182668D-01 Coefficients=  1.0000000000D+00
 S 1 1.00
     Exponent=  6.7053540256D-02 Coefficients=  1.0000000000D+00
 P 3 1.00
     Exponent=  9.4680970621D+00 Coefficients=  3.8387871728D-02
     Exponent=  2.0103545142D+00 Coefficients=  2.1117025112D-01
     Exponent=  5.4771004707D-01 Coefficients=  5.1328172114D-01
 P 1 1.00
     Exponent=  1.5268613795D-01 Coefficients=  1.0000000000D+00
 D 1 1.00
     Exponent=  8.0000000000D-01 Coefficients=  1.0000000000D+00
 D 1 1.00
     Exponent=  1.1713185140D-01 Coefficients=  1.0000000000D+00
 ****
 Ernie: Thresh=  0.10000D-02 Tol=  0.10000D-05 Strict=F.
 There are    18 symmetry adapted cartesian basis functions of AG  symmetry.
 There are     4 symmetry adapted cartesian basis functions of B1G symmetry.
 There are     6 symmetry adapted cartesian basis functions of B2G symmetry.
 There are    10 symmetry adapted cartesian basis functions of B3G symmetry.
 There are     4 symmetry adapted cartesian basis functions of AU  symmetry.
 There are    18 symmetry adapted cartesian basis functions of B1U symmetry.
 There are    10 symmetry adapted cartesian basis functions of B2U symmetry.
 There are     6 symmetry adapted cartesian basis functions of B3U symmetry.
 There are    16 symmetry adapted basis functions of AG  symmetry.
 There are     4 symmetry adapted basis functions of B1G symmetry.
 There are     6 symmetry adapted basis functions of B2G symmetry.
 There are    10 symmetry adapted basis functions of B3G symmetry.
 There are     4 symmetry adapted basis functions of AU  symmetry.
 There are    16 symmetry adapted basis functions of B1U symmetry.
 There are    10 symmetry adapted basis functions of B2U symmetry.
 There are     6 symmetry adapted basis functions of B3U symmetry.
    72 basis functions,   104 primitive gaussians,    76 cartesian basis functions
     8 alpha electrons        8 beta electrons
       nuclear repulsion energy        33.5201042511 Hartrees.
 IExCor= 4336 DFT=T Ex+Corr=M062X ExCW=0 ScaHFX=  0.540000
 ScaDFX=  1.000000  1.000000  1.000000  1.000000 ScalE2=  1.000000  1.000000
 IRadAn=      5 IRanWt=     -1 IRanGd=            0 ICorTp=0 IEmpDi=  4
 NAtoms=    6 NActive=    6 NUniq=    2 SFac= 4.00D+00 NAtFMM=   60 NAOKFM=F Big=F
 Integral buffers will be    131072 words long.
 Regular integral format.
 Two-electron integral symmetry is turned on.
 Leave Link  301 at Mon Mar 21 20:10:20 2022, MaxMem=  8589934592 cpu:               0.5 elap:               0.1
 (Enter /home/sabyasachi/g16/l302.exe)
 NPDir=0 NMtPBC=     1 NCelOv=     1 NCel=       1 NClECP=     1 NCelD=      1
         NCelK=      1 NCelE2=     1 NClLst=     1 CellRange=     0.0.
 One-electron integrals computed using PRISM.
 One-electron integral symmetry used in STVInt
 NBasis=    72 RedAO= T EigKep=  8.68D-05  NBF=    16     4     6    10     4    16    10     6
 NBsUse=    72 1.00D-06 EigRej= -1.00D+00 NBFU=    16     4     6    10     4    16    10     6
 Precomputing XC quadrature grid using
 IXCGrd= 4 IRadAn=           5 IRanWt=          -1 IRanGd=           0 AccXCQ= 0.00D+00.
 Generated NRdTot=       0 NPtTot=           0 NUsed=           0 NTot=          32
 NSgBfM=    76    76    76    76    76 MxSgAt=     6 MxSgA2=     6.
 Leave Link  302 at Mon Mar 21 20:10:20 2022, MaxMem=  8589934592 cpu:               1.0 elap:               0.1
 (Enter /home/sabyasachi/g16/l303.exe)
 DipDrv:  MaxL=1.
 Leave Link  303 at Mon Mar 21 20:10:20 2022, MaxMem=  8589934592 cpu:               0.2 elap:               0.0
 (Enter /home/sabyasachi/g16/l308.exe)
 Leave Link  308 at Mon Mar 21 20:10:20 2022, MaxMem=  8589934592 cpu:               0.2 elap:               0.0
 (Enter /home/sabyasachi/g16/l401.exe)
 ExpMin= 6.71D-02 ExpMax= 1.24D+03 ExpMxC= 1.86D+02 IAcc=3 IRadAn=         5 AccDes= 0.00D+00
 Harris functional with IExCor= 1009 and IRadAn=       5 diagonalized for initial guess.
 HarFok:  IExCor= 1009 AccDes= 0.00D+00 IRadAn=         5 IDoV= 1 UseB2=F ITyADJ=14
 ICtDFT=  3500011 ScaDFX=  1.000000  1.000000  1.000000  1.000000
 FoFCou: FMM=F IPFlag=           0 FMFlag=      100000 FMFlg1=           0
         NFxFlg=           0 DoJE=T BraDBF=F KetDBF=T FulRan=T
         wScrn=  0.000000 ICntrl=       500 IOpCl=  0 I1Cent=   200000004 NGrid=           0
         NMat0=    1 NMatS0=      1 NMatT0=    0 NMatD0=    1 NMtDS0=    0 NMtDT0=    0
 Petite list used in FoFCou.
 Harris En= -78.4877733314639    
 JPrj=0 DoOrth=F DoCkMO=F.
 Initial guess orbital symmetries:
       Occupied  (AG) (B1U) (AG) (B1U) (B2U) (AG) (B3G) (B3U)
       Virtual   (B2G) (AG) (B2U) (B1U) (AG) (B3G) (AG) (B3U) (B1G)
                 (B1U) (B2U) (B2G) (B1U) (AU) (AG) (B2U) (B3U)
                 (B1U) (B3G) (B1U) (AG) (B3G) (B2U) (AG) (B1G)
                 (B1U) (B2G) (B1U) (AU) (B3G) (AG) (B3U) (B3G)
                 (B2G) (B2U) (AG) (B1U) (B1U) (AG) (B2U) (B1U)
                 (B3G) (B3U) (B1G) (AU) (B2U) (AG) (B2G) (AG) (B2U)
                 (B1U) (B3U) (B3G) (B1G) (B3G) (B1U) (AU) (AG)
                 (B2G) (AG) (B2U) (B1U) (B1U) (B3G)
 The electronic state of the initial guess is 1-AG.
 Leave Link  401 at Mon Mar 21 20:10:20 2022, MaxMem=  8589934592 cpu:               1.2 elap:               0.2
 (Enter /home/sabyasachi/g16/l502.exe)
 Keep R1 ints in memory in symmetry-blocked form, NReq=10684434.
 FoFCou: FMM=F IPFlag=           0 FMFlag=           0 FMFlg1=           0
         NFxFlg=           0 DoJE=F BraDBF=F KetDBF=F FulRan=T
         wScrn=  0.000000 ICntrl=       600 IOpCl=  0 I1Cent=           0 NGrid=           0
         NMat0=    1 NMatS0=   2628 NMatT0=    0 NMatD0=    1 NMtDS0=    0 NMtDT0=    0
 Petite list used in FoFCou.
 Closed shell SCF:
 Using DIIS extrapolation, IDIIS=  1040.
 NGot=  8589934592 LenX=  8589457632 LenY=  8589451415
 Requested convergence on RMS density matrix=1.00D-08 within 100 cycles.
 Requested convergence on MAX density matrix=1.00D-06.
 Requested convergence on             energy=1.00D-06.
 No special actions if energy rises.
 Integral accuracy reduced to 1.0D-05 until final iterations.

 Cycle   1  Pass 0  IDiag  1:
 E= -78.3990944810978    
 DIIS: error= 4.07D-02 at cycle   1 NSaved=   1.
 NSaved= 1 IEnMin= 1 EnMin= -78.3990944810978     IErMin= 1 ErrMin= 4.07D-02
 ErrMax= 4.07D-02  0.00D+00 EMaxC= 1.00D-01 BMatC= 7.39D-02 BMatP= 7.39D-02
 IDIUse=3 WtCom= 5.93D-01 WtEn= 4.07D-01
 Coeff-Com:  0.100D+01
 Coeff-En:   0.100D+01
 Coeff:      0.100D+01
 Gap=     0.305 Goal=   None    Shift=    0.000
 GapD=    0.305 DampG=1.000 DampE=0.500 DampFc=0.5000 IDamp=-1.
 Damping current iteration by 5.00D-01
 RMSDP=8.22D-03 MaxDP=1.24D-01              OVMax= 1.55D-01

 Cycle   2  Pass 0  IDiag  1:
 E= -78.4437369776030     Delta-E=       -0.044642496505 Rises=F Damp=T
 DIIS: error= 8.49D-03 at cycle   2 NSaved=   2.
 NSaved= 2 IEnMin= 2 EnMin= -78.4437369776030     IErMin= 2 ErrMin= 8.49D-03
 ErrMax= 8.49D-03  0.00D+00 EMaxC= 1.00D-01 BMatC= 3.02D-03 BMatP= 7.39D-02
 IDIUse=3 WtCom= 9.15D-01 WtEn= 8.49D-02
 Coeff-Com: -0.134D+00 0.113D+01
 Coeff-En:   0.000D+00 0.100D+01
 Coeff:     -0.122D+00 0.112D+01
 Gap=     0.387 Goal=   None    Shift=    0.000
 RMSDP=1.52D-03 MaxDP=2.10D-02 DE=-4.46D-02 OVMax= 6.80D-02

 Cycle   3  Pass 0  IDiag  1:
 E= -78.4829227740129     Delta-E=       -0.039185796410 Rises=F Damp=F
 DIIS: error= 1.28D-03 at cycle   3 NSaved=   3.
 NSaved= 3 IEnMin= 3 EnMin= -78.4829227740129     IErMin= 3 ErrMin= 1.28D-03
 ErrMax= 1.28D-03  0.00D+00 EMaxC= 1.00D-01 BMatC= 3.10D-05 BMatP= 3.02D-03
 IDIUse=3 WtCom= 9.87D-01 WtEn= 1.28D-02
 Coeff-Com: -0.170D-01 0.456D-01 0.971D+00
 Coeff-En:   0.000D+00 0.000D+00 0.100D+01
 Coeff:     -0.168D-01 0.450D-01 0.972D+00
 Gap=     0.376 Goal=   None    Shift=    0.000
 RMSDP=2.75D-04 MaxDP=4.66D-03 DE=-3.92D-02 OVMax= 2.85D-03

 Cycle   4  Pass 0  IDiag  1:
 E= -78.4829545203781     Delta-E=       -0.000031746365 Rises=F Damp=F
 DIIS: error= 1.79D-04 at cycle   4 NSaved=   4.
 NSaved= 4 IEnMin= 4 EnMin= -78.4829545203781     IErMin= 4 ErrMin= 1.79D-04
 ErrMax= 1.79D-04  0.00D+00 EMaxC= 1.00D-01 BMatC= 8.46D-07 BMatP= 3.10D-05
 IDIUse=3 WtCom= 9.98D-01 WtEn= 1.79D-03
 Coeff-Com: -0.104D-02-0.143D-02 0.127D+00 0.875D+00
 Coeff-En:   0.000D+00 0.000D+00 0.000D+00 0.100D+01
 Coeff:     -0.104D-02-0.142D-02 0.127D+00 0.876D+00
 Gap=     0.376 Goal=   None    Shift=    0.000
 RMSDP=3.22D-05 MaxDP=6.10D-04 DE=-3.17D-05 OVMax= 3.96D-04

 Cycle   5  Pass 0  IDiag  1:
 E= -78.4829554941336     Delta-E=       -0.000000973756 Rises=F Damp=F
 DIIS: error= 2.89D-05 at cycle   5 NSaved=   5.
 NSaved= 5 IEnMin= 5 EnMin= -78.4829554941336     IErMin= 5 ErrMin= 2.89D-05
 ErrMax= 2.89D-05  0.00D+00 EMaxC= 1.00D-01 BMatC= 1.67D-08 BMatP= 8.46D-07
 IDIUse=1 WtCom= 1.00D+00 WtEn= 0.00D+00
 Coeff-Com:  0.664D-03-0.113D-02-0.354D-01-0.803D-01 0.112D+01
 Coeff:      0.664D-03-0.113D-02-0.354D-01-0.803D-01 0.112D+01
 Gap=     0.376 Goal=   None    Shift=    0.000
 RMSDP=7.31D-06 MaxDP=8.00D-05 DE=-9.74D-07 OVMax= 9.40D-05

 Initial convergence to 1.0D-05 achieved.  Increase integral accuracy.
 Cycle   6  Pass 1  IDiag  1:
 E= -78.4829565814153     Delta-E=       -0.000001087282 Rises=F Damp=F
 DIIS: error= 1.50D-05 at cycle   1 NSaved=   1.
 NSaved= 1 IEnMin= 1 EnMin= -78.4829565814153     IErMin= 1 ErrMin= 1.50D-05
 ErrMax= 1.50D-05  0.00D+00 EMaxC= 1.00D-01 BMatC= 1.05D-08 BMatP= 1.05D-08
 IDIUse=1 WtCom= 1.00D+00 WtEn= 0.00D+00
 Coeff-Com:  0.100D+01
 Coeff:      0.100D+01
 Gap=     0.376 Goal=   None    Shift=    0.000
 RMSDP=7.31D-06 MaxDP=8.00D-05 DE=-1.09D-06 OVMax= 2.86D-05

 Cycle   7  Pass 1  IDiag  1:
 E= -78.4829565923865     Delta-E=       -0.000000010971 Rises=F Damp=F
 DIIS: error= 2.28D-06 at cycle   2 NSaved=   2.
 NSaved= 2 IEnMin= 2 EnMin= -78.4829565923865     IErMin= 2 ErrMin= 2.28D-06
 ErrMax= 2.28D-06  0.00D+00 EMaxC= 1.00D-01 BMatC= 1.23D-10 BMatP= 1.05D-08
 IDIUse=1 WtCom= 1.00D+00 WtEn= 0.00D+00
 Coeff-Com: -0.572D-01 0.106D+01
 Coeff:     -0.572D-01 0.106D+01
 Gap=     0.376 Goal=   None    Shift=    0.000
 RMSDP=1.00D-06 MaxDP=1.11D-05 DE=-1.10D-08 OVMax= 6.30D-06

 Cycle   8  Pass 1  IDiag  1:
 E= -78.4829565925854     Delta-E=       -0.000000000199 Rises=F Damp=F
 DIIS: error= 4.65D-07 at cycle   3 NSaved=   3.
 NSaved= 3 IEnMin= 3 EnMin= -78.4829565925854     IErMin= 3 ErrMin= 4.65D-07
 ErrMax= 4.65D-07  0.00D+00 EMaxC= 1.00D-01 BMatC= 3.43D-12 BMatP= 1.23D-10
 IDIUse=1 WtCom= 1.00D+00 WtEn= 0.00D+00
 Coeff-Com: -0.110D-01 0.402D-01 0.971D+00
 Coeff:     -0.110D-01 0.402D-01 0.971D+00
 Gap=     0.376 Goal=   None    Shift=    0.000
 RMSDP=8.95D-08 MaxDP=1.47D-06 DE=-1.99D-10 OVMax= 1.43D-06

 Cycle   9  Pass 1  IDiag  1:
 E= -78.4829565925915     Delta-E=       -0.000000000006 Rises=F Damp=F
 DIIS: error= 1.34D-07 at cycle   4 NSaved=   4.
 NSaved= 4 IEnMin= 4 EnMin= -78.4829565925915     IErMin= 4 ErrMin= 1.34D-07
 ErrMax= 1.34D-07  0.00D+00 EMaxC= 1.00D-01 BMatC= 4.32D-13 BMatP= 3.43D-12
 IDIUse=1 WtCom= 1.00D+00 WtEn= 0.00D+00
 Coeff-Com:  0.538D-03-0.314D-01 0.194D+00 0.837D+00
 Coeff:      0.538D-03-0.314D-01 0.194D+00 0.837D+00
 Gap=     0.376 Goal=   None    Shift=    0.000
 RMSDP=1.45D-08 MaxDP=1.84D-07 DE=-6.14D-12 OVMax= 3.68D-07

 Cycle  10  Pass 1  IDiag  1:
 E= -78.4829565925920     Delta-E=       -0.000000000000 Rises=F Damp=F
 DIIS: error= 3.75D-08 at cycle   5 NSaved=   5.
 NSaved= 5 IEnMin= 5 EnMin= -78.4829565925920     IErMin= 5 ErrMin= 3.75D-08
 ErrMax= 3.75D-08  0.00D+00 EMaxC= 1.00D-01 BMatC= 5.56D-14 BMatP= 4.32D-13
 IDIUse=1 WtCom= 1.00D+00 WtEn= 0.00D+00
 Coeff-Com:  0.981D-03-0.139D-01-0.422D-02 0.298D+00 0.719D+00
 Coeff:      0.981D-03-0.139D-01-0.422D-02 0.298D+00 0.719D+00
 Gap=     0.376 Goal=   None    Shift=    0.000
 RMSDP=4.80D-09 MaxDP=7.84D-08 DE=-4.55D-13 OVMax= 9.59D-08

 SCF Done:  E(RM062X) =  -78.4829565926     A.U. after   10 cycles
            NFock= 10  Conv=0.48D-08     -V/T= 2.0119
 KE= 7.756195151720D+01 PE=-2.479631626291D+02 EE= 5.839815026822D+01
 Leave Link  502 at Mon Mar 21 20:10:21 2022, MaxMem=  8589934592 cpu:               3.8 elap:               0.5
 (Enter /home/sabyasachi/g16/l801.exe)
 DoSCS=F DFT=T ScalE2(SS,OS)=  1.000000  1.000000
 ExpMin= 6.71D-02 ExpMax= 1.24D+03 ExpMxC= 1.86D+02 IAcc=3 IRadAn=         5 AccDes= 0.00D+00
 HarFok:  IExCor=  205 AccDes= 0.00D+00 IRadAn=         5 IDoV=-2 UseB2=F ITyADJ=14
 ICtDFT= 12500011 ScaDFX=  1.000000  1.000000  1.000000  1.000000
 Largest valence mixing into a core orbital is  9.42D-05
 Largest core mixing into a valence orbital is  3.15D-05
 Range of M.O.s used for correlation:     3    72
 NBasis=    72 NAE=     8 NBE=     8 NFC=     2 NFV=     0
 NROrb=     70 NOA=     6 NOB=     6 NVA=    64 NVB=    64

 **** Warning!!: The largest alpha MO coefficient is  0.34837743D+02

 Leave Link  801 at Mon Mar 21 20:10:21 2022, MaxMem=  8589934592 cpu:               0.5 elap:               0.1
 (Enter /home/sabyasachi/g16/l914.exe)
 RHF ground state
 Keep R1, R2, and R3 ints in memory in symmetry-blocked form, NReq=205716926.
 FoFCou: FMM=F IPFlag=           0 FMFlag=           0 FMFlg1=           0
         NFxFlg=           0 DoJE=F BraDBF=F KetDBF=F FulRan=T
         wScrn=  0.000000 ICntrl=       600 IOpCl=  0 I1Cent=           0 NGrid=           0
         NMat0=    1 NMatS0=   2628 NMatT0=    0 NMatD0=    1 NMtDS0=    0 NMtDT0=    0
 Petite list used in FoFCou.
 MDV=  8589934592 DFT=T DoStab=F Mixed=T DoRPA=T DoScal=F NonHer=T
 Making orbital integer symmetry assigments:
 Orbital symmetries:
       Occupied  (AG) (B1U) (AG) (B1U) (B2U) (AG) (B3G) (B3U)
       Virtual   (B2G) (AG) (B1U) (B2U) (AG) (B3G) (AG) (B3U) (B1G)
                 (B1U) (B2U) (B1U) (AU) (B2G) (AG) (B2U) (B3G)
                 (B1U) (B3U) (AG) (B2U) (AG) (B1G) (B3G) (B1U)
                 (B2G) (B1U) (AU) (B1U) (B3G) (AG) (B3U) (B2G)
                 (B3G) (B2U) (AG) (B1U) (B2U) (AG) (B1U) (B1U)
                 (B3G) (B1G) (B3U) (AU) (B2U) (B2G) (AG) (B3G)
                 (AG) (B1U) (B2U) (B3U) (B1G) (B3G) (B1U) (AU)
                 (AG) (B2G) (AG) (B2U) (B1U) (B1U) (B3G)
   384 initial guesses have been made.
 Convergence on wavefunction:    0.001000000000000
 Davidson Disk Diagonalization:  ConvIn= 1.00D-03 SkipCon=T Conv= 1.00D-03.
 Max sub-space:  2304 roots to seek:   768 dimension of matrix:          768
 *** WARNING: Number of orthogonal guesses is          384
 Iteration     1 Dimension   384 NMult     0 NNew    384
 CISAX will form   384 AO SS matrices at one time.
 NMat=   384 NSing=   384 JSym2X=-1.
 New state      1 was old state      2
 New state      2 was old state      1
 New state      3 was old state      4
 New state      4 was old state      3
 New state      6 was old state     10
 New state      7 was old state      6
 New state      9 was old state      7
 New state     10 was old state      9
 New state     11 was old state     21
 New state     12 was old state     11
 New state     14 was old state     15
 New state     15 was old state     14
 New state     16 was old state     12
 New state     18 was old state     19
 New state     19 was old state     18
 New state     20 was old state     16
 New state     21 was old state     23
 New state     22 was old state     25
 New state     23 was old state     22
 New state     24 was old state     26
 New state     25 was old state     20
 New state     26 was old state     29
 New state     29 was old state     30
 New state     30 was old state     24
 New state     31 was old state     32
 New state     32 was old state     31
 New state     35 was old state     36
 New state     36 was old state     37
 New state     37 was old state     38
 New state     38 was old state     41
 New state     40 was old state     44
 New state     41 was old state     42
 New state     42 was old state     48
 New state     43 was old state     40
 New state     44 was old state     35
 New state     45 was old state     50
 New state     46 was old state     43
 New state     47 was old state     53
 New state     48 was old state     49
 New state     49 was old state     45
 New state     50 was old state     47
 New state     51 was old state     52
 New state     52 was old state     46
 New state     53 was old state     54
 New state     54 was old state     55
 New state     55 was old state     51
 New state     58 was old state     62
 New state     59 was old state     60
 New state     60 was old state     59
 New state     61 was old state     64
 New state     62 was old state     58
 New state     63 was old state     65
 New state     64 was old state     63
 New state     65 was old state     61
 New state     66 was old state     71
 New state     67 was old state     72
 New state     68 was old state     73
 New state     69 was old state     68
 New state     70 was old state     69
 New state     71 was old state     66
 New state     72 was old state     70
 New state     73 was old state     67
 New state     75 was old state     78
 New state     78 was old state     80
 New state     80 was old state     75
 New state     81 was old state     97
 New state     82 was old state     81
 New state     83 was old state     82
 New state     84 was old state     83
 New state     86 was old state     91
 New state     89 was old state     84
 New state     90 was old state     86
 New state     91 was old state     90
 New state     94 was old state     95
 New state     95 was old state     89
 New state     96 was old state     94
 New state     97 was old state     99
 New state     99 was old state     96
 New state    100 was old state    101
 New state    101 was old state    100
 New state    103 was old state    104
 New state    104 was old state    107
 New state    105 was old state    106
 New state    106 was old state    116
 New state    107 was old state    103
 New state    108 was old state    112
 New state    109 was old state    114
 New state    110 was old state    111
 New state    111 was old state    105
 New state    112 was old state    113
 New state    113 was old state    115
 New state    114 was old state    108
 New state    115 was old state    110
 New state    116 was old state    117
 New state    117 was old state    109
 New state    120 was old state    121
 New state    121 was old state    120
 New state    123 was old state    127
 New state    124 was old state    125
 New state    125 was old state    123
 New state    126 was old state    124
 New state    127 was old state    126
 New state    129 was old state    131
 New state    130 was old state    132
 New state    131 was old state    133
 New state    132 was old state    135
 New state    133 was old state    129
 New state    134 was old state    130
 New state    135 was old state    137
 New state    137 was old state    134
 New state    140 was old state    141
 New state    141 was old state    140
 New state    142 was old state    143
 New state    143 was old state    142
 New state    144 was old state    146
 New state    145 was old state    147
 New state    146 was old state    145
 New state    147 was old state    144
 New state    148 was old state    149
 New state    149 was old state    148
 New state    151 was old state    153
 New state    152 was old state    151
 New state    153 was old state    152
 New state    154 was old state    155
 New state    155 was old state    154
 New state    156 was old state    159
 New state    157 was old state    161
 New state    159 was old state    156
 New state    160 was old state    162
 New state    161 was old state    157
 New state    162 was old state    160
 New state    163 was old state    166
 New state    165 was old state    163
 New state    166 was old state    165
 New state    167 was old state    175
 New state    168 was old state    167
 New state    170 was old state    171
 New state    171 was old state    170
 New state    172 was old state    177
 New state    173 was old state    168
 New state    174 was old state    181
 New state    175 was old state    174
 New state    176 was old state    173
 New state    177 was old state    172
 New state    178 was old state    179
 New state    179 was old state    186
 New state    180 was old state    176
 New state    181 was old state    178
 New state    182 was old state    180
 New state    183 was old state    189
 New state    185 was old state    182
 New state    186 was old state    183
 New state    187 was old state    185
 New state    189 was old state    193
 New state    190 was old state    187
 New state    192 was old state    195
 New state    193 was old state    190
 New state    194 was old state    192
 New state    195 was old state    196
 New state    196 was old state    194
 New state    197 was old state    199
 New state    198 was old state    197
 New state    199 was old state    198
 New state    201 was old state    206
 New state    203 was old state    205
 New state    205 was old state    203
 New state    206 was old state    201
 New state    208 was old state    209
 New state    209 was old state    208
 New state    211 was old state    212
 New state    212 was old state    214
 New state    213 was old state    211
 New state    214 was old state    217
 New state    217 was old state    213
 New state    218 was old state    220
 New state    219 was old state    218
 New state    220 was old state    219
 New state    222 was old state    223
 New state    223 was old state    225
 New state    224 was old state    222
 New state    225 was old state    224
 New state    227 was old state    230
 New state    228 was old state    231
 New state    229 was old state    227
 New state    230 was old state    228
 New state    231 was old state    229
 New state    234 was old state    238
 New state    235 was old state    234
 New state    237 was old state    239
 New state    238 was old state    241
 New state    239 was old state    237
 New state    240 was old state    243
 New state    241 was old state    235
 New state    242 was old state    240
 New state    243 was old state    242
 New state    245 was old state    247
 New state    246 was old state    245
 New state    247 was old state    246
 New state    249 was old state    250
 New state    250 was old state    249
 New state    254 was old state    259
 New state    255 was old state    254
 New state    256 was old state    255
 New state    257 was old state    256
 New state    258 was old state    257
 New state    259 was old state    258
 New state    261 was old state    263
 New state    262 was old state    261
 New state    263 was old state    264
 New state    264 was old state    265
 New state    265 was old state    266
 New state    266 was old state    267
 New state    267 was old state    262
 New state    268 was old state    269
 New state    269 was old state    268
 New state    274 was old state    278
 New state    275 was old state    280
 New state    276 was old state    274
 New state    277 was old state    282
 New state    278 was old state    275
 New state    279 was old state    283
 New state    280 was old state    284
 New state    281 was old state    279
 New state    282 was old state    276
 New state    283 was old state    277
 New state    284 was old state    281
 New state    287 was old state    288
 New state    288 was old state    290
 New state    289 was old state    291
 New state    290 was old state    289
 New state    291 was old state    287
 New state    292 was old state    295
 New state    293 was old state    292
 New state    295 was old state    298
 New state    296 was old state    297
 New state    297 was old state    293
 New state    298 was old state    299
 New state    299 was old state    296
 New state    301 was old state    302
 New state    302 was old state    305
 New state    303 was old state    301
 New state    305 was old state    303
 New state    313 was old state    316
 New state    314 was old state    313
 New state    315 was old state    314
 New state    316 was old state    315
 New state    321 was old state    324
 New state    322 was old state    321
 New state    323 was old state    322
 New state    324 was old state    325
 New state    325 was old state    326
 New state    326 was old state    323
 New state    327 was old state    328
 New state    328 was old state    330
 New state    329 was old state    327
 New state    330 was old state    329
 New state    332 was old state    333
 New state    333 was old state    332
 New state    334 was old state    335
 New state    335 was old state    334
 New state    340 was old state    341
 New state    341 was old state    340
 New state    342 was old state    343
 New state    343 was old state    345
 New state    344 was old state    342
 New state    345 was old state    344
 New state    351 was old state    354
 New state    352 was old state    353
 New state    353 was old state    352
 New state    354 was old state    351
 New state    355 was old state    356
 New state    356 was old state    355
 New state    357 was old state    358
 New state    358 was old state    357
 New state    359 was old state    360
 New state    360 was old state    359
 New state    361 was old state    362
 New state    362 was old state    361
 New state    365 was old state    366
 New state    366 was old state    365
 Excitation Energies [eV] at current iteration:
 Root      1 :     7.722930805379822
 Root      2 :     7.910443078807170
 Root      3 :     7.982887571883417
 Root      4 :     8.444655112379321
 Root      5 :     9.241364264591079
 Root      6 :     9.375199368141118
 Root      7 :     9.840997486259411
 Root      8 :    10.241279938028930
 Root      9 :    10.551149224215070
 Root     10 :    10.780205657842510
 Root     11 :    11.310904664854600
 Root     12 :    11.379814819576300
 Root     13 :    11.609468657813050
 Root     14 :    11.713208429428480
 Root     15 :    11.725877143828120
 Root     16 :    11.988456648480600
 Root     17 :    12.192902689162340
 Root     18 :    12.210819316932290
 Root     19 :    12.385684271074030
 Root     20 :    12.476530090196950
 Root     21 :    13.204231294228520
 Root     22 :    13.316385029295770
 Root     23 :    13.390744303031850
 Root     24 :    13.471733002690390
 Root     25 :    13.546498624568570
 Root     26 :    13.651548911415210
 Root     27 :    13.951063720522720
 Root     28 :    14.090498143453810
 Root     29 :    14.156345870235510
 Root     30 :    14.191976910446460
 Root     31 :    14.216327873502030
 Root     32 :    14.660871348393250
 Root     33 :    14.790326824529710
 Root     34 :    14.851465802743940
 Root     35 :    14.971536820801380
 Root     36 :    15.008790939637620
 Root     37 :    15.321442578354380
 Root     38 :    15.364120104727440
 Root     39 :    15.627225757109430
 Root     40 :    15.693067694783150
 Root     41 :    15.703168765592770
 Root     42 :    15.747893510594550
 Root     43 :    15.962600763829900
 Root     44 :    15.993800395095510
 Root     45 :    16.132204893929710
 Root     46 :    16.252784067975810
 Root     47 :    16.268325030242850
 Root     48 :    16.294717596826090
 Root     49 :    16.588368027995150
 Root     50 :    16.594625150113440
 Root     51 :    16.702286549057350
 Root     52 :    16.849664235315600
 Root     53 :    16.891555365831490
 Root     54 :    17.197201269331170
 Root     55 :    17.296199055061880
 Root     56 :    17.363889398497660
 Root     57 :    17.374511694845970
 Root     58 :    17.374609958871590
 Root     59 :    17.819291630096610
 Root     60 :    17.846242732288310
 Root     61 :    17.926418932071860
 Root     62 :    17.944020789351050
 Root     63 :    18.011454166759870
 Root     64 :    18.012016991465690
 Root     65 :    18.020306032659120
 Root     66 :    18.236586390661420
 Root     67 :    18.347024804534130
 Root     68 :    18.357199147608820
 Root     69 :    18.362526984628760
 Root     70 :    18.435424700458740
 Root     71 :    18.490939389967310
 Root     72 :    18.691047182055400
 Root     73 :    18.876308156540260
 Root     74 :    18.957956459117600
 Root     75 :    19.279031093053640
 Root     76 :    19.280186664646450
 Root     77 :    19.326061593369800
 Root     78 :    19.370292188756690
 Root     79 :    19.611980979221690
 Root     80 :    19.641237087268060
 Root     81 :    19.767274511550940
 Root     82 :    19.771556243622190
 Root     83 :    19.859135838611380
 Root     84 :    19.990072836502450
 Root     85 :    20.180645500645040
 Root     86 :    20.260518286878400
 Root     87 :    20.352189409342530
 Root     88 :    20.393145605675180
 Root     89 :    20.424525474541190
 Root     90 :    20.592298910543880
 Root     91 :    20.606105275204650
 Root     92 :    20.632722300397070
 Root     93 :    20.891800448466900
 Root     94 :    20.967884190628360
 Root     95 :    20.984789607897450
 Root     96 :    21.088778848869640
 Root     97 :    21.247075733834620
 Root     98 :    21.349225759931380
 Root     99 :    21.361830275146540
 Root    100 :    21.609186866644490
 Root    101 :    21.783731629271520
 Root    102 :    21.811084574514130
 Root    103 :    21.993687904364300
 Root    104 :    21.995127102237220
 Root    105 :    22.166645166925010
 Root    106 :    22.241102968827440
 Root    107 :    22.241513278618530
 Root    108 :    22.339426052860470
 Root    109 :    22.352598495650070
 Root    110 :    22.425898501873180
 Root    111 :    22.426028760143740
 Root    112 :    22.548751877717090
 Root    113 :    22.573136907133250
 Root    114 :    22.581410987528590
 Root    115 :    22.698005030309670
 Root    116 :    22.892907354317150
 Root    117 :    22.937965906016550
 Root    118 :    23.175672402038220
 Root    119 :    23.262751743151730
 Root    120 :    23.337002111996430
 Root    121 :    23.607048542229670
 Root    122 :    23.761553260636260
 Root    123 :    24.087277612647030
 Root    124 :    24.121980879834470
 Root    125 :    24.146269940469780
 Root    126 :    24.193155717165690
 Root    127 :    24.209589267827970
 Root    128 :    24.386466443162030
 Root    129 :    24.682628772414930
 Root    130 :    24.788518705384070
 Root    131 :    24.828298032138200
 Root    132 :    24.922781092875370
 Root    133 :    24.945416276842490
 Root    134 :    25.013406912245680
 Root    135 :    25.093441705666270
 Root    136 :    25.152660204071830
 Root    137 :    25.158447907374620
 Root    138 :    25.253610953707790
 Root    139 :    25.389151110796490
 Root    140 :    25.590416691219930
 Root    141 :    25.701558893410360
 Root    142 :    25.878146908569430
 Root    143 :    25.893433310507980
 Root    144 :    25.949851699497700
 Root    145 :    26.294671972804820
 Root    146 :    26.369714521682190
 Root    147 :    26.434200631016000
 Root    148 :    26.871677459420540
 Root    149 :    26.969872027790960
 Root    150 :    27.118761964422820
 Root    151 :    27.148761482137300
 Root    152 :    27.172000098693950
 Root    153 :    27.216834335025510
 Root    154 :    27.493545410680640
 Root    155 :    27.650989340638550
 Root    156 :    27.745245031871840
 Root    157 :    27.810569074891160
 Root    158 :    27.857969766200160
 Root    159 :    27.879643178614340
 Root    160 :    28.134609729781960
 Root    161 :    28.170324460692920
 Root    162 :    28.192055430939750
 Root    163 :    28.365355567964090
 Root    164 :    29.036210880049830
 Root    165 :    29.089748286133390
 Root    166 :    29.263820821057490
 Root    167 :    29.856000975037750
 Root    168 :    30.077869827511550
 Root    169 :    30.272802602280090
 Root    170 :    30.286095984243700
 Root    171 :    30.296748021258110
 Root    172 :    30.304588686346270
 Root    173 :    30.580369546313180
 Root    174 :    30.704268381979420
 Root    175 :    30.831145092035350
 Root    176 :    30.903469847158790
 Root    177 :    30.997654692564930
 Root    178 :    31.102527599570010
 Root    179 :    31.302505390622300
 Root    180 :    31.635177070715140
 Root    181 :    31.852479892912230
 Root    182 :    32.172997001077090
 Root    183 :    32.368385012204300
 Root    184 :    32.387985963963840
 Root    185 :    32.412011369659350
 Root    186 :    32.465053998318280
 Root    187 :    32.509227171373970
 Root    188 :    32.893963555085760
 Root    189 :    33.224945967035000
 Root    190 :    33.286771008281440
 Root    191 :    33.518998534967190
 Root    192 :    33.640993496411650
 Root    193 :    34.120768142213730
 Root    194 :    34.307539054028750
 Root    195 :    34.515219523257780
 Root    196 :    34.721261847143460
 Root    197 :    34.885755173406780
 Root    198 :    35.069882387989340
 Root    199 :    35.152776615244210
 Root    200 :    35.392329704753930
 Root    201 :    35.394596353017430
 Root    202 :    35.561093131392040
 Root    203 :    35.596513331230450
 Root    204 :    35.862194895362320
 Root    205 :    36.321587399128760
 Root    206 :    36.367134215093910
 Root    207 :    36.744696865249960
 Root    208 :    36.882684363178530
 Root    209 :    37.324909137380000
 Root    210 :    37.656430179110690
 Root    211 :    37.800299244532320
 Root    212 :    37.922849512317590
 Root    213 :    38.232649913838690
 Root    214 :    38.495048519854390
 Root    215 :    38.625531561956720
 Root    216 :    38.651374220539350
 Root    217 :    38.992774083330290
 Root    218 :    39.230128184237780
 Root    219 :    39.439344030021290
 Root    220 :    39.569490607571960
 Root    221 :    39.846287529026750
 Root    222 :    39.895258095676940
 Root    223 :    40.016905854547170
 Root    224 :    40.382224178189190
 Root    225 :    40.390446600850330
 Root    226 :    41.059779171066390
 Root    227 :    41.184159978641890
 Root    228 :    41.366417259723470
 Root    229 :    41.575800148013850
 Root    230 :    42.028853298605090
 Root    231 :    42.156382787473740
 Root    232 :    42.909342669225690
 Root    233 :    43.173236717026100
 Root    234 :    43.652329676794040
 Root    235 :    44.174650081338680
 Root    236 :    44.333374714227840
 Root    237 :    44.395892767842060
 Root    238 :    44.648457896214080
 Root    239 :    44.759712986116390
 Root    240 :    44.799609593917150
 Root    241 :    44.914687095991170
 Root    242 :    44.987044685867330
 Root    243 :    45.234122915614740
 Root    244 :    45.406325952363200
 Root    245 :    46.447870879158960
 Root    246 :    46.941821038178980
 Root    247 :    47.026739253663360
 Root    248 :    47.335629676414110
 Root    249 :    47.563780735614300
 Root    250 :    47.707318433322840
 Root    251 :    47.927380676288170
 Root    252 :    48.752679136643170
 Root    253 :    49.340654449954810
 Root    254 :    49.571555865159430
 Root    255 :    49.595253022160070
 Root    256 :    49.764805650119430
 Root    257 :    50.315822297911380
 Root    258 :    50.330722475761330
 Root    259 :    50.685673700551180
 Root    260 :    52.008627204102140
 Root    261 :    52.183850682533870
 Root    262 :    52.746859007310060
 Root    263 :    53.154836922042820
 Root    264 :    53.403796138014630
 Root    265 :    53.702646271462390
 Root    266 :    53.720568726855650
 Root    267 :    53.894236350319700
 Root    268 :    55.027011275960260
 Root    269 :    55.125614056681660
 Root    270 :    55.614631790688370
 Root    271 :    55.947194129053680
 Root    272 :    56.310861137824770
 Root    273 :    57.273747524546330
 Root    274 :    57.458365032922650
 Root    275 :    57.583144368613820
 Root    276 :    57.648819431946950
 Root    277 :    57.755445378001920
 Root    278 :    57.827889671063180
 Root    279 :    58.063337692634310
 Root    280 :    58.247275117973860
 Root    281 :    58.299299337965510
 Root    282 :    58.743343174758340
 Root    283 :    58.769194383509820
 Root    284 :    58.771977503579560
 Root    285 :    58.927165604996010
 Root    286 :    59.465851221356790
 Root    287 :    59.689407953221010
 Root    288 :    60.294858474380750
 Root    289 :    60.482683835944270
 Root    290 :    60.691822884433910
 Root    291 :    60.743386317165880
 Root    292 :    61.088426259938920
 Root    293 :    61.174322934572070
 Root    294 :    61.355317864617650
 Root    295 :    61.621899917450750
 Root    296 :    62.034513017025920
 Root    297 :    62.721241940410640
 Root    298 :    63.063182204621900
 Root    299 :    63.076585874339110
 Root    300 :    63.094866301866030
 Root    301 :    63.350774634553070
 Root    302 :    63.485693480238400
 Root    303 :    63.618859677440110
 Root    304 :    63.760655087662610
 Root    305 :    63.871044777422770
 Root    306 :    64.913744467445470
 Root    307 :    65.958129232525890
 Root    308 :    66.022835694524220
 Root    309 :    66.383949672740170
 Root    310 :    66.424867717088280
 Root    311 :    66.589844852431600
 Root    312 :    66.619690897931660
 Root    313 :    67.503749628944210
 Root    314 :    67.682032181480200
 Root    315 :    67.787301381495780
 Root    316 :    67.964828369557690
 Root    317 :    68.176636851714220
 Root    318 :    68.974198285043240
 Root    319 :    69.611632995457550
 Root    320 :    70.994205600677760
 Root    321 :    71.196766161331400
 Root    322 :    71.215321690559900
 Root    323 :    71.665881498462840
 Root    324 :    71.725452652850550
 Root    325 :    71.756488308325980
 Root    326 :    71.786162585932760
 Root    327 :    71.822063110917580
 Root    328 :    72.072839555223280
 Root    329 :    72.087990245347630
 Root    330 :    72.528279492306240
 Root    331 :    72.927051341085980
 Root    332 :    73.799418049103780
 Root    333 :    74.039418577427630
 Root    334 :    74.102081376664940
 Root    335 :    74.442068816005800
 Root    336 :    74.955711880556750
 Root    337 :    75.276654175617130
 Root    338 :    75.749589344180780
 Root    339 :    76.442164515754260
 Root    340 :    77.129367121969070
 Root    341 :    77.197837280488120
 Root    342 :    77.696534796827180
 Root    343 :    77.697825145831260
 Root    344 :    77.993371724471250
 Root    345 :    78.132808881056750
 Root    346 :    78.942926419647520
 Root    347 :    80.246239398033720
 Root    348 :    80.390550143218660
 Root    349 :    80.810378228948950
 Root    350 :    81.997770846561280
 Root    351 :    82.622054119334620
 Root    352 :    82.671326895797650
 Root    353 :    82.760836854848280
 Root    354 :    82.842962887879420
 Root    355 :    84.333351417846530
 Root    356 :    84.412774409937300
 Root    357 :    85.103124709445000
 Root    358 :    85.331387736380040
 Root    359 :    85.817685671992620
 Root    360 :    86.063519969411790
 Root    361 :    86.665870336731970
 Root    362 :    86.845015760039200
 Root    363 :    87.057237611842060
 Root    364 :    88.643291085238900
 Root    365 :    88.654668552046620
 Root    366 :    89.574724536449180
 Root    367 :    89.809021268841240
 Root    368 :    91.379997478265690
 Root    369 :    91.414825775377300
 Root    370 :    93.476238282407540
 Root    371 :    93.885311783174560
 Root    372 :    94.233920782082390
 Root    373 :    95.535023926571360
 Root    374 :    96.553707215269330
 Root    375 :    97.280229557327100
 Root    376 :    97.567971471923930
 Root    377 :    98.078423053739930
 Root    378 :   100.290873909037300
 Root    379 :   100.625180875734100
 Root    380 :   101.885513975727400
 Root    381 :   103.655437695793500
 Root    382 :   105.164928140960500
 Root    383 :   106.666348176320500
 Root    384 :   111.361473574468700
 Convergence achieved for final wavefunctions.
 ***********************************************************************
 Excited states from <AA,BB:AA,BB> singles matrix:
 ***********************************************************************
 
 1PDM for each excited state written to RWF  633
 Ground to excited state transition densities written to RWF  633
 Ground to excited state transition electric dipole moments (Au):
       state          X           Y           Z        Dip. S.      Osc.
         1        -0.6008     -0.0000     -0.0000      0.3609      0.0683
         2         0.0000     -0.0000     -1.3761      1.8936      0.3670
         3        -0.0000      0.0000      0.0000      0.0000      0.0000
         4         0.0000      0.0000      0.0000      0.0000      0.0000
         5        -0.0000      0.0000     -0.0000      0.0000      0.0000
         6        -0.0000      0.0000      0.0000      0.0000      0.0000
         7        -0.0000     -0.0000     -0.0000      0.0000      0.0000
         8        -0.4405      0.0000      0.0000      0.1940      0.0487
         9         0.0000     -0.6945      0.0000      0.4824      0.1247
        10         0.0000     -0.0000      0.0000      0.0000      0.0000
        11         0.0000      0.0000     -0.0000      0.0000      0.0000
        12         0.8148     -0.0000      0.0000      0.6638      0.1851
        13         0.0000      0.0000     -0.0000      0.0000      0.0000
        14        -0.0000     -0.6146      0.0000      0.3778      0.1084
        15        -0.0000     -0.0000     -0.8940      0.7992      0.2296
        16         0.0000     -0.0000     -0.0000      0.0000      0.0000
        17         0.0000      0.0000      0.0000      0.0000      0.0000
        18         0.0000      0.0000      0.0000      0.0000      0.0000
        19        -0.0000      0.0000      0.0000      0.0000      0.0000
        20         0.0000     -0.0000     -0.8712      0.7590      0.2320
        21         0.0000     -0.0000     -0.0000      0.0000      0.0000
        22        -0.0000     -0.2154      0.0000      0.0464      0.0151
        23        -0.0000     -1.0266      0.0000      1.0540      0.3458
        24        -0.0000      0.0000      0.0000      0.0000      0.0000
        25         0.0000      0.0000      0.0000      0.0000      0.0000
        26        -0.0000     -0.0000     -0.0000      0.0000      0.0000
        27         0.0000     -0.0000      0.0000      0.0000      0.0000
        28        -0.0000     -0.0000     -0.0000      0.0000      0.0000
        29         0.0000      0.0000      0.4390      0.1927      0.0668
        30        -0.0000     -0.0000     -0.0000      0.0000      0.0000
        31         0.0000      0.0000     -0.0000      0.0000      0.0000
        32        -0.0000     -1.2806     -0.0000      1.6400      0.5891
        33         0.0000      0.0000     -0.0000      0.0000      0.0000
        34         0.0000      0.0000     -1.0218      1.0442      0.3799
        35         0.5369     -0.0000      0.0000      0.2883      0.1057
        36         0.0000      0.0000     -0.0000      0.0000      0.0000
        37         0.5258     -0.0000     -0.0000      0.2765      0.1038
        38        -0.0000     -0.0000     -0.0000      0.0000      0.0000
        39        -0.4987      0.0000      0.0000      0.2487      0.0952
        40         0.0000      0.0000     -0.0000      0.0000      0.0000
        41         0.0000     -0.0908     -0.0000      0.0083      0.0032
        42         0.0000      0.0000      0.0000      0.0000      0.0000
        43        -0.0000      0.4209      0.0000      0.1772      0.0693
        44        -0.0000     -0.0000      0.0000      0.0000      0.0000
        45        -0.0000     -0.0000      0.0000      0.0000      0.0000
        46        -0.9449      0.0000      0.0000      0.8929      0.3555
        47         0.0000     -0.0000     -0.0000      0.0000      0.0000
        48         0.0000     -0.0000      0.1998      0.0399      0.0159
        49        -0.0000     -0.0000      0.0018      0.0000      0.0000
        50        -0.0000      0.0000      0.0000      0.0000      0.0000
        51        -0.0000     -0.8045      0.0000      0.6472      0.2649
        52         0.0000      0.0000      0.3228      0.1042      0.0430
        53         0.0000     -0.0777      0.0000      0.0060      0.0025
        54        -0.0000     -0.0000      0.0000      0.0000      0.0000
        55         0.0000     -0.0000     -0.0000      0.0000      0.0000
        56        -0.2969     -0.0000      0.0000      0.0881      0.0375
        57        -0.0000     -0.0000      0.0000      0.0000      0.0000
        58         0.0000     -0.0000      0.0000      0.0000      0.0000
        59        -0.0000     -0.0000      0.8066      0.6505      0.2840
        60         0.0000     -0.0000      0.0000      0.0000      0.0000
        61        -0.0000      0.0000     -0.0000      0.0000      0.0000
        62        -0.7748      0.0000     -0.0000      0.6003      0.2639
        63         0.0000      0.0000     -0.0000      0.0000      0.0000
        64        -0.0000      0.0000      0.0000      0.0000      0.0000
        65        -0.0000      0.0000     -0.0000      0.0000      0.0000
        66        -0.0000     -0.0000     -0.0000      0.0000      0.0000
        67        -0.0000     -0.0000     -0.0000      0.0000      0.0000
        68         0.0000     -0.0000     -0.0000      0.0000      0.0000
        69         0.6747     -0.0000      0.0000      0.4553      0.2048
        70         0.0000      0.3546      0.0000      0.1258      0.0568
        71         0.0000      0.0000     -0.9006      0.8111      0.3675
        72        -0.0000      0.4813     -0.0000      0.2317      0.1061
        73         0.0000      0.0000     -0.0000      0.0000      0.0000
        74         0.0000     -0.0000     -0.1897      0.0360      0.0167
        75        -0.0000     -0.0000     -0.0000      0.0000      0.0000
        76         0.0000     -0.0000     -0.1421      0.0202      0.0095
        77        -0.0000     -0.0000     -0.0000      0.0000      0.0000
        78         0.0000     -0.0000     -0.0000      0.0000      0.0000
        79        -0.0000     -0.0000      0.0000      0.0000      0.0000
        80         0.0000      0.2480      0.0000      0.0615      0.0296
        81         0.0000      0.0000     -0.0000      0.0000      0.0000
        82         0.0000     -0.0000     -0.0000      0.0000      0.0000
        83        -0.0000     -0.0000     -0.2574      0.0663      0.0322
        84        -0.0000     -0.1442      0.0000      0.0208      0.0102
        85         0.0000      0.0000      0.0000      0.0000      0.0000
        86        -0.6057      0.0000      0.0000      0.3669      0.1821
        87         0.0000     -0.0000      0.4905      0.2405      0.1199
        88        -0.0000      0.0000      0.0000      0.0000      0.0000
        89         0.0000      0.0000     -0.0000      0.0000      0.0000
        90        -0.0000     -0.0000      0.3916      0.1533      0.0774
        91         0.0000     -0.0000      0.0000      0.0000      0.0000
        92         0.0000      0.0000     -0.0000      0.0000      0.0000
        93        -0.0000      0.0000     -0.0000      0.0000      0.0000
        94         0.0000      0.6138      0.0000      0.3767      0.1935
        95         0.0000      0.0000     -0.0000      0.0000      0.0000
        96         0.0000      0.0000      0.0000      0.0000      0.0000
        97        -0.0000     -0.0000      0.0000      0.0000      0.0000
        98        -0.0000      0.0000     -0.0000      0.0000      0.0000
        99         0.0000      0.6432      0.0000      0.4138      0.2165
       100        -0.0000      0.0000      0.0000      0.0000      0.0000
       101        -0.0000      0.0000      0.0000      0.0000      0.0000
       102        -0.0000     -0.0000     -0.0000      0.0000      0.0000
       103        -0.0000      0.0000     -0.0000      0.0000      0.0000
       104        -0.0000     -0.0000      0.0000      0.0000      0.0000
       105        -0.0000      0.3757      0.0000      0.1412      0.0767
       106         0.0000      0.0000     -0.0000      0.0000      0.0000
       107         0.0000     -0.0000     -0.2174      0.0473      0.0258
       108         0.0000      0.0000     -0.0000      0.0000      0.0000
       109         0.0000      0.0000      0.0000      0.0000      0.0000
       110        -0.0000      0.0000      0.0000      0.0000      0.0000
       111        -0.0000      0.0000     -0.3276      0.1073      0.0590
       112         0.0088     -0.0000      0.0000      0.0001      0.0000
       113        -0.0000     -0.6524      0.0000      0.4256      0.2354
       114        -0.0000     -0.0000     -0.0000      0.0000      0.0000
       115        -0.0000     -0.0000     -0.0000      0.0000      0.0000
       116        -0.0000     -0.0000     -0.3880      0.1505      0.0844
       117        -0.0000      0.0000     -0.0000      0.0000      0.0000
       118        -0.0000     -0.0387      0.0000      0.0015      0.0008
       119        -0.0000      0.0000     -0.0000      0.0000      0.0000
       120         0.0000      0.0000     -0.0000      0.0000      0.0000
       121        -0.0000      0.0183     -0.0000      0.0003      0.0002
       122         0.0000     -0.0000     -0.0000      0.0000      0.0000
       123         0.0000     -0.0000     -0.3764      0.1416      0.0836
       124         0.3754      0.0000      0.0000      0.1409      0.0833
       125         0.0000     -0.0000      0.3013      0.0908      0.0537
       126         0.0000     -0.5891     -0.0000      0.3471      0.2057
       127        -0.0000     -0.0000     -0.0000      0.0000      0.0000
       128         0.0000     -0.0000      0.0000      0.0000      0.0000
       129        -0.0000     -0.0000     -0.0000      0.0000      0.0000
       130        -0.2774      0.0000     -0.0000      0.0770      0.0467
       131        -0.0000     -0.4060     -0.0000      0.1648      0.1003
       132        -0.0000      0.0000      0.0000      0.0000      0.0000
       133         0.0000     -0.0000     -0.0000      0.0000      0.0000
       134        -0.0000      0.0000     -0.3192      0.1019      0.0624
       135        -0.0000     -0.0000      0.0000      0.0000      0.0000
       136         0.0000     -0.0000      0.0000      0.0000      0.0000
       137         0.0000     -0.0092      0.0000      0.0001      0.0001
       138         0.0000      0.0000      0.0000      0.0000      0.0000
       139         0.3916     -0.0000     -0.0000      0.1533      0.0954
       140         0.0000     -0.0000      0.0000      0.0000      0.0000
       141        -0.0000     -0.0000     -0.0000      0.0000      0.0000
       142         0.0000     -0.0000      0.0000      0.0000      0.0000
       143        -0.0000      0.0000     -0.2561      0.0656      0.0416
       144         0.6235      0.0000     -0.0000      0.3887      0.2471
       145        -0.0000     -0.0000     -0.0000      0.0000      0.0000
       146        -0.0000      0.1720      0.0000      0.0296      0.0191
       147        -0.0000     -0.0000      0.1935      0.0374      0.0242
       148        -0.0000     -0.0000     -0.0000      0.0000      0.0000
       149        -0.0000     -0.0000      0.3966      0.1573      0.1039
       150        -0.0000     -0.0000      0.5178      0.2682      0.1782
       151         0.0000      0.0000     -0.0000      0.0000      0.0000
       152        -0.0000     -0.0000      0.0000      0.0000      0.0000
       153        -0.0000     -0.1871     -0.0000      0.0350      0.0233
       154         0.0000     -0.0000      0.0000      0.0000      0.0000
       155        -0.0000     -0.0000      0.0000      0.0000      0.0000
       156         0.0000      0.0000     -0.0000      0.0000      0.0000
       157         0.0000      0.0000      0.0000      0.0000      0.0000
       158        -0.0113      0.0000      0.0000      0.0001      0.0001
       159        -0.0000      0.0000     -0.1255      0.0157      0.0108
       160        -0.0000      0.0000      0.0000      0.0000      0.0000
       161         0.0000     -0.0000     -0.0000      0.0000      0.0000
       162         0.0000      0.0000     -0.0000      0.0000      0.0000
       163        -0.0000     -0.0000     -0.0000      0.0000      0.0000
       164         0.0000     -0.0000      0.1216      0.0148      0.0105
       165        -0.0000      0.0000      0.0000      0.0000      0.0000
       166         0.0000      0.0000     -0.0000      0.0000      0.0000
       167        -0.1046     -0.0000      0.0000      0.0109      0.0080
       168        -0.0000     -0.0097      0.0000      0.0001      0.0001
       169        -0.0000     -0.0000     -0.0010      0.0000      0.0000
       170         0.0913      0.0000      0.0000      0.0083      0.0062
       171         0.0000     -0.0000     -0.0000      0.0000      0.0000
       172        -0.0000      0.0000     -0.0000      0.0000      0.0000
       173         0.0000     -0.0000     -0.0000      0.0000      0.0000
       174        -0.0000      0.0000      0.0000      0.0000      0.0000
       175         0.0000      0.0000      0.0261      0.0007      0.0005
       176         0.0000     -0.0000     -0.0000      0.0000      0.0000
       177        -0.0000      0.0000     -0.0000      0.0000      0.0000
       178         0.0000     -0.0634     -0.0000      0.0040      0.0031
       179        -0.0000     -0.0000      0.0000      0.0000      0.0000
       180        -0.0000     -0.0000     -0.0000      0.0000      0.0000
       181         0.0000      0.0492      0.0000      0.0024      0.0019
       182        -0.0000     -0.1990     -0.0000      0.0396      0.0312
       183        -0.2234      0.0000     -0.0000      0.0499      0.0396
       184         0.0000      0.0000     -0.0000      0.0000      0.0000
       185         0.0000      0.0000      0.0000      0.0000      0.0000
       186        -0.0000      0.0000      0.0000      0.0000      0.0000
       187        -0.0000     -0.0000      0.1038      0.0108      0.0086
       188        -0.0000     -0.0000      0.0000      0.0000      0.0000
       189        -0.0000      0.0000      0.0000      0.0000      0.0000
       190        -0.0000     -0.0000     -0.0000      0.0000      0.0000
       191        -0.0000     -0.0000     -0.1466      0.0215      0.0176
       192        -0.0000      0.0000     -0.0000      0.0000      0.0000
       193         0.0000      0.0000     -0.0000      0.0000      0.0000
       194         0.0000      0.0000      0.3037      0.0922      0.0775
       195         0.0000     -0.0000     -0.0000      0.0000      0.0000
       196         0.0000     -0.0000     -0.0593      0.0035      0.0030
       197        -0.0000      0.0986     -0.0000      0.0097      0.0083
       198        -0.0000      0.0000     -0.0000      0.0000      0.0000
       199         0.0000      0.0000     -0.0000      0.0000      0.0000
       200         0.0000     -0.0000     -0.0000      0.0000      0.0000
       201        -0.0000     -0.0000      0.0000      0.0000      0.0000
       202        -0.0886      0.0000      0.0000      0.0079      0.0068
       203        -0.0000      0.0000      0.0000      0.0000      0.0000
       204        -0.0000     -0.2027      0.0000      0.0411      0.0361
       205        -0.0000     -0.0000     -0.2161      0.0467      0.0416
       206         0.0000      0.0000      0.0000      0.0000      0.0000
       207         0.0000     -0.0000      0.1722      0.0297      0.0267
       208        -0.0000     -0.0000     -0.0000      0.0000      0.0000
       209         0.0000      0.0000      0.0000      0.0000      0.0000
       210         0.0000     -0.0000     -0.0000      0.0000      0.0000
       211         0.0000     -0.0000      0.0000      0.0000      0.0000
       212         0.0000     -0.2546      0.0000      0.0648      0.0602
       213        -0.0000     -0.0000     -0.2151      0.0463      0.0433
       214        -0.3814      0.0000      0.0000      0.1454      0.1372
       215        -0.0000     -0.0828      0.0000      0.0069      0.0065
       216        -0.0000     -0.0000      0.0000      0.0000      0.0000
       217         0.0000     -0.0000      0.0174      0.0003      0.0003
       218        -0.0000     -0.0000     -0.0000      0.0000      0.0000
       219        -0.0000      0.2795      0.0000      0.0781      0.0755
       220        -0.0000     -0.0000      0.0000      0.0000      0.0000
       221         0.0000     -0.0371      0.0000      0.0014      0.0013
       222         0.0000      0.0000      0.0000      0.0000      0.0000
       223        -0.0801     -0.0000     -0.0000      0.0064      0.0063
       224        -0.0000      0.0000     -0.0000      0.0000      0.0000
       225         0.0000      0.0000     -0.1957      0.0383      0.0379
       226         0.0000      0.2504      0.0000      0.0627      0.0631
       227        -0.0000      0.0000     -0.0000      0.0000      0.0000
       228         0.0000      0.0000      0.0000      0.0000      0.0000
       229         0.0000     -0.0000      0.0000      0.0000      0.0000
       230        -0.0000     -0.0458     -0.0000      0.0021      0.0022
       231        -0.0000      0.0000      0.1418      0.0201      0.0208
       232        -0.0000      0.0000      0.0000      0.0000      0.0000
       233         0.0000     -0.0000     -0.0276      0.0008      0.0008
       234        -0.0000      0.0000      0.0000      0.0000      0.0000
       235         0.0000      0.0000     -0.0000      0.0000      0.0000
       236         0.0000      0.0000     -0.0000      0.0000      0.0000
       237         0.0000      0.0000     -0.0000      0.0000      0.0000
       238        -0.0000     -0.0000     -0.0000      0.0000      0.0000
       239         0.0000      0.0000     -0.2764      0.0764      0.0838
       240        -0.0000      0.4526      0.0000      0.2048      0.2248
       241        -0.0000      0.0000      0.0000      0.0000      0.0000
       242        -0.0000     -0.2446      0.0000      0.0598      0.0659
       243        -0.0000      0.0000     -0.0000      0.0000      0.0000
       244         0.0000      0.0000     -0.0000      0.0000      0.0000
       245        -0.0000     -0.0000     -0.0000      0.0000      0.0000
       246        -0.0000      0.0000      0.0000      0.0000      0.0000
       247        -0.0000     -0.0000      0.0000      0.0000      0.0000
       248         0.0000      0.0000     -0.1187      0.0141      0.0163
       249         0.0000      0.0000     -0.1780      0.0317      0.0369
       250        -0.0000      0.0000      0.0000      0.0000      0.0000
       251         0.0000     -0.0000      0.0000      0.0000      0.0000
       252        -0.1968      0.0000      0.0000      0.0387      0.0463
       253        -0.0000     -0.0000      0.0000      0.0000      0.0000
       254         0.0000      0.0000      0.0000      0.0000      0.0000
       255        -0.0000      0.2361      0.0000      0.0557      0.0677
       256        -0.0000      0.0000      0.0000      0.0000      0.0000
       257         0.0000      0.0743      0.0000      0.0055      0.0068
       258        -0.0000     -0.0000      0.2099      0.0440      0.0543
       259        -0.7315     -0.0000     -0.0000      0.5352      0.6646
       260         0.4021      0.0000     -0.0000      0.1617      0.2061
       261        -0.0000     -0.0000     -0.0000      0.0000      0.0000
       262        -0.0000      0.0000     -0.0864      0.0075      0.0096
       263        -0.0000      0.0000      0.0000      0.0000      0.0000
       264        -0.0000      0.0000      0.0000      0.0000      0.0000
       265         0.0000      0.0000      0.0797      0.0064      0.0084
       266         0.0504      0.0000     -0.0000      0.0025      0.0033
       267        -0.0000      0.0000     -0.0000      0.0000      0.0000
       268         0.0000     -0.0000      0.0000      0.0000      0.0000
       269         0.0000     -0.0000      0.0000      0.0000      0.0000
       270        -0.0000      0.0000      0.2619      0.0686      0.0934
       271        -0.0000      0.0000     -0.0000      0.0000      0.0000
       272        -0.0000      0.0000      0.0000      0.0000      0.0000
       273        -0.0000     -0.0219      0.0000      0.0005      0.0007
       274        -0.0000     -0.0000      0.0000      0.0000      0.0000
       275        -0.0000      0.0000      0.0000      0.0000      0.0000
       276         0.0000     -0.0000      0.0000      0.0000      0.0000
       277         0.0000      0.0000      0.0000      0.0000      0.0000
       278         0.0000      0.0000     -0.0000      0.0000      0.0000
       279        -0.2056     -0.0000     -0.0000      0.0423      0.0601
       280         0.0000      0.0000      0.0000      0.0000      0.0000
       281        -0.0000      0.0000     -0.0000      0.0000      0.0000
       282         0.0000      0.0000      0.0000      0.0000      0.0000
       283         0.4180      0.0000      0.0000      0.1748      0.2516
       284         0.0000     -0.0000      0.0000      0.0000      0.0000
       285         0.0000     -0.0000      0.0000      0.0000      0.0000
       286         0.0000     -0.2163     -0.0000      0.0468      0.0682
       287         0.0000     -0.0000      0.0000      0.0000      0.0000
       288        -0.0000      0.0000      0.1103      0.0122      0.0180
       289        -0.0000      0.0000     -0.0000      0.0000      0.0000
       290        -0.0000      0.0265     -0.0000      0.0007      0.0010
       291        -0.0000     -0.0000     -0.0000      0.0000      0.0000
       292        -0.0000      0.0000     -0.1411      0.0199      0.0298
       293         0.0000      0.0000     -0.0000      0.0000      0.0000
       294         0.0000     -0.0000      0.0000      0.0000      0.0000
       295        -0.0114     -0.0000     -0.0000      0.0001      0.0002
       296        -0.0000     -0.0931     -0.0000      0.0087      0.0132
       297         0.0000     -0.0000     -0.0000      0.0000      0.0000
       298         0.0000     -0.0000      0.0746      0.0056      0.0086
       299         0.3128     -0.0000     -0.0000      0.0979      0.1512
       300         0.0000     -0.0000      0.0000      0.0000      0.0000
       301        -0.0000     -0.0866     -0.0000      0.0075      0.0116
       302        -0.0000      0.0000      0.0000      0.0000      0.0000
       303        -0.0000      0.0000     -0.1552      0.0241      0.0376
       304        -0.0000     -0.0000      0.0000      0.0000      0.0000
       305        -0.0000     -0.0000      0.0000      0.0000      0.0000
       306         0.0000     -0.3028     -0.0000      0.0917      0.1458
       307        -0.0000     -0.0000      0.0000      0.0000      0.0000
       308        -0.0000      0.0643     -0.0000      0.0041      0.0067
       309        -0.0000     -0.0000     -0.0798      0.0064      0.0103
       310        -0.0000      0.0000     -0.0000      0.0000      0.0000
       311        -0.0000     -0.0000      0.0000      0.0000      0.0000
       312         0.0000      0.0000      0.0000      0.0000      0.0000
       313         0.0000      0.0000      0.0000      0.0000      0.0000
       314        -0.0000     -0.0051      0.0000      0.0000      0.0000
       315        -0.0000      0.0000     -0.0000      0.0000      0.0000
       316        -0.0000      0.0000      0.0000      0.0000      0.0000
       317         0.0000     -0.0000     -0.0000      0.0000      0.0000
       318         0.0000     -0.0000      0.0000      0.0000      0.0000
       319        -0.1037      0.0000      0.0000      0.0108      0.0183
       320        -0.0000      0.0000     -0.0000      0.0000      0.0000
       321         0.0000      0.0000     -0.0000      0.0000      0.0000
       322        -0.0000      0.0762      0.0000      0.0058      0.0101
       323         0.0000      0.0000     -0.0000      0.0000      0.0000
       324         0.0000     -0.0000     -0.0712      0.0051      0.0089
       325        -0.0000      0.0506     -0.0000      0.0026      0.0045
       326        -0.0000      0.0000      0.0000      0.0000      0.0000
       327        -0.0431     -0.0000     -0.0000      0.0019      0.0033
       328         0.0000     -0.0000     -0.0000      0.0000      0.0000
       329         0.2154      0.0000      0.0000      0.0464      0.0820
       330         0.0000      0.0000     -0.0000      0.0000      0.0000
       331         0.0000      0.0000     -0.0902      0.0081      0.0145
       332         0.0000      0.0000     -0.1655      0.0274      0.0495
       333        -0.1229     -0.0000     -0.0000      0.0151      0.0274
       334         0.0000      0.0000     -0.0000      0.0000      0.0000
       335         0.0000      0.0000     -0.1027      0.0105      0.0192
       336         0.0000     -0.0000      0.0000      0.0000      0.0000
       337        -0.0000     -0.0000      0.0000      0.0000      0.0000
       338         0.0000     -0.0000     -0.0000      0.0000      0.0000
       339         0.0000     -0.0000      0.0000      0.0000      0.0000
       340        -0.0000      0.0000     -0.0000      0.0000      0.0000
       341        -0.0000     -0.0532     -0.0000      0.0028      0.0054
       342         0.0000      0.0633      0.0000      0.0040      0.0076
       343         0.0000     -0.0000     -0.0000      0.0000      0.0000
       344        -0.0000      0.0000      0.0000      0.0000      0.0000
       345         0.0000      0.0000      0.0000      0.0000      0.0000
       346        -0.0000     -0.0000      0.0000      0.0000      0.0000
       347         0.0000      0.0000      0.0000      0.0000      0.0000
       348         0.1229     -0.0000     -0.0000      0.0151      0.0298
       349         0.0000      0.0000      0.0042      0.0000      0.0000
       350        -0.0000     -0.0000     -0.0000      0.0000      0.0000
       351        -0.0000      0.0000      0.0000      0.0000      0.0000
       352        -0.0000     -0.0000     -0.0000      0.0000      0.0000
       353         0.0000      0.0000     -0.0838      0.0070      0.0142
       354        -0.0846      0.0000     -0.0000      0.0072      0.0145
       355         0.0000     -0.0000     -0.0000      0.0000      0.0000
       356         0.0000     -0.0000     -0.0000      0.0000      0.0000
       357         0.0000      0.0000     -0.0000      0.0000      0.0000
       358         0.0000      0.0000      0.1102      0.0121      0.0254
       359        -0.0000     -0.0000     -0.0000      0.0000      0.0000
       360         0.0000     -0.0908      0.0000      0.0082      0.0174
       361         0.0000      0.0752      0.0000      0.0056      0.0120
       362         0.0000      0.1575     -0.0000      0.0248      0.0528
       363        -0.0000     -0.0000      0.0000      0.0000      0.0000
       364         0.0000     -0.0000     -0.0000      0.0000      0.0000
       365         0.0000     -0.0000     -0.0136      0.0002      0.0004
       366         0.0000     -0.0000     -0.1293      0.0167      0.0367
       367        -0.0000     -0.0000      0.0000      0.0000      0.0000
       368        -0.0000     -0.0000      0.0000      0.0000      0.0000
       369         0.0000     -0.0000      0.0000      0.0000      0.0000
       370        -0.0000      0.0000     -0.0000      0.0000      0.0000
       371         0.0000     -0.0613      0.0000      0.0038      0.0086
       372        -0.0000      0.0000     -0.0000      0.0000      0.0000
       373        -0.0000     -0.0000      0.0360      0.0013      0.0030
       374        -0.0000     -0.1652     -0.0000      0.0273      0.0646
       375        -0.0000      0.0000      0.0000      0.0000      0.0000
       376         0.0000      0.0000      0.0000      0.0000      0.0000
       377         0.0000      0.0000     -0.0570      0.0033      0.0078
       378        -0.0000     -0.0000     -0.0000      0.0000      0.0000
       379         0.0000     -0.0000     -0.0000      0.0000      0.0000
       380         0.0000     -0.0000      0.0000      0.0000      0.0000
       381         0.0000      0.0000      0.0583      0.0034      0.0086
       382         0.0000      0.0000      0.0795      0.0063      0.0163
       383        -0.0000     -0.0016     -0.0000      0.0000      0.0000
       384         0.0000     -0.0000     -0.0000      0.0000      0.0000
 Ground to excited state transition velocity dipole moments (Au):
       state          X           Y           Z        Dip. S.      Osc.
         1         0.2152      0.0000      0.0000      0.0463      0.1088
         2        -0.0000      0.0000      0.4132      0.1707      0.3915
         3         0.0000     -0.0000     -0.0000      0.0000      0.0000
         4        -0.0000      0.0000      0.0000      0.0000      0.0000
         5         0.0000     -0.0000     -0.0000      0.0000      0.0000
         6         0.0000      0.0000     -0.0000      0.0000      0.0000
         7        -0.0000     -0.0000      0.0000      0.0000      0.0000
         8         0.1846     -0.0000      0.0000      0.0341      0.0604
         9        -0.0000      0.2949     -0.0000      0.0870      0.1495
        10         0.0000      0.0000     -0.0000      0.0000      0.0000
        11        -0.0000     -0.0000      0.0000      0.0000      0.0000
        12        -0.3633      0.0000     -0.0000      0.1320      0.2104
        13        -0.0000     -0.0000      0.0000      0.0000      0.0000
        14         0.0000      0.2756     -0.0000      0.0759      0.1176
        15         0.0000      0.0000      0.3961      0.1569      0.2427
        16        -0.0000      0.0000      0.0000      0.0000      0.0000
        17        -0.0000      0.0000     -0.0000      0.0000      0.0000
        18        -0.0000      0.0000     -0.0000      0.0000      0.0000
        19         0.0000      0.0000      0.0000      0.0000      0.0000
        20        -0.0000      0.0000      0.4301      0.1850      0.2690
        21        -0.0000     -0.0000      0.0000      0.0000      0.0000
        22        -0.0000      0.1066     -0.0000      0.0114      0.0155
        23         0.0000      0.5298     -0.0000      0.2807      0.3802
[...]
     10   0.000000D+00  0.000000D+00  0.267963D+00  0.000000D+00  0.000000D+00
     11   0.000000D+00  0.000000D+00  0.000000D+00  0.000000D+00  0.000000D+00
     12   0.000000D+00  0.000000D+00  0.000000D+00  0.000000D+00  0.000000D+00
     13   0.000000D+00  0.000000D+00  0.000000D+00  0.000000D+00  0.000000D+00
     14   0.000000D+00  0.000000D+00 -0.945989D+00  0.000000D+00  0.000000D+00
     15   0.000000D+00  0.470114D-01  0.000000D+00  0.000000D+00 -0.262265D+00
     16  -0.430676D+00  0.000000D+00  0.000000D+00  0.000000D+00  0.000000D+00
               316           317           318           319           320 
      1  -0.759853D+02 -0.759775D+02 -0.759482D+02 -0.759248D+02 -0.758740D+02
      2   0.000000D+00  0.000000D+00  0.000000D+00 -0.103692D+00  0.000000D+00
      3   0.000000D+00  0.000000D+00  0.000000D+00  0.000000D+00  0.000000D+00
      4   0.000000D+00  0.000000D+00  0.000000D+00  0.000000D+00  0.000000D+00
      5   0.000000D+00  0.000000D+00  0.000000D+00  0.239198D+00  0.000000D+00
      6   0.000000D+00  0.000000D+00  0.000000D+00  0.000000D+00  0.000000D+00
      7   0.000000D+00  0.000000D+00  0.000000D+00  0.000000D+00  0.000000D+00
      8   0.000000D+00  0.000000D+00  0.000000D+00  0.000000D+00  0.000000D+00
      9   0.000000D+00  0.000000D+00 -0.290986D+00  0.000000D+00  0.000000D+00
     10   0.000000D+00  0.000000D+00  0.000000D+00  0.000000D+00  0.000000D+00
     11  -0.304809D-01  0.000000D+00  0.000000D+00  0.000000D+00 -0.153131D+00
     12   0.190960D+00  0.000000D+00  0.000000D+00  0.000000D+00 -0.442163D+00
     13   0.156017D+00  0.000000D+00  0.000000D+00  0.000000D+00 -0.505222D+00
     14   0.000000D+00  0.000000D+00  0.000000D+00  0.000000D+00  0.000000D+00
     15   0.000000D+00  0.000000D+00 -0.517038D+00  0.000000D+00  0.000000D+00
     16   0.000000D+00  0.000000D+00  0.000000D+00  0.000000D+00  0.000000D+00
               321           322           323           324           325 
      1  -0.758665D+02 -0.758658D+02 -0.758493D+02 -0.758471D+02 -0.758460D+02
      2   0.000000D+00  0.000000D+00  0.000000D+00  0.000000D+00  0.000000D+00
      3   0.000000D+00  0.761838D-01  0.000000D+00  0.000000D+00  0.505763D-01
      4   0.000000D+00  0.000000D+00  0.000000D+00 -0.712269D-01  0.000000D+00
      5   0.000000D+00  0.000000D+00  0.000000D+00  0.000000D+00  0.000000D+00
      6   0.000000D+00 -0.131001D+00  0.000000D+00  0.000000D+00 -0.113318D+00
      7   0.000000D+00  0.000000D+00  0.000000D+00  0.148934D+00  0.000000D+00
      8   0.000000D+00  0.000000D+00  0.508056D+00  0.000000D+00  0.000000D+00
      9   0.000000D+00  0.000000D+00  0.000000D+00  0.000000D+00  0.000000D+00
     10   0.000000D+00  0.000000D+00  0.000000D+00  0.000000D+00  0.000000D+00
     11  -0.445164D+00  0.000000D+00  0.000000D+00  0.000000D+00  0.000000D+00
     12  -0.396226D-02  0.000000D+00  0.000000D+00  0.000000D+00  0.000000D+00
     13  -0.350219D-02  0.000000D+00  0.000000D+00  0.000000D+00  0.000000D+00
     14   0.000000D+00  0.000000D+00  0.000000D+00  0.000000D+00  0.000000D+00
     15   0.000000D+00  0.000000D+00  0.000000D+00  0.000000D+00  0.000000D+00
     16   0.000000D+00  0.000000D+00 -0.132636D+00  0.000000D+00  0.000000D+00
               326           327           328           329           330 
      1  -0.758449D+02 -0.758435D+02 -0.758343D+02 -0.758338D+02 -0.758176D+02
      2   0.000000D+00 -0.430959D-01  0.000000D+00  0.215426D+00  0.000000D+00
      3   0.000000D+00  0.000000D+00  0.000000D+00  0.000000D+00  0.000000D+00
      4   0.000000D+00  0.000000D+00  0.000000D+00  0.000000D+00  0.000000D+00
      5   0.000000D+00  0.927834D-01  0.000000D+00 -0.469438D+00  0.000000D+00
      6   0.000000D+00  0.000000D+00  0.000000D+00  0.000000D+00  0.000000D+00
      7   0.000000D+00  0.000000D+00  0.000000D+00  0.000000D+00  0.000000D+00
      8  -0.397487D+00  0.000000D+00  0.000000D+00  0.000000D+00 -0.417097D+00
      9   0.000000D+00  0.000000D+00  0.000000D+00  0.000000D+00  0.000000D+00
     10   0.000000D+00  0.000000D+00  0.000000D+00  0.000000D+00  0.000000D+00
     11   0.000000D+00  0.000000D+00  0.000000D+00  0.000000D+00  0.000000D+00
     12   0.000000D+00  0.000000D+00  0.000000D+00  0.000000D+00  0.000000D+00
     13   0.000000D+00  0.000000D+00  0.000000D+00  0.000000D+00  0.000000D+00
     14   0.000000D+00  0.000000D+00  0.000000D+00  0.000000D+00  0.000000D+00
     15   0.000000D+00  0.000000D+00  0.000000D+00  0.000000D+00  0.000000D+00
     16   0.380317D+00  0.000000D+00  0.000000D+00  0.000000D+00 -0.322510D-01
               331           332           333           334           335 
      1  -0.758029D+02 -0.757709D+02 -0.757621D+02 -0.757598D+02 -0.757473D+02
      2   0.000000D+00  0.000000D+00 -0.122937D+00  0.000000D+00  0.000000D+00
      3   0.000000D+00  0.000000D+00  0.000000D+00  0.000000D+00  0.000000D+00
      4  -0.901838D-01 -0.165541D+00  0.000000D+00  0.000000D+00 -0.102652D+00
      5   0.000000D+00  0.000000D+00  0.304557D+00  0.000000D+00  0.000000D+00
      6   0.000000D+00  0.000000D+00  0.000000D+00  0.000000D+00  0.000000D+00
      7   0.208062D+00  0.397353D+00  0.000000D+00  0.000000D+00  0.282742D+00
      8   0.000000D+00  0.000000D+00  0.000000D+00  0.334247D+00  0.000000D+00
      9   0.000000D+00  0.000000D+00  0.000000D+00  0.000000D+00  0.000000D+00
     10   0.000000D+00  0.000000D+00  0.000000D+00  0.000000D+00  0.000000D+00
     11   0.000000D+00  0.000000D+00  0.000000D+00  0.000000D+00  0.000000D+00
     12   0.000000D+00  0.000000D+00  0.000000D+00  0.000000D+00  0.000000D+00
     13   0.000000D+00  0.000000D+00  0.000000D+00  0.000000D+00  0.000000D+00
     14   0.000000D+00  0.000000D+00  0.000000D+00  0.000000D+00  0.000000D+00
     15   0.000000D+00  0.000000D+00  0.000000D+00  0.000000D+00  0.000000D+00
     16   0.000000D+00  0.000000D+00  0.000000D+00  0.120803D+00  0.000000D+00
               336           337           338           339           340 
      1  -0.757284D+02 -0.757166D+02 -0.756992D+02 -0.756738D+02 -0.756485D+02
      2   0.000000D+00  0.000000D+00  0.000000D+00  0.000000D+00  0.000000D+00
      3   0.000000D+00  0.000000D+00  0.000000D+00  0.000000D+00  0.000000D+00
      4   0.000000D+00  0.000000D+00  0.000000D+00  0.000000D+00  0.000000D+00
      5   0.000000D+00  0.000000D+00  0.000000D+00  0.000000D+00  0.000000D+00
      6   0.000000D+00  0.000000D+00  0.000000D+00  0.000000D+00  0.000000D+00
      7   0.000000D+00  0.000000D+00  0.000000D+00  0.000000D+00  0.000000D+00
      8   0.182345D+00  0.000000D+00  0.000000D+00  0.000000D+00  0.000000D+00
      9   0.000000D+00  0.000000D+00  0.000000D+00  0.000000D+00 -0.204888D-01
     10   0.000000D+00  0.000000D+00  0.169676D+00  0.000000D+00  0.000000D+00
     11   0.000000D+00  0.000000D+00  0.000000D+00  0.169619D-01  0.000000D+00
     12   0.000000D+00  0.000000D+00  0.000000D+00  0.703024D+00  0.000000D+00
     13   0.000000D+00  0.000000D+00  0.000000D+00  0.272780D+00  0.000000D+00
     14   0.000000D+00  0.000000D+00 -0.633880D+00  0.000000D+00  0.000000D+00
     15   0.000000D+00  0.000000D+00  0.000000D+00  0.000000D+00 -0.435369D+00
     16  -0.350655D+00  0.000000D+00  0.000000D+00  0.000000D+00  0.000000D+00
               341           342           343           344           345 
      1  -0.756460D+02 -0.756277D+02 -0.756276D+02 -0.756168D+02 -0.756116D+02
      2   0.000000D+00  0.000000D+00  0.000000D+00  0.000000D+00  0.000000D+00
      3  -0.532073D-01  0.633250D-01  0.000000D+00  0.000000D+00  0.000000D+00
      4   0.000000D+00  0.000000D+00  0.000000D+00  0.000000D+00  0.000000D+00
      5   0.000000D+00  0.000000D+00  0.000000D+00  0.000000D+00  0.000000D+00
      6   0.153676D+00 -0.177941D+00  0.000000D+00  0.000000D+00  0.000000D+00
      7   0.000000D+00  0.000000D+00  0.000000D+00  0.000000D+00  0.000000D+00
      8   0.000000D+00  0.000000D+00  0.000000D+00  0.000000D+00  0.000000D+00
      9   0.000000D+00  0.000000D+00  0.000000D+00  0.000000D+00  0.672682D+00
     10   0.000000D+00  0.000000D+00  0.884491D-01  0.000000D+00  0.000000D+00
     11   0.000000D+00  0.000000D+00  0.000000D+00 -0.466470D-01  0.000000D+00
     12   0.000000D+00  0.000000D+00  0.000000D+00 -0.394483D+00  0.000000D+00
     13   0.000000D+00  0.000000D+00  0.000000D+00  0.155839D+01  0.000000D+00
     14   0.000000D+00  0.000000D+00  0.189921D+00  0.000000D+00  0.000000D+00
     15   0.000000D+00  0.000000D+00  0.000000D+00  0.000000D+00  0.114204D+01
     16   0.000000D+00  0.000000D+00  0.000000D+00  0.000000D+00  0.000000D+00
               346           347           348           349           350 
      1  -0.755819D+02 -0.755340D+02 -0.755287D+02 -0.755132D+02 -0.754696D+02
      2   0.000000D+00  0.000000D+00  0.122921D+00  0.000000D+00  0.000000D+00
      3   0.000000D+00  0.000000D+00  0.000000D+00  0.000000D+00  0.000000D+00
      4   0.000000D+00  0.000000D+00  0.000000D+00  0.416613D-02  0.000000D+00
      5   0.000000D+00  0.000000D+00 -0.288634D+00  0.000000D+00  0.000000D+00
      6   0.000000D+00  0.000000D+00  0.000000D+00  0.000000D+00  0.000000D+00
      7   0.000000D+00  0.000000D+00  0.000000D+00  0.188513D-02  0.000000D+00
      8   0.000000D+00  0.000000D+00  0.000000D+00  0.000000D+00 -0.185117D+00
      9   0.000000D+00  0.000000D+00  0.000000D+00  0.000000D+00  0.000000D+00
     10   0.000000D+00  0.123090D+00  0.000000D+00  0.000000D+00  0.000000D+00
     11   0.000000D+00  0.000000D+00  0.000000D+00  0.000000D+00  0.000000D+00
     12   0.000000D+00  0.000000D+00  0.000000D+00  0.000000D+00  0.000000D+00
     13   0.000000D+00  0.000000D+00  0.000000D+00  0.000000D+00  0.000000D+00
     14   0.000000D+00 -0.248340D+00  0.000000D+00  0.000000D+00  0.000000D+00
     15   0.000000D+00  0.000000D+00  0.000000D+00  0.000000D+00  0.000000D+00
     16   0.000000D+00  0.000000D+00  0.000000D+00  0.000000D+00 -0.216688D+00
               351           352           353           354           355 
      1  -0.754467D+02 -0.754448D+02 -0.754416D+02 -0.754385D+02 -0.753838D+02
      2   0.000000D+00  0.000000D+00  0.000000D+00 -0.846057D-01  0.000000D+00
      3   0.000000D+00  0.000000D+00  0.000000D+00  0.000000D+00  0.000000D+00
      4   0.000000D+00  0.000000D+00 -0.837964D-01  0.000000D+00  0.000000D+00
      5   0.000000D+00  0.000000D+00  0.000000D+00  0.218614D+00  0.000000D+00
      6   0.000000D+00  0.000000D+00  0.000000D+00  0.000000D+00  0.000000D+00
      7   0.000000D+00  0.000000D+00  0.207479D+00  0.000000D+00  0.000000D+00
      8   0.000000D+00 -0.311678D+00  0.000000D+00  0.000000D+00  0.000000D+00
      9   0.000000D+00  0.000000D+00  0.000000D+00  0.000000D+00 -0.482150D+00
     10  -0.397294D-01  0.000000D+00  0.000000D+00  0.000000D+00  0.000000D+00
     11   0.000000D+00  0.000000D+00  0.000000D+00  0.000000D+00  0.000000D+00
     12   0.000000D+00  0.000000D+00  0.000000D+00  0.000000D+00  0.000000D+00
     13   0.000000D+00  0.000000D+00  0.000000D+00  0.000000D+00  0.000000D+00
     14  -0.238867D+00  0.000000D+00  0.000000D+00  0.000000D+00  0.000000D+00
     15   0.000000D+00  0.000000D+00  0.000000D+00  0.000000D+00 -0.609291D+00
     16   0.000000D+00  0.386223D+00  0.000000D+00  0.000000D+00  0.000000D+00
               356           357           358           359           360 
      1  -0.753808D+02 -0.753555D+02 -0.753471D+02 -0.753292D+02 -0.753202D+02
      2   0.000000D+00  0.000000D+00  0.000000D+00  0.000000D+00  0.000000D+00
      3   0.000000D+00  0.000000D+00  0.000000D+00  0.000000D+00 -0.907925D-01
      4   0.000000D+00  0.000000D+00  0.110215D+00  0.000000D+00  0.000000D+00
      5   0.000000D+00  0.000000D+00  0.000000D+00  0.000000D+00  0.000000D+00
      6   0.000000D+00  0.000000D+00  0.000000D+00  0.000000D+00  0.218606D+00
      7   0.000000D+00  0.000000D+00 -0.309292D+00  0.000000D+00  0.000000D+00
      8   0.000000D+00  0.000000D+00  0.000000D+00  0.000000D+00  0.000000D+00
      9   0.000000D+00  0.000000D+00  0.000000D+00  0.000000D+00  0.000000D+00
     10   0.000000D+00  0.000000D+00  0.000000D+00  0.000000D+00  0.000000D+00
     11   0.107255D+00  0.000000D+00  0.000000D+00 -0.117822D+00  0.000000D+00
     12  -0.290703D+00  0.000000D+00  0.000000D+00  0.307115D+00  0.000000D+00
     13   0.358744D-01  0.000000D+00  0.000000D+00 -0.654859D+00  0.000000D+00
     14   0.000000D+00  0.000000D+00  0.000000D+00  0.000000D+00  0.000000D+00
     15   0.000000D+00  0.000000D+00  0.000000D+00  0.000000D+00  0.000000D+00
     16   0.000000D+00  0.000000D+00  0.000000D+00  0.000000D+00  0.000000D+00
               361           362           363           364           365 
      1  -0.752980D+02 -0.752915D+02 -0.752837D+02 -0.752254D+02 -0.752250D+02
      2   0.000000D+00  0.000000D+00  0.000000D+00  0.000000D+00  0.000000D+00
      3   0.751544D-01  0.157546D+00  0.000000D+00  0.000000D+00  0.000000D+00
      4   0.000000D+00  0.000000D+00  0.000000D+00  0.000000D+00 -0.136309D-01
      5   0.000000D+00  0.000000D+00  0.000000D+00  0.000000D+00  0.000000D+00
      6  -0.195706D+00 -0.449237D+00  0.000000D+00  0.000000D+00  0.000000D+00
      7   0.000000D+00  0.000000D+00  0.000000D+00  0.000000D+00  0.143781D-01
      8   0.000000D+00  0.000000D+00  0.000000D+00  0.000000D+00  0.000000D+00
      9   0.000000D+00  0.000000D+00 -0.104380D+00  0.000000D+00  0.000000D+00
     10   0.000000D+00  0.000000D+00  0.000000D+00  0.000000D+00  0.000000D+00
     11   0.000000D+00  0.000000D+00  0.000000D+00 -0.167932D+00  0.000000D+00
     12   0.000000D+00  0.000000D+00  0.000000D+00 -0.115899D+00  0.000000D+00
     13   0.000000D+00  0.000000D+00  0.000000D+00 -0.731975D+00  0.000000D+00
     14   0.000000D+00  0.000000D+00  0.000000D+00  0.000000D+00  0.000000D+00
     15   0.000000D+00  0.000000D+00 -0.738929D-01  0.000000D+00  0.000000D+00
     16   0.000000D+00  0.000000D+00  0.000000D+00  0.000000D+00  0.000000D+00
               366           367           368           369           370 
      1  -0.751911D+02 -0.751825D+02 -0.751248D+02 -0.751235D+02 -0.750478D+02
      2   0.000000D+00  0.000000D+00  0.000000D+00  0.000000D+00  0.000000D+00
      3   0.000000D+00  0.000000D+00  0.000000D+00  0.000000D+00  0.000000D+00
      4  -0.129270D+00  0.000000D+00  0.000000D+00  0.000000D+00  0.000000D+00
      5   0.000000D+00  0.000000D+00  0.000000D+00  0.000000D+00  0.000000D+00
      6   0.000000D+00  0.000000D+00  0.000000D+00  0.000000D+00  0.000000D+00
      7   0.353211D+00  0.000000D+00  0.000000D+00  0.000000D+00  0.000000D+00
      8   0.000000D+00  0.104671D+00  0.000000D+00 -0.111335D+00  0.000000D+00
      9   0.000000D+00  0.000000D+00 -0.378133D+00  0.000000D+00  0.000000D+00
     10   0.000000D+00  0.000000D+00  0.000000D+00  0.000000D+00  0.000000D+00
     11   0.000000D+00  0.000000D+00  0.000000D+00  0.000000D+00 -0.377052D+00
     12   0.000000D+00  0.000000D+00  0.000000D+00  0.000000D+00  0.242424D+00
     13   0.000000D+00  0.000000D+00  0.000000D+00  0.000000D+00  0.911490D+00
     14   0.000000D+00  0.000000D+00  0.000000D+00  0.000000D+00  0.000000D+00
     15   0.000000D+00  0.000000D+00 -0.368786D+00  0.000000D+00  0.000000D+00
     16   0.000000D+00 -0.324262D+00  0.000000D+00 -0.908999D-01  0.000000D+00
               371           372           373           374           375 
      1  -0.750327D+02 -0.750199D+02 -0.749721D+02 -0.749347D+02 -0.749080D+02
      2   0.000000D+00  0.000000D+00  0.000000D+00  0.000000D+00  0.000000D+00
      3  -0.612921D-01  0.000000D+00  0.000000D+00 -0.165248D+00  0.000000D+00
      4   0.000000D+00  0.000000D+00  0.359876D-01  0.000000D+00  0.000000D+00
      5   0.000000D+00  0.000000D+00  0.000000D+00  0.000000D+00  0.000000D+00
      6   0.204609D+00  0.000000D+00  0.000000D+00  0.495572D+00  0.000000D+00
      7   0.000000D+00  0.000000D+00 -0.125473D+00  0.000000D+00  0.000000D+00
      8   0.000000D+00  0.000000D+00  0.000000D+00  0.000000D+00 -0.234733D+00
      9   0.000000D+00  0.000000D+00  0.000000D+00  0.000000D+00  0.000000D+00
     10   0.000000D+00  0.000000D+00  0.000000D+00  0.000000D+00  0.000000D+00
     11   0.000000D+00 -0.203781D+00  0.000000D+00  0.000000D+00  0.000000D+00
     12   0.000000D+00  0.249992D+00  0.000000D+00  0.000000D+00  0.000000D+00
     13   0.000000D+00 -0.568570D+00  0.000000D+00  0.000000D+00  0.000000D+00
     14   0.000000D+00  0.000000D+00  0.000000D+00  0.000000D+00  0.000000D+00
     15   0.000000D+00  0.000000D+00  0.000000D+00  0.000000D+00  0.000000D+00
     16   0.000000D+00  0.000000D+00  0.000000D+00  0.000000D+00  0.441206D+00
               376           377           378           379           380 
      1  -0.748974D+02 -0.748786D+02 -0.747973D+02 -0.747850D+02 -0.747387D+02
      2   0.000000D+00  0.000000D+00  0.000000D+00  0.000000D+00  0.000000D+00
      3   0.000000D+00  0.000000D+00  0.000000D+00  0.000000D+00  0.000000D+00
      4   0.000000D+00 -0.570173D-01  0.000000D+00  0.000000D+00  0.000000D+00
      5   0.000000D+00  0.000000D+00  0.000000D+00  0.000000D+00  0.000000D+00
      6   0.000000D+00  0.000000D+00  0.000000D+00  0.000000D+00  0.000000D+00
      7   0.000000D+00  0.175601D+00  0.000000D+00  0.000000D+00  0.000000D+00
      8   0.000000D+00  0.000000D+00  0.000000D+00  0.000000D+00  0.623589D+00
      9   0.000000D+00  0.000000D+00  0.000000D+00  0.000000D+00  0.000000D+00
     10   0.000000D+00  0.000000D+00  0.000000D+00  0.000000D+00  0.000000D+00
     11   0.000000D+00  0.000000D+00 -0.282696D-01 -0.181685D+00  0.000000D+00
     12   0.000000D+00  0.000000D+00 -0.333385D-01 -0.349922D-01  0.000000D+00
     13   0.000000D+00  0.000000D+00 -0.373022D+00 -0.540464D+00  0.000000D+00
     14   0.000000D+00  0.000000D+00  0.000000D+00  0.000000D+00  0.000000D+00
     15   0.000000D+00  0.000000D+00  0.000000D+00  0.000000D+00  0.000000D+00
     16   0.000000D+00  0.000000D+00  0.000000D+00  0.000000D+00 -0.732315D+00
               381           382           383           384 
      1  -0.746737D+02 -0.746182D+02 -0.745630D+02 -0.743905D+02
      2   0.000000D+00  0.000000D+00  0.000000D+00  0.000000D+00
      3   0.000000D+00  0.000000D+00 -0.162230D-02  0.000000D+00
      4   0.582894D-01  0.794898D-01  0.000000D+00  0.000000D+00
      5   0.000000D+00  0.000000D+00  0.000000D+00  0.000000D+00
      6   0.000000D+00  0.000000D+00 -0.151998D-01  0.000000D+00
      7  -0.220078D+00 -0.268481D+00  0.000000D+00  0.000000D+00
      8   0.000000D+00  0.000000D+00  0.000000D+00 -0.332103D+00
      9   0.000000D+00  0.000000D+00  0.000000D+00  0.000000D+00
     10   0.000000D+00  0.000000D+00  0.000000D+00  0.000000D+00
     11   0.000000D+00  0.000000D+00  0.000000D+00  0.000000D+00
     12   0.000000D+00  0.000000D+00  0.000000D+00  0.000000D+00
     13   0.000000D+00  0.000000D+00  0.000000D+00  0.000000D+00
     14   0.000000D+00  0.000000D+00  0.000000D+00  0.000000D+00
     15   0.000000D+00  0.000000D+00  0.000000D+00  0.000000D+00
     16   0.000000D+00  0.000000D+00  0.000000D+00  0.380267D+00
 Unable to Open any file for archive entry.
 1\1\GINC-HEL22\SP\RM062X TD-FC\Gen\C2H4\SABYASACHI\21-Mar-2022\0\\#P T
 D(Nstates=10000) m062x/Gen SCF(maxcycles=100) Int(Grid=ultrafine)\\xGD
 B7_00001_tier4.com\\0,1\C,0,0.,0.,0.660866\C,0,0.,0.,-0.660866\H,0,0.,
 0.922586,1.229258\H,0,0.,-0.922586,1.229258\H,0,0.,0.922586,-1.229258\
 H,0,0.,-0.922586,-1.229258\\Version=EM64L-G16RevC.01\State=1-AG\HF=-78
 .4829566\RMSD=4.803e-09\PG=D02H [C2"(C1.C1),SG(H4)]\\@
 The archive entry for this job was punched.


 TIME GOES, YOU SAY?  AH NO!
 ALAS, TIME STAYS, WE GO.
    -- A. DOBSON (1840-1921)
 Job cpu time:       0 days  0 hours  1 minutes 31.9 seconds.
 Elapsed time:       0 days  0 hours  0 minutes 11.7 seconds.
 File lengths (MBytes):  RWF=    194 Int=      0 D2E=      0 Chk=     49 Scr=      1
 Normal termination of Gaussian 16 at Mon Mar 21 20:10:32 2022.
