 Entering Gaussian System, Link 0=g16
 Input=000031.com
 Output=000031.log
 Initial command:
 /home/sabyasachi/g16/l1.exe "/scratch/sabyasachi/PBS_7976132.helios/Gau-26570.inp" -scrdir="/scratch/sabyasachi/PBS_7976132.helios/"
 Entering Link 1 = /home/sabyasachi/g16/l1.exe PID=     26571.
  
 Copyright (c) 1988-2019, Gaussian, Inc.  All Rights Reserved.
  
 This is part of the Gaussian(R) 16 program.  It is based on
 the Gaussian(R) 09 system (copyright 2009, Gaussian, Inc.),
 the Gaussian(R) 03 system (copyright 2003, Gaussian, Inc.),
 the Gaussian(R) 98 system (copyright 1998, Gaussian, Inc.),
 the Gaussian(R) 94 system (copyright 1995, Gaussian, Inc.),
 the Gaussian 92(TM) system (copyright 1992, Gaussian, Inc.),
 the Gaussian 90(TM) system (copyright 1990, Gaussian, Inc.),
 the Gaussian 88(TM) system (copyright 1988, Gaussian, Inc.),
 the Gaussian 86(TM) system (copyright 1986, Carnegie Mellon
 University), and the Gaussian 82(TM) system (copyright 1983,
 Carnegie Mellon University). Gaussian is a federally registered
 trademark of Gaussian, Inc.
  
 This software contains proprietary and confidential information,
 including trade secrets, belonging to Gaussian, Inc.
  
 This software is provided under written license and may be
 used, copied, transmitted, or stored only in accord with that
 written license.
  
 The following legend is applicable only to US Government
 contracts under FAR:
  
                    RESTRICTED RIGHTS LEGEND
  
 Use, reproduction and disclosure by the US Government is
 subject to restrictions as set forth in subparagraphs (a)
 and (c) of the Commercial Computer Software - Restricted
 Rights clause in FAR 52.227-19.
  
 Gaussian, Inc.
 340 Quinnipiac St., Bldg. 40, Wallingford CT 06492
  
  
 ---------------------------------------------------------------
 Warning -- This program may not be used in any manner that
 competes with the business of Gaussian, Inc. or will provide
 assistance to any competitor of Gaussian, Inc.  The licensee
 of this program is prohibited from giving any competitor of
 Gaussian, Inc. access to this program.  By using this program,
 the user acknowledges that Gaussian, Inc. is engaged in the
 business of creating and licensing software in the field of
 computational chemistry and represents and warrants to the
 licensee that it is not a competitor of Gaussian, Inc. and that
 it will not use this program in any manner prohibited above.
 ---------------------------------------------------------------
  

 Cite this work as:
 Gaussian 16, Revision C.01,
 M. J. Frisch, G. W. Trucks, H. B. Schlegel, G. E. Scuseria, 
 M. A. Robb, J. R. Cheeseman, G. Scalmani, V. Barone, 
 G. A. Petersson, H. Nakatsuji, X. Li, M. Caricato, A. V. Marenich, 
 J. Bloino, B. G. Janesko, R. Gomperts, B. Mennucci, H. P. Hratchian, 
 J. V. Ortiz, A. F. Izmaylov, J. L. Sonnenberg, D. Williams-Young, 
 F. Ding, F. Lipparini, F. Egidi, J. Goings, B. Peng, A. Petrone, 
 T. Henderson, D. Ranasinghe, V. G. Zakrzewski, J. Gao, N. Rega, 
 G. Zheng, W. Liang, M. Hada, M. Ehara, K. Toyota, R. Fukuda, 
 J. Hasegawa, M. Ishida, T. Nakajima, Y. Honda, O. Kitao, H. Nakai, 
 T. Vreven, K. Throssell, J. A. Montgomery, Jr., J. E. Peralta, 
 F. Ogliaro, M. J. Bearpark, J. J. Heyd, E. N. Brothers, K. N. Kudin, 
 V. N. Staroverov, T. A. Keith, R. Kobayashi, J. Normand, 
 K. Raghavachari, A. P. Rendell, J. C. Burant, S. S. Iyengar, 
 J. Tomasi, M. Cossi, J. M. Millam, M. Klene, C. Adamo, R. Cammi, 
 J. W. Ochterski, R. L. Martin, K. Morokuma, O. Farkas, 
 J. B. Foresman, and D. J. Fox, Gaussian, Inc., Wallingford CT, 2019.
 
 ******************************************
 Gaussian 16:  EM64L-G16RevC.01  3-Jul-2019
                21-Mar-2022 
 ******************************************
 %mem=64gb
 %nproc=8
 Will use up to    8 processors via shared memory.
 ---------------------------------------------------------------------
 #P TD(Nstates=10000) m062x/Gen SCF(maxcycles=100) Int(Grid=ultrafine)
 ---------------------------------------------------------------------
 1/38=1,172=1/1;
 2/12=2,17=6,18=5,40=1/2;
 3/5=7,11=9,25=1,30=1,74=-55,75=-5/1,2,3,8;
 4//1;
 5/5=2,7=100,38=5/2;
 8/6=1,10=1,108=10000/1;
 9/41=10000,42=1,70=2/14;
 6/7=2,8=2,9=2,10=2/1;
 99/5=1,9=1/99;
 Leave Link    1 at Mon Mar 21 20:08:18 2022, MaxMem=  8589934592 cpu:               0.4 elap:               0.1
 (Enter /home/sabyasachi/g16/l101.exe)
 ---------------------
 xGDB7_00001_tier4.com
 ---------------------
 Symbolic Z-matrix:
 Charge =  0 Multiplicity = 1
 6                     0.51685   0.69483   0. 
 6                    -0.86017   0.1002    0. 
 6                     0.34331  -0.79502   0. 
 1                     0.86651   1.16486   0.90918 
 1                     0.86651   1.16486  -0.90918 
 1                    -1.44205   0.16796  -0.90918 
 1                    -1.44205   0.16797   0.90918 
 1                     0.57557  -1.33284  -0.90918 
 1                     0.57557  -1.33284   0.90918 
 
 ITRead=  0  0  0  0  0  0  0  0  0
 MicOpt= -1 -1 -1 -1 -1 -1 -1 -1 -1
 NAtoms=      9 NQM=        9 NQMF=       0 NMMI=      0 NMMIF=      0
                NMic=       0 NMicF=      0.
                    Isotopes and Nuclear Properties:
 (Nuclear quadrupole moments (NQMom) in fm**2, nuclear magnetic moments (NMagM)
  in nuclear magnetons)

  Atom         1           2           3           4           5           6           7           8           9
 IAtWgt=          12          12          12           1           1           1           1           1           1
 AtmWgt=  12.0000000  12.0000000  12.0000000   1.0078250   1.0078250   1.0078250   1.0078250   1.0078250   1.0078250
 NucSpn=           0           0           0           1           1           1           1           1           1
 AtZEff=  -0.0000000  -0.0000000  -0.0000000  -0.0000000  -0.0000000  -0.0000000  -0.0000000  -0.0000000  -0.0000000
 NQMom=    0.0000000   0.0000000   0.0000000   0.0000000   0.0000000   0.0000000   0.0000000   0.0000000   0.0000000
 NMagM=    0.0000000   0.0000000   0.0000000   2.7928460   2.7928460   2.7928460   2.7928460   2.7928460   2.7928460
 AtZNuc=   6.0000000   6.0000000   6.0000000   1.0000000   1.0000000   1.0000000   1.0000000   1.0000000   1.0000000
 Leave Link  101 at Mon Mar 21 20:08:18 2022, MaxMem=  8589934592 cpu:               0.7 elap:               0.1
 (Enter /home/sabyasachi/g16/l202.exe)
                          Input orientation:                          
 ---------------------------------------------------------------------
 Center     Atomic      Atomic             Coordinates (Angstroms)
 Number     Number       Type             X           Y           Z
 ---------------------------------------------------------------------
      1          6           0        0.516845    0.694830    0.000000
      2          6           0       -0.860166    0.100195    0.000000
      3          6           0        0.343308   -0.795021    0.000000
      4          1           0        0.866514    1.164858    0.909176
      5          1           0        0.866513    1.164859   -0.909176
      6          1           0       -1.442047    0.167964   -0.909177
      7          1           0       -1.442048    0.167965    0.909176
      8          1           0        0.575574   -1.332837   -0.909179
      9          1           0        0.575574   -1.332837    0.909179
 ---------------------------------------------------------------------
                    Distance matrix (angstroms):
                    1          2          3          4          5
     1  C    0.000000
     2  C    1.499917   0.000000
     3  C    1.499924   1.499920   0.000000
     4  H    1.081571   2.222956   2.222942   0.000000
     5  H    1.081571   2.222955   2.222943   1.818352   0.000000
     6  H    2.222937   1.081564   2.222934   3.103169   2.514607
     7  H    2.222937   1.081564   2.222935   2.514608   3.103169
     8  H    2.222946   2.222957   1.081573   3.103150   2.514584
     9  H    2.222946   2.222957   1.081573   2.514583   3.103151
                    6          7          8          9
     6  H    0.000000
     7  H    1.818353   0.000000
     8  H    2.514597   3.103163   0.000000
     9  H    3.103162   2.514598   1.818358   0.000000
 Stoichiometry    C3H6
 Framework group  CS[SG(C3),X(H6)]
 Deg. of freedom    12
 Full point group                 CS      NOp   2
 Largest Abelian subgroup         CS      NOp   2
 Largest concise Abelian subgroup CS      NOp   2
                         Standard orientation:                         
 ---------------------------------------------------------------------
 Center     Atomic      Atomic             Coordinates (Angstroms)
 Number     Number       Type             X           Y           Z
 ---------------------------------------------------------------------
      1          6           0        0.000000    0.865978    0.000000
      2          6           0        0.749967   -0.432983    0.000000
      3          6           0       -0.749954   -0.432999    0.000000
      4          1           0       -0.000033    1.451806   -0.909176
      5          1           0       -0.000033    1.451806    0.909176
      6          1           0        1.257295   -0.725894    0.909177
      7          1           0        1.257295   -0.725894   -0.909177
      8          1           0       -1.257302   -0.725899    0.909179
      9          1           0       -1.257302   -0.725899   -0.909179
 ---------------------------------------------------------------------
 Rotational constants (GHZ):          20.3211092          20.3210941          12.7163454
 Leave Link  202 at Mon Mar 21 20:08:18 2022, MaxMem=  8589934592 cpu:               0.1 elap:               0.0
 (Enter /home/sabyasachi/g16/l301.exe)
 General basis read from cards:  (5D, 7F)
 Centers:       4      5      6      7      8      9
 S 3 1.00
     Exponent=  1.3010701000D+01 Coefficients=  1.9682158000D-02
     Exponent=  1.9622572000D+00 Coefficients=  1.3796524000D-01
     Exponent=  4.4453796000D-01 Coefficients=  4.7831935000D-01
 S 1 1.00
     Exponent=  1.2194962000D-01 Coefficients=  1.0000000000D+00
 P 1 1.00
     Exponent=  8.0000000000D-01 Coefficients=  1.0000000000D+00
 P 1 1.00
     Exponent=  1.1704099050D-01 Coefficients=  1.0000000000D+00
 ****
 Centers:       1      2      3
 S 5 1.00
     Exponent=  1.2384016938D+03 Coefficients=  5.4568832082D-03
     Exponent=  1.8629004992D+02 Coefficients=  4.0638409211D-02
     Exponent=  4.2251176346D+01 Coefficients=  1.8025593888D-01
     Exponent=  1.1676557932D+01 Coefficients=  4.6315121755D-01
     Exponent=  3.5930506482D+00 Coefficients=  4.4087173314D-01
 S 1 1.00
     Exponent=  4.0245147363D-01 Coefficients=  1.0000000000D+00
 S 1 1.00
     Exponent=  1.3090182668D-01 Coefficients=  1.0000000000D+00
 S 1 1.00
     Exponent=  6.7053540256D-02 Coefficients=  1.0000000000D+00
 P 3 1.00
     Exponent=  9.4680970621D+00 Coefficients=  3.8387871728D-02
     Exponent=  2.0103545142D+00 Coefficients=  2.1117025112D-01
     Exponent=  5.4771004707D-01 Coefficients=  5.1328172114D-01
 P 1 1.00
     Exponent=  1.5268613795D-01 Coefficients=  1.0000000000D+00
 D 1 1.00
     Exponent=  8.0000000000D-01 Coefficients=  1.0000000000D+00
 D 1 1.00
     Exponent=  1.1713185140D-01 Coefficients=  1.0000000000D+00
 ****
 Ernie: Thresh=  0.10000D-02 Tol=  0.10000D-05 Strict=F.
 There are    72 symmetry adapted cartesian basis functions of A'  symmetry.
 There are    42 symmetry adapted cartesian basis functions of A"  symmetry.
 There are    66 symmetry adapted basis functions of A'  symmetry.
 There are    42 symmetry adapted basis functions of A"  symmetry.
   108 basis functions,   156 primitive gaussians,   114 cartesian basis functions
    12 alpha electrons       12 beta electrons
       nuclear repulsion energy        76.0150796331 Hartrees.
 IExCor= 4336 DFT=T Ex+Corr=M062X ExCW=0 ScaHFX=  0.540000
 ScaDFX=  1.000000  1.000000  1.000000  1.000000 ScalE2=  1.000000  1.000000
 IRadAn=      5 IRanWt=     -1 IRanGd=            0 ICorTp=0 IEmpDi=  4
 NAtoms=    9 NActive=    9 NUniq=    6 SFac= 2.25D+00 NAtFMM=   60 NAOKFM=F Big=F
 Integral buffers will be    131072 words long.
 Regular integral format.
 Two-electron integral symmetry is turned on.
 Leave Link  301 at Mon Mar 21 20:08:18 2022, MaxMem=  8589934592 cpu:               0.5 elap:               0.1
 (Enter /home/sabyasachi/g16/l302.exe)
 NPDir=0 NMtPBC=     1 NCelOv=     1 NCel=       1 NClECP=     1 NCelD=      1
         NCelK=      1 NCelE2=     1 NClLst=     1 CellRange=     0.0.
 One-electron integrals computed using PRISM.
 One-electron integral symmetry used in STVInt
 NBasis=   108 RedAO= T EigKep=  1.77D-04  NBF=    66    42
 NBsUse=   108 1.00D-06 EigRej= -1.00D+00 NBFU=    66    42
 Precomputing XC quadrature grid using
 IXCGrd= 4 IRadAn=           5 IRanWt=          -1 IRanGd=           0 AccXCQ= 0.00D+00.
 Generated NRdTot=       0 NPtTot=           0 NUsed=           0 NTot=          32
 NSgBfM=   114   114   114   114   114 MxSgAt=     9 MxSgA2=     9.
 Leave Link  302 at Mon Mar 21 20:08:18 2022, MaxMem=  8589934592 cpu:               1.0 elap:               0.1
 (Enter /home/sabyasachi/g16/l303.exe)
 DipDrv:  MaxL=1.
 Leave Link  303 at Mon Mar 21 20:08:18 2022, MaxMem=  8589934592 cpu:               0.2 elap:               0.0
 (Enter /home/sabyasachi/g16/l308.exe)
 Leave Link  308 at Mon Mar 21 20:08:18 2022, MaxMem=  8589934592 cpu:               0.2 elap:               0.0
 (Enter /home/sabyasachi/g16/l401.exe)
 ExpMin= 6.71D-02 ExpMax= 1.24D+03 ExpMxC= 1.86D+02 IAcc=3 IRadAn=         5 AccDes= 0.00D+00
 Harris functional with IExCor= 1009 and IRadAn=       5 diagonalized for initial guess.
 HarFok:  IExCor= 1009 AccDes= 0.00D+00 IRadAn=         5 IDoV= 1 UseB2=F ITyADJ=14
 ICtDFT=  3500011 ScaDFX=  1.000000  1.000000  1.000000  1.000000
 FoFCou: FMM=F IPFlag=           0 FMFlag=      100000 FMFlg1=           0
         NFxFlg=           0 DoJE=T BraDBF=F KetDBF=T FulRan=T
         wScrn=  0.000000 ICntrl=       500 IOpCl=  0 I1Cent=   200000004 NGrid=           0
         NMat0=    1 NMatS0=      1 NMatT0=    0 NMatD0=    1 NMtDS0=    0 NMtDT0=    0
 Petite list used in FoFCou.
 Harris En= -117.744482372856    
 JPrj=0 DoOrth=F DoCkMO=F.
 Initial guess orbital symmetries:
       Occupied  (A') (A') (A') (A') (A') (A') (A") (A') (A") (A")
                 (A') (A')
       Virtual   (A') (A') (A") (A') (A') (A') (A") (A") (A') (A')
                 (A") (A') (A') (A') (A") (A") (A') (A') (A') (A')
                 (A") (A") (A') (A') (A") (A") (A') (A") (A") (A')
                 (A') (A') (A') (A') (A") (A") (A") (A') (A') (A')
                 (A') (A') (A") (A") (A") (A') (A") (A') (A') (A")
                 (A") (A') (A') (A') (A') (A") (A') (A') (A') (A')
                 (A') (A") (A") (A') (A") (A") (A') (A') (A") (A")
                 (A") (A") (A") (A') (A') (A') (A') (A") (A") (A')
                 (A') (A') (A') (A') (A") (A") (A") (A') (A') (A')
                 (A") (A') (A') (A') (A") (A")
 The electronic state of the initial guess is 1-A'.
 Leave Link  401 at Mon Mar 21 20:08:19 2022, MaxMem=  8589934592 cpu:               2.3 elap:               0.3
 (Enter /home/sabyasachi/g16/l502.exe)
 Keep R1 ints in memory in symmetry-blocked form, NReq=26033091.
 FoFCou: FMM=F IPFlag=           0 FMFlag=           0 FMFlg1=           0
         NFxFlg=           0 DoJE=F BraDBF=F KetDBF=F FulRan=T
         wScrn=  0.000000 ICntrl=       600 IOpCl=  0 I1Cent=           0 NGrid=           0
         NMat0=    1 NMatS0=   5886 NMatT0=    0 NMatD0=    1 NMtDS0=    0 NMtDT0=    0
 Petite list used in FoFCou.
 Closed shell SCF:
 Using DIIS extrapolation, IDIIS=  1040.
 NGot=  8589934592 LenX=  8581199601 LenY=  8581186164
 Requested convergence on RMS density matrix=1.00D-08 within 100 cycles.
 Requested convergence on MAX density matrix=1.00D-06.
 Requested convergence on             energy=1.00D-06.
 No special actions if energy rises.
 Integral accuracy reduced to 1.0D-05 until final iterations.

 Cycle   1  Pass 0  IDiag  1:
 E= -117.633068637808    
 DIIS: error= 3.65D-02 at cycle   1 NSaved=   1.
 NSaved= 1 IEnMin= 1 EnMin= -117.633068637808     IErMin= 1 ErrMin= 3.65D-02
 ErrMax= 3.65D-02  0.00D+00 EMaxC= 1.00D-01 BMatC= 1.06D-01 BMatP= 1.06D-01
 IDIUse=3 WtCom= 6.35D-01 WtEn= 3.65D-01
 Coeff-Com:  0.100D+01
 Coeff-En:   0.100D+01
 Coeff:      0.100D+01
 Gap=     0.312 Goal=   None    Shift=    0.000
 GapD=    0.312 DampG=1.000 DampE=0.500 DampFc=0.5000 IDamp=-1.
 Damping current iteration by 5.00D-01
 RMSDP=7.29D-03 MaxDP=1.28D-01              OVMax= 1.47D-01

 Cycle   2  Pass 0  IDiag  1:
 E= -117.691751677008     Delta-E=       -0.058683039200 Rises=F Damp=T
 DIIS: error= 7.37D-03 at cycle   2 NSaved=   2.
 NSaved= 2 IEnMin= 2 EnMin= -117.691751677008     IErMin= 2 ErrMin= 7.37D-03
 ErrMax= 7.37D-03  0.00D+00 EMaxC= 1.00D-01 BMatC= 4.96D-03 BMatP= 1.06D-01
 IDIUse=3 WtCom= 9.26D-01 WtEn= 7.37D-02
 Coeff-Com: -0.583D-01 0.106D+01
 Coeff-En:   0.000D+00 0.100D+01
 Coeff:     -0.540D-01 0.105D+01
 Gap=     0.403 Goal=   None    Shift=    0.000
 RMSDP=1.70D-03 MaxDP=2.33D-02 DE=-5.87D-02 OVMax= 7.60D-02

 Cycle   3  Pass 0  IDiag  1:
 E= -117.748987629458     Delta-E=       -0.057235952450 Rises=F Damp=F
 DIIS: error= 2.72D-03 at cycle   3 NSaved=   3.
 NSaved= 3 IEnMin= 3 EnMin= -117.748987629458     IErMin= 3 ErrMin= 2.72D-03
 ErrMax= 2.72D-03  0.00D+00 EMaxC= 1.00D-01 BMatC= 3.31D-04 BMatP= 4.96D-03
 IDIUse=3 WtCom= 9.73D-01 WtEn= 2.72D-02
 Coeff-Com: -0.387D-01 0.169D+00 0.870D+00
 Coeff-En:   0.000D+00 0.000D+00 0.100D+01
 Coeff:     -0.377D-01 0.164D+00 0.873D+00
 Gap=     0.402 Goal=   None    Shift=    0.000
 RMSDP=5.96D-04 MaxDP=1.35D-02 DE=-5.72D-02 OVMax= 5.22D-03

 Cycle   4  Pass 0  IDiag  1:
 E= -117.749270431708     Delta-E=       -0.000282802249 Rises=F Damp=F
 DIIS: error= 2.36D-04 at cycle   4 NSaved=   4.
 NSaved= 4 IEnMin= 4 EnMin= -117.749270431708     IErMin= 4 ErrMin= 2.36D-04
 ErrMax= 2.36D-04  0.00D+00 EMaxC= 1.00D-01 BMatC= 4.86D-06 BMatP= 3.31D-04
 IDIUse=3 WtCom= 9.98D-01 WtEn= 2.36D-03
 Coeff-Com: -0.376D-02 0.270D-02 0.119D+00 0.882D+00
 Coeff-En:   0.000D+00 0.000D+00 0.000D+00 0.100D+01
 Coeff:     -0.375D-02 0.270D-02 0.119D+00 0.882D+00
 Gap=     0.402 Goal=   None    Shift=    0.000
 RMSDP=6.86D-05 MaxDP=1.31D-03 DE=-2.83D-04 OVMax= 6.21D-04

 Cycle   5  Pass 0  IDiag  1:
 E= -117.749275387539     Delta-E=       -0.000004955831 Rises=F Damp=F
 DIIS: error= 2.75D-05 at cycle   5 NSaved=   5.
 NSaved= 5 IEnMin= 5 EnMin= -117.749275387539     IErMin= 5 ErrMin= 2.75D-05
 ErrMax= 2.75D-05  0.00D+00 EMaxC= 1.00D-01 BMatC= 3.17D-08 BMatP= 4.86D-06
 IDIUse=1 WtCom= 1.00D+00 WtEn= 0.00D+00
 Coeff-Com:  0.990D-03-0.159D-02-0.271D-01-0.131D+00 0.116D+01
 Coeff:      0.990D-03-0.159D-02-0.271D-01-0.131D+00 0.116D+01
 Gap=     0.402 Goal=   None    Shift=    0.000
 RMSDP=7.23D-06 MaxDP=6.66D-05 DE=-4.96D-06 OVMax= 1.49D-04

 Initial convergence to 1.0D-05 achieved.  Increase integral accuracy.
 Cycle   6  Pass 1  IDiag  1:
 E= -117.749279678838     Delta-E=       -0.000004291299 Rises=F Damp=F
 DIIS: error= 9.68D-06 at cycle   1 NSaved=   1.
 NSaved= 1 IEnMin= 1 EnMin= -117.749279678838     IErMin= 1 ErrMin= 9.68D-06
 ErrMax= 9.68D-06  0.00D+00 EMaxC= 1.00D-01 BMatC= 2.13D-08 BMatP= 2.13D-08
 IDIUse=1 WtCom= 1.00D+00 WtEn= 0.00D+00
 Coeff-Com:  0.100D+01
 Coeff:      0.100D+01
 Gap=     0.402 Goal=   None    Shift=    0.000
 RMSDP=7.23D-06 MaxDP=6.66D-05 DE=-4.29D-06 OVMax= 4.44D-05

 Cycle   7  Pass 1  IDiag  1:
 E= -117.749279701270     Delta-E=       -0.000000022432 Rises=F Damp=F
 DIIS: error= 2.36D-06 at cycle   2 NSaved=   2.
 NSaved= 2 IEnMin= 2 EnMin= -117.749279701270     IErMin= 2 ErrMin= 2.36D-06
 ErrMax= 2.36D-06  0.00D+00 EMaxC= 1.00D-01 BMatC= 7.42D-10 BMatP= 2.13D-08
 IDIUse=1 WtCom= 1.00D+00 WtEn= 0.00D+00
 Coeff-Com: -0.429D-02 0.100D+01
 Coeff:     -0.429D-02 0.100D+01
 Gap=     0.402 Goal=   None    Shift=    0.000
 RMSDP=2.07D-06 MaxDP=6.17D-05 DE=-2.24D-08 OVMax= 1.16D-05

 Cycle   8  Pass 1  IDiag  1:
 E= -117.749279701640     Delta-E=       -0.000000000370 Rises=F Damp=F
 DIIS: error= 1.94D-06 at cycle   3 NSaved=   3.
 NSaved= 3 IEnMin= 3 EnMin= -117.749279701640     IErMin= 3 ErrMin= 1.94D-06
 ErrMax= 1.94D-06  0.00D+00 EMaxC= 1.00D-01 BMatC= 4.38D-10 BMatP= 7.42D-10
 IDIUse=1 WtCom= 1.00D+00 WtEn= 0.00D+00
 Coeff-Com: -0.372D-01 0.444D+00 0.593D+00
 Coeff:     -0.372D-01 0.444D+00 0.593D+00
 Gap=     0.402 Goal=   None    Shift=    0.000
 RMSDP=2.85D-07 MaxDP=7.16D-06 DE=-3.70D-10 OVMax= 6.42D-06

 Cycle   9  Pass 1  IDiag  1:
 E= -117.749279702080     Delta-E=       -0.000000000440 Rises=F Damp=F
 DIIS: error= 1.83D-07 at cycle   4 NSaved=   4.
 NSaved= 4 IEnMin= 4 EnMin= -117.749279702080     IErMin= 4 ErrMin= 1.83D-07
 ErrMax= 1.83D-07  0.00D+00 EMaxC= 1.00D-01 BMatC= 5.37D-12 BMatP= 4.38D-10
 IDIUse=1 WtCom= 1.00D+00 WtEn= 0.00D+00
 Coeff-Com: -0.124D-02-0.174D-01 0.741D-01 0.944D+00
 Coeff:     -0.124D-02-0.174D-01 0.741D-01 0.944D+00
 Gap=     0.402 Goal=   None    Shift=    0.000
 RMSDP=8.40D-08 MaxDP=1.23D-06 DE=-4.40D-10 OVMax= 9.60D-07

 Cycle  10  Pass 1  IDiag  1:
 E= -117.749279702085     Delta-E=       -0.000000000005 Rises=F Damp=F
 DIIS: error= 4.37D-08 at cycle   5 NSaved=   5.
 NSaved= 5 IEnMin= 5 EnMin= -117.749279702085     IErMin= 5 ErrMin= 4.37D-08
 ErrMax= 4.37D-08  0.00D+00 EMaxC= 1.00D-01 BMatC= 1.74D-13 BMatP= 5.37D-12
 IDIUse=1 WtCom= 1.00D+00 WtEn= 0.00D+00
 Coeff-Com:  0.872D-03-0.188D-01-0.618D-02 0.172D+00 0.853D+00
 Coeff:      0.872D-03-0.188D-01-0.618D-02 0.172D+00 0.853D+00
 Gap=     0.402 Goal=   None    Shift=    0.000
 RMSDP=1.01D-08 MaxDP=1.47D-07 DE=-4.69D-12 OVMax= 2.77D-07

 Cycle  11  Pass 1  IDiag  1:
 E= -117.749279702086     Delta-E=       -0.000000000001 Rises=F Damp=F
 DIIS: error= 1.79D-08 at cycle   6 NSaved=   6.
 NSaved= 6 IEnMin= 6 EnMin= -117.749279702086     IErMin= 6 ErrMin= 1.79D-08
 ErrMax= 1.79D-08  0.00D+00 EMaxC= 1.00D-01 BMatC= 5.11D-14 BMatP= 1.74D-13
 IDIUse=1 WtCom= 1.00D+00 WtEn= 0.00D+00
 Coeff-Com:  0.552D-03-0.746D-02-0.952D-02-0.393D-02 0.372D+00 0.648D+00
 Coeff:      0.552D-03-0.746D-02-0.952D-02-0.393D-02 0.372D+00 0.648D+00
 Gap=     0.402 Goal=   None    Shift=    0.000
 RMSDP=3.81D-09 MaxDP=6.06D-08 DE=-1.05D-12 OVMax= 7.37D-08

 SCF Done:  E(RM062X) =  -117.749279702     A.U. after   11 cycles
            NFock= 11  Conv=0.38D-08     -V/T= 2.0126
 KE= 1.162869576549D+02 PE=-4.233303678638D+02 EE= 1.132790508737D+02
 Leave Link  502 at Mon Mar 21 20:08:22 2022, MaxMem=  8589934592 cpu:              22.7 elap:               2.9
 (Enter /home/sabyasachi/g16/l801.exe)
 DoSCS=F DFT=T ScalE2(SS,OS)=  1.000000  1.000000
 ExpMin= 6.71D-02 ExpMax= 1.24D+03 ExpMxC= 1.86D+02 IAcc=3 IRadAn=         5 AccDes= 0.00D+00
 HarFok:  IExCor=  205 AccDes= 0.00D+00 IRadAn=         5 IDoV=-2 UseB2=F ITyADJ=14
 ICtDFT= 12500011 ScaDFX=  1.000000  1.000000  1.000000  1.000000
 Largest valence mixing into a core orbital is  1.02D-04
 Largest core mixing into a valence orbital is  3.06D-05
 Range of M.O.s used for correlation:     4   108
 NBasis=   108 NAE=    12 NBE=    12 NFC=     3 NFV=     0
 NROrb=    105 NOA=     9 NOB=     9 NVA=    96 NVB=    96

 **** Warning!!: The largest alpha MO coefficient is  0.35499225D+02

 Leave Link  801 at Mon Mar 21 20:08:22 2022, MaxMem=  8589934592 cpu:               0.5 elap:               0.1
 (Enter /home/sabyasachi/g16/l914.exe)
 RHF ground state
 Keep R1, R2, and R3 ints in memory in symmetry-blocked form, NReq=926504017.
 FoFCou: FMM=F IPFlag=           0 FMFlag=           0 FMFlg1=           0
         NFxFlg=           0 DoJE=F BraDBF=F KetDBF=F FulRan=T
         wScrn=  0.000000 ICntrl=       600 IOpCl=  0 I1Cent=           0 NGrid=           0
         NMat0=    1 NMatS0=   5886 NMatT0=    0 NMatD0=    1 NMtDS0=    0 NMtDT0=    0
 Petite list used in FoFCou.
 MDV=  8589934592 DFT=T DoStab=F Mixed=T DoRPA=T DoScal=F NonHer=T
 Making orbital integer symmetry assigments:
 Orbital symmetries:
       Occupied  (A') (A') (A') (A') (A') (A') (A") (A') (A") (A")
                 (A') (A')
       Virtual   (A') (A') (A') (A") (A') (A") (A") (A') (A') (A')
                 (A') (A') (A") (A") (A") (A') (A') (A') (A') (A")
                 (A") (A') (A") (A") (A') (A') (A') (A') (A') (A')
                 (A') (A') (A") (A") (A") (A") (A") (A') (A') (A')
                 (A') (A') (A") (A") (A") (A") (A') (A') (A') (A")
                 (A") (A') (A') (A') (A') (A") (A') (A') (A') (A')
                 (A') (A") (A") (A") (A") (A') (A') (A') (A") (A")
                 (A") (A") (A") (A') (A') (A') (A') (A") (A") (A')
                 (A') (A') (A') (A') (A") (A") (A") (A') (A') (A')
                 (A") (A') (A') (A') (A") (A")
   864 initial guesses have been made.
 Convergence on wavefunction:    0.001000000000000
 Davidson Disk Diagonalization:  ConvIn= 1.00D-03 SkipCon=T Conv= 1.00D-03.
 Max sub-space:  5184 roots to seek:  1728 dimension of matrix:         1728
 *** WARNING: Number of orthogonal guesses is          864
 Iteration     1 Dimension   864 NMult     0 NNew    864
 CISAX will form   864 AO SS matrices at one time.
 NMat=   864 NSing=   864 JSym2X=-1.
 New state      3 was old state      4
 New state      4 was old state      3
 New state     13 was old state     14
 New state     14 was old state     13
 New state     17 was old state     21
 New state     18 was old state     22
 New state     19 was old state     18
 New state     20 was old state     23
 New state     21 was old state     24
 New state     22 was old state     17
 New state     23 was old state     19
 New state     24 was old state     20
 New state     27 was old state     28
 New state     28 was old state     30
 New state     30 was old state     27
 New state     31 was old state     46
 New state     32 was old state     47
 New state     33 was old state     32
 New state     34 was old state     35
 New state     35 was old state     36
 New state     36 was old state     31
 New state     37 was old state     33
 New state     38 was old state     34
 New state     40 was old state     38
 New state     41 was old state     40
 New state     42 was old state     41
 New state     43 was old state     37
 New state     44 was old state     50
 New state     45 was old state     51
 New state     46 was old state     43
 New state     47 was old state     42
 New state     48 was old state     45
 New state     49 was old state     54
 New state     50 was old state     55
 New state     51 was old state     56
 New state     52 was old state     48
 New state     53 was old state     49
 New state     54 was old state     57
 New state     55 was old state     44
 New state     56 was old state     52
 New state     57 was old state     53
 New state     58 was old state     74
 New state     59 was old state     64
 New state     60 was old state     65
 New state     61 was old state     60
 New state     62 was old state     61
 New state     63 was old state     67
 New state     64 was old state     62
 New state     65 was old state     58
 New state     66 was old state     59
 New state     67 was old state     63
 New state     69 was old state     66
 New state     71 was old state     72
 New state     72 was old state     73
 New state     73 was old state     69
 New state     74 was old state     85
 New state     75 was old state     77
 New state     76 was old state     75
 New state     77 was old state     76
 New state     80 was old state     71
 New state     81 was old state     96
 New state     82 was old state     83
 New state     83 was old state     84
 New state     84 was old state     88
 New state     85 was old state     89
 New state     86 was old state     82
 New state     87 was old state     86
 New state     88 was old state     87
 New state     89 was old state     80
 New state     90 was old state     81
 New state     91 was old state     92
 New state     92 was old state     93
 New state     93 was old state    101
 New state     94 was old state    102
 New state     95 was old state    104
 New state     96 was old state     90
 New state     97 was old state     91
 New state     98 was old state    103
 New state     99 was old state    122
 New state    100 was old state     94
 New state    101 was old state     95
 New state    102 was old state    116
 New state    103 was old state    117
 New state    104 was old state    113
 New state    105 was old state    111
 New state    106 was old state    112
 New state    107 was old state    105
 New state    108 was old state    106
 New state    109 was old state    108
 New state    110 was old state     98
 New state    111 was old state     99
 New state    112 was old state     97
 New state    113 was old state    100
 New state    114 was old state    107
 New state    115 was old state    109
 New state    116 was old state    120
 New state    117 was old state    118
 New state    118 was old state    119
 New state    119 was old state    130
 New state    120 was old state    124
 New state    121 was old state    125
 New state    122 was old state    126
 New state    123 was old state    127
 New state    124 was old state    110
 New state    125 was old state    114
 New state    126 was old state    115
 New state    127 was old state    147
 New state    128 was old state    121
 New state    129 was old state    123
 New state    130 was old state    131
 New state    131 was old state    132
 New state    132 was old state    128
 New state    133 was old state    129
 New state    134 was old state    139
 New state    135 was old state    150
 New state    136 was old state    135
 New state    137 was old state    136
 New state    138 was old state    133
 New state    139 was old state    134
 New state    140 was old state    138
 New state    141 was old state    146
 New state    142 was old state    148
 New state    143 was old state    149
 New state    144 was old state    151
 New state    145 was old state    153
 New state    146 was old state    137
 New state    147 was old state    154
 New state    148 was old state    144
 New state    149 was old state    145
 New state    150 was old state    152
 New state    151 was old state    141
 New state    152 was old state    140
 New state    153 was old state    142
 New state    154 was old state    143
 New state    155 was old state    163
 New state    156 was old state    164
 New state    157 was old state    166
 New state    158 was old state    169
 New state    159 was old state    170
 New state    160 was old state    157
 New state    161 was old state    165
 New state    162 was old state    167
 New state    163 was old state    155
 New state    164 was old state    156
 New state    165 was old state    160
 New state    166 was old state    210
 New state    167 was old state    171
 New state    168 was old state    172
 New state    169 was old state    175
 New state    170 was old state    173
 New state    171 was old state    174
 New state    172 was old state    177
 New state    173 was old state    178
 New state    174 was old state    158
 New state    175 was old state    168
 New state    176 was old state    159
 New state    177 was old state    161
 New state    178 was old state    162
 New state    179 was old state    176
 New state    180 was old state    191
 New state    184 was old state    194
 New state    185 was old state    180
 New state    186 was old state    185
 New state    187 was old state    184
 New state    188 was old state    189
 New state    189 was old state    190
 New state    190 was old state    202
 New state    191 was old state    203
 New state    192 was old state    204
 New state    193 was old state    205
 New state    194 was old state    179
 New state    195 was old state    192
 New state    196 was old state    199
 New state    197 was old state    195
 New state    198 was old state    196
 New state    199 was old state    198
 New state    200 was old state    197
 New state    201 was old state    188
 New state    202 was old state    200
 New state    203 was old state    201
 New state    204 was old state    186
 New state    205 was old state    211
 New state    206 was old state    212
 New state    208 was old state    206
 New state    209 was old state    208
 New state    210 was old state    213
 New state    211 was old state    209
 New state    212 was old state    229
 New state    213 was old state    193
 New state    214 was old state    231
 New state    216 was old state    214
 New state    217 was old state    216
 New state    218 was old state    223
 New state    219 was old state    224
 New state    220 was old state    217
 New state    221 was old state    219
 New state    222 was old state    220
 New state    223 was old state    221
 New state    224 was old state    222
 New state    227 was old state    234
 New state    228 was old state    227
 New state    229 was old state    228
 New state    230 was old state    239
 New state    231 was old state    218
 New state    234 was old state    230
 New state    237 was old state    242
 New state    238 was old state    240
 New state    239 was old state    243
 New state    240 was old state    241
 New state    241 was old state    237
 New state    242 was old state    238
 New state    243 was old state    248
 New state    244 was old state    246
 New state    245 was old state    247
 New state    246 was old state    256
 New state    247 was old state    257
 New state    248 was old state    251
 New state    249 was old state    252
 New state    250 was old state    262
 New state    251 was old state    253
 New state    252 was old state    254
 New state    253 was old state    244
 New state    254 was old state    245
 New state    255 was old state    261
 New state    256 was old state    249
 New state    257 was old state    250
 New state    258 was old state    255
 New state    259 was old state    258
 New state    261 was old state    263
 New state    262 was old state    265
 New state    263 was old state    273
 New state    264 was old state    271
 New state    265 was old state    274
 New state    266 was old state    272
 New state    267 was old state    264
 New state    268 was old state    259
 New state    269 was old state    282
 New state    270 was old state    269
 New state    271 was old state    270
 New state    272 was old state    267
 New state    273 was old state    268
 New state    274 was old state    378
 New state    275 was old state    279
 New state    276 was old state    289
 New state    277 was old state    290
 New state    278 was old state    275
 New state    279 was old state    276
 New state    282 was old state    291
 New state    283 was old state    287
 New state    284 was old state    288
 New state    287 was old state    296
 New state    288 was old state    295
 New state    289 was old state    277
 New state    290 was old state    278
 No map to state    291
 New state    295 was old state    325
 New state    296 was old state    297
 New state    297 was old state    298
 New state    298 was old state    304
 New state    299 was old state    305
 New state    300 was old state    307
 New state    301 was old state    299
 New state    302 was old state    306
 New state    303 was old state    302
 New state    304 was old state    313
 New state    305 was old state    314
 New state    306 was old state    301
 New state    307 was old state    300
 New state    308 was old state    312
 New state    309 was old state    315
 New state    310 was old state    316
 New state    311 was old state    303
 New state    312 was old state    308
 New state    313 was old state    309
 New state    314 was old state    318
 New state    315 was old state    317
 New state    316 was old state    311
 New state    317 was old state    310
 New state    318 was old state    331
 New state    319 was old state    329
 New state    320 was old state    341
 New state    321 was old state    342
 New state    323 was old state    321
 New state    325 was old state    323
 New state    326 was old state    332
 New state    327 was old state    319
 New state    328 was old state    320
 New state    329 was old state    330
 New state    330 was old state    328
 New state    331 was old state    335
 New state    332 was old state    333
 No map to state    333
 New state    334 was old state    345
 New state    335 was old state    346
 No map to state    336
 New state    337 was old state    326
 New state    338 was old state    327
 New state    339 was old state    334
 New state    340 was old state    339
 New state    341 was old state    340
 New state    342 was old state    343
 New state    343 was old state    344
 New state    344 was old state    336
 New state    345 was old state    337
 New state    346 was old state    338
 New state    347 was old state    351
 New state    348 was old state    355
 New state    351 was old state    347
 New state    352 was old state    348
 New state    353 was old state    352
 New state    354 was old state    353
 New state    355 was old state    356
 New state    356 was old state    354
 New state    358 was old state    360
 New state    359 was old state    358
 New state    360 was old state    359
 New state    364 was old state    366
 New state    365 was old state    364
 New state    366 was old state    365
 New state    367 was old state    380
 New state    368 was old state    369
 New state    369 was old state    370
 New state    370 was old state    381
 New state    371 was old state    379
 New state    372 was old state    367
 New state    373 was old state    368
 New state    375 was old state    373
 New state    376 was old state    371
 New state    377 was old state    372
 New state    378 was old state    377
 New state    379 was old state    376
 New state    380 was old state    375
 New state    381 was old state    385
 New state    382 was old state    383
 New state    383 was old state    382
 New state    384 was old state    390
 New state    385 was old state    384
 New state    386 was old state    388
 New state    387 was old state    394
 New state    388 was old state    389
 New state    389 was old state    391
 New state    390 was old state    392
 New state    391 was old state    396
 New state    392 was old state    397
 No map to state    393
 New state    394 was old state    387
 New state    395 was old state    386
 New state    396 was old state    393
 New state    397 was old state    395
 New state    398 was old state    402
 New state    399 was old state    398
 New state    400 was old state    399
 New state    402 was old state    408
 New state    403 was old state    409
 New state    404 was old state    400
 New state    405 was old state    420
 New state    406 was old state    427
 New state    407 was old state    428
 New state    408 was old state    405
 New state    409 was old state    406
 New state    410 was old state    407
 New state    412 was old state    403
 New state    413 was old state    404
 New state    414 was old state    410
 New state    415 was old state    422
 New state    418 was old state    414
 New state    419 was old state    415
 New state    420 was old state    412
 New state    421 was old state    413
 New state    422 was old state    419
 New state    423 was old state    429
 New state    424 was old state    430
 New state    427 was old state    436
 New state    428 was old state    437
 New state    429 was old state    424
 New state    430 was old state    431
 New state    431 was old state    432
 New state    432 was old state    434
 New state    433 was old state    435
 New state    434 was old state    418
 New state    435 was old state    423
 New state    436 was old state    442
 New state    437 was old state    448
 New state    438 was old state    449
 New state    439 was old state    421
 New state    440 was old state    433
 New state    441 was old state    438
 New state    442 was old state    439
 New state    443 was old state    440
 New state    444 was old state    441
 New state    445 was old state    446
 New state    446 was old state    447
 New state    447 was old state    444
 New state    448 was old state    445
 New state    449 was old state    443
 New state    456 was old state    463
 New state    457 was old state    467
 New state    458 was old state    459
 New state    459 was old state    460
 New state    460 was old state    464
 New state    461 was old state    466
 New state    462 was old state    465
 New state    463 was old state    457
 New state    464 was old state    458
 New state    465 was old state    456
 New state    466 was old state    461
 New state    467 was old state    462
 New state    468 was old state    471
 New state    469 was old state    470
 New state    470 was old state    475
 New state    471 was old state    473
 New state    473 was old state    478
 New state    474 was old state    479
 New state    475 was old state    480
 New state    476 was old state    474
 New state    477 was old state    487
 New state    478 was old state    483
 New state    479 was old state    481
 New state    480 was old state    484
 New state    481 was old state    485
 New state    483 was old state    476
 New state    484 was old state    477
 New state    485 was old state    468
 New state    486 was old state    469
 New state    487 was old state    493
 New state    488 was old state    486
 New state    490 was old state    488
 New state    491 was old state    490
 New state    492 was old state    494
 New state    493 was old state    492
 New state    494 was old state    497
 New state    495 was old state    491
 New state    496 was old state    495
 New state    497 was old state    498
 New state    498 was old state    499
 New state    499 was old state    496
 New state    502 was old state    510
 New state    503 was old state    511
 New state    504 was old state    502
 New state    506 was old state    503
 New state    508 was old state    516
 New state    509 was old state    506
 New state    510 was old state    508
 New state    511 was old state    504
 New state    512 was old state    514
 New state    513 was old state    515
 New state    514 was old state    517
 New state    515 was old state    509
 New state    516 was old state    520
 New state    517 was old state    521
 New state    518 was old state    519
 New state    519 was old state    512
 New state    520 was old state    513
 New state    521 was old state    518
 New state    526 was old state    527
 New state    527 was old state    532
 New state    528 was old state    533
 New state    529 was old state    530
 New state    530 was old state    531
 New state    531 was old state    529
 New state    532 was old state    528
 New state    533 was old state    526
 New state    535 was old state    536
 New state    536 was old state    535
 New state    537 was old state    538
 New state    538 was old state    539
 New state    539 was old state    537
 New state    547 was old state    553
 New state    548 was old state    556
 New state    549 was old state    554
 New state    550 was old state    548
 New state    553 was old state    555
 New state    554 was old state    559
 New state    555 was old state    560
 New state    556 was old state    557
 New state    557 was old state    558
 New state    558 was old state    549
 New state    559 was old state    547
 New state    560 was old state    561
 New state    561 was old state    550
 New state    562 was old state    566
 New state    564 was old state    567
 New state    565 was old state    568
 New state    566 was old state    562
 New state    567 was old state    564
 New state    568 was old state    565
 New state    569 was old state    573
 New state    570 was old state    576
 New state    571 was old state    574
 New state    572 was old state    570
 New state    573 was old state    571
 New state    574 was old state    569
 New state    576 was old state    572
 New state    577 was old state    585
 New state    578 was old state    586
 New state    579 was old state    580
 New state    580 was old state    577
 New state    581 was old state    578
 New state    582 was old state    583
 New state    583 was old state    584
 New state    584 was old state    581
 New state    585 was old state    579
 New state    586 was old state    587
 New state    587 was old state    582
 New state    588 was old state    595
 New state    589 was old state    590
 New state    590 was old state    591
 New state    591 was old state    588
 New state    592 was old state    589
 New state    593 was old state    594
 New state    594 was old state    592
 New state    595 was old state    593
 New state    598 was old state    602
 New state    599 was old state    598
 New state    600 was old state    599
 New state    601 was old state    600
 New state    602 was old state    601
 New state    604 was old state    605
 New state    605 was old state    604
 New state    606 was old state    607
 New state    607 was old state    606
 New state    608 was old state    611
 New state    609 was old state    614
 New state    610 was old state    615
 New state    611 was old state    609
 New state    612 was old state    608
 New state    613 was old state    610
 New state    614 was old state    612
 New state    615 was old state    613
 New state    619 was old state    623
 New state    620 was old state    624
 New state    621 was old state    622
 New state    622 was old state    619
 New state    623 was old state    621
 New state    624 was old state    620
 New state    626 was old state    629
 New state    627 was old state    626
 New state    628 was old state    627
 New state    629 was old state    628
 New state    632 was old state    634
 New state    633 was old state    632
 New state    634 was old state    633
 New state    641 was old state    646
 New state    642 was old state    647
 New state    644 was old state    642
 New state    645 was old state    648
 New state    646 was old state    649
 New state    647 was old state    644
 New state    648 was old state    645
 New state    649 was old state    641
 New state    650 was old state    652
 New state    651 was old state    650
 New state    652 was old state    651
 New state    653 was old state    655
 New state    654 was old state    653
 New state    655 was old state    656
 New state    656 was old state    657
 New state    657 was old state    654
 New state    658 was old state    659
 New state    659 was old state    658
 New state    660 was old state    663
 New state    661 was old state    662
 New state    662 was old state    665
 New state    663 was old state    664
 New state    664 was old state    666
 New state    665 was old state    660
 New state    666 was old state    661
 New state    667 was old state    676
 New state    668 was old state    667
 New state    669 was old state    670
 New state    670 was old state    671
 New state    671 was old state    668
 New state    672 was old state    669
 New state    673 was old state    677
 New state    674 was old state    672
 New state    675 was old state    673
 New state    676 was old state    675
 New state    677 was old state    674
 New state    679 was old state    680
 New state    680 was old state    683
 New state    681 was old state    679
 New state    683 was old state    681
 New state    685 was old state    686
 New state    686 was old state    685
 New state    691 was old state    692
 New state    692 was old state    693
 New state    693 was old state    694
 New state    694 was old state    691
 New state    696 was old state    697
 New state    697 was old state    699
 New state    698 was old state    700
 New state    699 was old state    698
 New state    700 was old state    696
 New state    701 was old state    704
 New state    702 was old state    703
 New state    703 was old state    701
 New state    704 was old state    702
 New state    708 was old state    711
 New state    709 was old state    712
 New state    710 was old state    716
 New state    711 was old state    717
 New state    712 was old state    710
 New state    713 was old state    708
 New state    714 was old state    709
 New state    715 was old state    714
 New state    716 was old state    713
 New state    717 was old state    718
 New state    718 was old state    719
 New state    719 was old state    726
 New state    720 was old state    715
 New state    721 was old state    720
 New state    722 was old state    723
 New state    723 was old state    722
 New state    724 was old state    725
 New state    725 was old state    724
 New state    726 was old state    721
 New state    731 was old state    734
 New state    732 was old state    731
 New state    734 was old state    732
 New state    736 was old state    737
 New state    737 was old state    736
 New state    738 was old state    739
 New state    739 was old state    738
 New state    744 was old state    746
 New state    745 was old state    747
 New state    746 was old state    744
 New state    747 was old state    745
 New state    752 was old state    757
 New state    753 was old state    755
 New state    754 was old state    756
 New state    755 was old state    752
 New state    756 was old state    753
 New state    757 was old state    754
 New state    763 was old state    766
 New state    764 was old state    767
 New state    765 was old state    763
 New state    766 was old state    765
 New state    767 was old state    764
 New state    768 was old state    774
 New state    769 was old state    770
 New state    770 was old state    768
 New state    771 was old state    769
 New state    772 was old state    771
 New state    773 was old state    772
 New state    774 was old state    773
 New state    775 was old state    776
 New state    776 was old state    777
 New state    777 was old state    775
 New state    780 was old state    781
 New state    781 was old state    782
 New state    782 was old state    783
 New state    783 was old state    785
 New state    784 was old state    786
 New state    785 was old state    780
 New state    786 was old state    784
 New state    788 was old state    790
 New state    789 was old state    791
 New state    790 was old state    788
 New state    791 was old state    789
 New state    801 was old state    803
 New state    802 was old state    804
 New state    803 was old state    801
 New state    804 was old state    802
 New state    805 was old state    808
 New state    808 was old state    811
 New state    810 was old state    805
 New state    811 was old state    810
 New state    814 was old state    815
 New state    815 was old state    820
 New state    816 was old state    814
 New state    817 was old state    818
 New state    818 was old state    816
 New state    820 was old state    817
 New state    821 was old state    823
 New state    822 was old state    821
 New state    823 was old state    822
 New state    825 was old state    827
 New state    826 was old state    828
 New state    827 was old state    832
 New state    828 was old state    825
 New state    829 was old state    826
 New state    830 was old state    833
 New state    831 was old state    834
 New state    832 was old state    830
 New state    833 was old state    829
 New state    834 was old state    831
 New state    835 was old state    839
 New state    836 was old state    835
 New state    837 was old state    836
 New state    838 was old state    837
 New state    839 was old state    838
 New state    841 was old state    843
 New state    842 was old state    841
 New state    843 was old state    842
 New state    847 was old state    849
 New state    848 was old state    847
 New state    849 was old state    850
 New state    850 was old state    851
 New state    851 was old state    848
 New state    852 was old state    854
 New state    853 was old state    852
 New state    854 was old state    853
 New state    858 was old state    860
 New state    859 was old state    858
 New state    860 was old state    859
 Excitation Energies [eV] at current iteration:
 Root      1 :     8.158944996678141
 Root      2 :     8.159133604899074
 Root      3 :     8.780839952375343
 Root      4 :     8.895473063481997
 Root      5 :     8.904821105445755
 Root      6 :     8.904824542171021
 Root      7 :     9.075659960620614
 Root      8 :     9.075856028418768
 Root      9 :     9.997428833281139
 Root     10 :     9.997532816256436
 Root     11 :    10.244513930371760
 Root     12 :    10.244688991480880
 Root     13 :    10.673570349570870
 Root     14 :    10.898334254399930
 Root     15 :    10.898337442522420
 Root     16 :    10.909738836920780
 Root     17 :    10.980254676992830
 Root     18 :    10.980438331808730
 Root     19 :    11.274979648941170
 Root     20 :    11.363171374730840
 Root     21 :    11.363266129283980
 Root     22 :    11.427148639572520
 Root     23 :    11.427167592973080
 Root     24 :    11.512927378799320
 Root     25 :    11.851861992453560
 Root     26 :    11.892295547975780
 Root     27 :    11.892357224383470
 Root     28 :    12.156716115877430
 Root     29 :    12.156745116989970
 Root     30 :    12.197096102963960
 Root     31 :    12.245348660994300
 Root     32 :    12.245437052176540
 Root     33 :    12.515174733526810
 Root     34 :    12.527109353532690
 Root     35 :    12.527238284674820
 Root     36 :    12.756363418147800
 Root     37 :    12.758996932520060
 Root     38 :    12.759015571830180
 Root     39 :    12.981492041552250
 Root     40 :    12.981505967031950
 Root     41 :    13.042597898568300
 Root     42 :    13.080484029042100
 Root     43 :    13.231953458822650
 Root     44 :    13.376997340135800
 Root     45 :    13.377159747942620
 Root     46 :    13.629143484974310
 Root     47 :    13.629147869411640
 Root     48 :    13.655303071849500
 Root     49 :    13.720984073408180
 Root     50 :    13.766673536879380
 Root     51 :    13.766712289969470
 Root     52 :    13.802549394740610
 Root     53 :    13.802600192361670
 Root     54 :    14.010890965748830
 Root     55 :    14.036781186716850
 Root     56 :    14.161383443209670
 Root     57 :    14.194587038575890
 Root     58 :    14.669861867929740
 Root     59 :    14.716256067493040
 Root     60 :    14.716331014151730
 Root     61 :    14.725663588496370
 Root     62 :    14.725683040548040
 Root     63 :    14.780758055288400
 Root     64 :    14.882652768905110
 Root     65 :    14.892385753092800
 Root     66 :    14.892430948295350
 Root     67 :    14.933706573370420
 Root     68 :    15.100865192497740
 Root     69 :    15.100873393209200
 Root     70 :    15.110562436835100
 Root     71 :    15.221408060153360
 Root     72 :    15.221495324392530
 Root     73 :    15.309878860670240
 Root     74 :    15.313563523337340
 Root     75 :    15.389163887398750
 Root     76 :    15.389187678674840
 Root     77 :    15.416427915118740
 Root     78 :    15.579722463174930
 Root     79 :    15.579899153547950
 Root     80 :    15.752012040465760
 Root     81 :    15.911896995597710
 Root     82 :    16.212128470569140
 Root     83 :    16.212245426610160
 Root     84 :    16.229160648041980
 Root     85 :    16.229326225653280
 Root     86 :    16.313441470348200
 Root     87 :    16.313473336621530
 Root     88 :    16.313590301827710
 Root     89 :    16.426723261988540
 Root     90 :    16.426890521277700
 Root     91 :    16.953522218499230
 Root     92 :    16.953566445985440
 Root     93 :    17.004077633670660
 Root     94 :    17.149476249373070
 Root     95 :    17.149496472141570
 Root     96 :    17.160835308249670
 Root     97 :    17.160927837195380
 Root     98 :    17.486384126024640
 Root     99 :    17.521372488039030
 Root    100 :    17.523138443540500
 Root    101 :    17.523167779483320
 Root    102 :    17.557250154036250
 Root    103 :    17.557311359736470
 Root    104 :    17.587917486017850
 Root    105 :    17.616185737162700
 Root    106 :    17.616233827733590
 Root    107 :    17.616412643297100
 Root    108 :    17.616438643774410
 Root    109 :    17.672290378998050
 Root    110 :    17.700828193754080
 Root    111 :    17.749006784988640
 Root    112 :    17.749038976152300
 Root    113 :    17.756153461896130
 Root    114 :    17.838152740909470
 Root    115 :    17.838189368851190
 Root    116 :    17.991364345084360
 Root    117 :    17.993051681190220
 Root    118 :    17.993102905156050
 Root    119 :    18.026684227513240
 Root    120 :    18.034422808577350
 Root    121 :    18.034486515599530
 Root    122 :    18.061007242330820
 Root    123 :    18.061160841488570
 Root    124 :    18.071484584849580
 Root    125 :    18.272522929792810
 Root    126 :    18.272568477077050
 Root    127 :    18.317707012682170
 Root    128 :    18.351718643669300
 Root    129 :    18.351738000595990
 Root    130 :    18.368740518753970
 Root    131 :    18.368808474786290
 Root    132 :    18.404282385892330
 Root    133 :    18.404324434126680
 Root    134 :    18.436297491683830
 Root    135 :    18.489267781329170
 Root    136 :    18.567494320993980
 Root    137 :    18.567575253643850
 Root    138 :    18.628952799180220
 Root    139 :    18.629000202358800
 Root    140 :    18.654800533347580
 Root    141 :    18.676587171542490
 Root    142 :    18.676603163449580
 Root    143 :    18.729648286652290
 Root    144 :    18.765838391959360
 Root    145 :    18.765900157208060
 Root    146 :    18.815267223359270
 Root    147 :    18.936223650892680
 Root    148 :    18.997791674367610
 Root    149 :    18.997813746843790
 Root    150 :    19.055673401690890
 Root    151 :    19.086469656971190
 Root    152 :    19.086496355282880
 Root    153 :    19.120926606536760
 Root    154 :    19.120982364221560
 Root    155 :    19.626961309646910
 Root    156 :    19.627084289338590
 Root    157 :    19.670678940391120
 Root    158 :    19.718011812044090
 Root    159 :    19.718150791963700
 Root    160 :    19.725730955363420
 Root    161 :    19.863337400131370
 Root    162 :    19.863397649848380
 Root    163 :    19.928866535654260
 Root    164 :    19.928878862247900
 Root    165 :    20.059353046281100
 Root    166 :    20.060548783376090
 Root    167 :    20.075371861380270
 Root    168 :    20.075424993593470
 Root    169 :    20.105878777950520
 Root    170 :    20.176330072956050
 Root    171 :    20.176346052686000
 Root    172 :    20.177259812565250
 Root    173 :    20.177284678921110
 Root    174 :    20.210810405351890
 Root    175 :    20.261787566711640
 Root    176 :    20.327788079365790
 Root    177 :    20.337523738372110
 Root    178 :    20.337530255440690
 Root    179 :    20.419910092601190
 Root    180 :    20.486229775095870
 Root    181 :    20.546576903077800
 Root    182 :    20.546613168297970
 Root    183 :    20.555245836407020
 Root    184 :    20.644476089877410
 Root    185 :    20.717435462015480
 Root    186 :    20.721140040064010
 Root    187 :    20.721164613745440
 Root    188 :    20.773467589462470
 Root    189 :    20.773528895640600
 Root    190 :    20.788510396868400
 Root    191 :    20.873347004643680
 Root    192 :    20.912575751063130
 Root    193 :    20.912585943941710
 Root    194 :    20.931497073927560
 Root    195 :    20.931550131663430
 Root    196 :    20.975807856911790
 Root    197 :    21.018255526157770
 Root    198 :    21.114531979167650
 Root    199 :    21.143648319116000
 Root    200 :    21.143664809627330
 Root    201 :    21.149704313173660
 Root    202 :    21.164610679598630
 Root    203 :    21.164634651005700
 Root    204 :    21.278206583878320
 Root    205 :    21.416206544907930
 Root    206 :    21.416264971738470
 Root    207 :    21.467209876873150
 Root    208 :    21.548680311883090
 Root    209 :    21.548691925733370
 Root    210 :    21.692558625780730
 Root    211 :    21.731602088159890
 Root    212 :    21.741228021883970
 Root    213 :    21.847848797936150
 Root    214 :    21.857715017245700
 Root    215 :    21.861588436295670
 Root    216 :    21.861619951283250
 Root    217 :    21.869104920616180
 Root    218 :    21.909318403251020
 Root    219 :    21.909415498078550
 Root    220 :    22.067967316504110
 Root    221 :    22.073429676681830
 Root    222 :    22.073568883079120
 Root    223 :    22.121423560550840
 Root    224 :    22.121503974522880
 Root    225 :    22.186447555515200
 Root    226 :    22.199773520136130
 Root    227 :    22.232169646584640
 Root    228 :    22.358956830399920
 Root    229 :    22.359002394982400
 Root    230 :    22.380305509999370
 Root    231 :    22.439203820973140
 Root    232 :    22.456872723924710
 Root    233 :    22.456877631205940
 Root    234 :    22.690652789058050
 Root    235 :    22.848419479688530
 Root    236 :    22.848505243542620
 Root    237 :    23.073876092038600
 Root    238 :    23.073897471491560
 Root    239 :    23.171978709946300
 Root    240 :    23.271894454416600
 Root    241 :    23.302964858638210
 Root    242 :    23.303224663466360
 Root    243 :    23.333274416470410
 Root    244 :    23.572878735931190
 Root    245 :    23.572896950594600
 Root    246 :    23.591790368801500
 Root    247 :    23.591866761557360
 Root    248 :    23.724546379012310
 Root    249 :    23.724650958070390
 Root    250 :    23.813234897818810
 Root    251 :    23.839674170624330
 Root    252 :    23.839740149129010
 Root    253 :    23.879178672894230
 Root    254 :    23.879269809363090
 Root    255 :    23.900365206639620
 Root    256 :    23.965260671304070
 Root    257 :    23.965391045745260
 Root    258 :    24.178415392125800
 Root    259 :    24.178496053274550
 Root    260 :    24.178523498281460
 Root    261 :    24.195114440887720
 Root    262 :    24.233437195238600
 Root    263 :    24.271259946750270
 Root    264 :    24.271301473850040
 Root    265 :    24.314136595825280
 Root    266 :    24.314178626993560
 Root    267 :    24.315659331970560
 Root    268 :    24.346568886771130
 Root    269 :    24.376940847763680
 Root    270 :    24.496760798376300
 Root    271 :    24.497048534374850
 Root    272 :    24.611572215831650
 Root    273 :    24.611653398682290
 Root    274 :    24.697131553315700
 Root    275 :    24.851617065995110
 Root    276 :    24.854639091291400
 Root    277 :    24.854666164945130
 Root    278 :    24.907303807208310
 Root    279 :    24.907337780999850
 Root    280 :    24.964593394723690
 Root    281 :    24.964623851943770
 Root    282 :    25.129156403953940
 Root    283 :    25.150447591779170
 Root    284 :    25.150510187276330
 Root    285 :    25.166006710007310
 Root    286 :    25.166064303902620
 Root    287 :    25.221810188884100
 Root    288 :    25.221856862036680
 Root    289 :    25.323976034493360
 Root    290 :    25.324031698878890
 Root    291 :    25.591019440106140
 Root    292 :    25.694988633479880
 Root    293 :    25.737888147557050
 Root    294 :    25.738044406404010
 Root    295 :    26.019498091391920
 Root    296 :    26.178963343721390
 Root    297 :    26.178998140226200
 Root    298 :    26.267166217254450
 Root    299 :    26.267219229801160
 Root    300 :    26.317354266465650
 Root    301 :    26.352162803303080
 Root    302 :    26.408414445885260
 Root    303 :    26.415885184415260
 Root    304 :    26.511826312989990
 Root    305 :    26.511876775991550
 Root    306 :    26.650862388001930
 Root    307 :    26.650870854380730
 Root    308 :    26.736414924742280
 Root    309 :    26.778032523178140
 Root    310 :    26.778064636205080
 Root    311 :    26.916287167089620
 Root    312 :    26.916932059173920
 Root    313 :    26.917002024630510
 Root    314 :    26.930567846155300
 Root    315 :    26.930621734067710
 Root    316 :    27.009395350820100
 Root    317 :    27.012666825381700
 Root    318 :    27.097664413888420
 Root    319 :    27.097719734220550
 Root    320 :    27.253767602345170
 Root    321 :    27.253982570727900
 Root    322 :    27.280991828754650
 Root    323 :    27.281031789485870
 Root    324 :    27.316815305340950
 Root    325 :    27.331471916714810
 Root    326 :    27.479737103452220
 Root    327 :    27.551989636655500
 Root    328 :    27.552081086818130
 Root    329 :    27.626784178283450
 Root    330 :    27.626799698363890
 Root    331 :    27.680404114826360
 Root    332 :    27.680419559690760
 Root    333 :    27.733101941208540
 Root    334 :    27.741677698349250
 Root    335 :    27.741769469750850
 Root    336 :    27.742445144468690
 Root    337 :    27.754886354177200
 Root    338 :    27.754993717881050
 Root    339 :    27.790404612764840
 Root    340 :    28.027646873050010
 Root    341 :    28.027680186625460
 Root    342 :    28.067637158868490
 Root    343 :    28.067757059969250
 Root    344 :    28.106749691550580
 Root    345 :    28.365350220858200
 Root    346 :    28.365401474753050
 Root    347 :    28.565587658839100
 Root    348 :    28.717910546748990
 Root    349 :    28.736403995634450
 Root    350 :    28.736481866160600
 Root    351 :    28.736803737509670
 Root    352 :    28.736848687700070
 Root    353 :    29.032767412281710
 Root    354 :    29.032798795592100
 Root    355 :    29.130693753404610
 Root    356 :    29.130706544209050
 Root    357 :    29.222012203001900
 Root    358 :    29.301003944542210
 Root    359 :    29.340401264571100
 Root    360 :    29.340499601488120
 Root    361 :    29.611038850156880
 Root    362 :    29.611176522916830
 Root    363 :    29.706717364495890
 Root    364 :    29.848040837276080
 Root    365 :    29.848073043604280
 Root    366 :    29.935793670849270
 Root    367 :    30.128633734295990
 Root    368 :    30.259111227150480
 Root    369 :    30.259205435320480
 Root    370 :    30.266385144244580
 Root    371 :    30.266421633617990
 Root    372 :    30.356447006197900
 Root    373 :    30.356555907107770
 Root    374 :    30.607451506933710
 Root    375 :    30.691704383027030
 Root    376 :    30.829380356264880
 Root    377 :    30.829435269146810
 Root    378 :    30.966802942361290
 Root    379 :    31.055522817253720
 Root    380 :    31.055601907042110
 Root    381 :    31.120211707936280
 Root    382 :    31.466015025079340
 Root    383 :    31.466027507668420
 Root    384 :    31.479457906021480
 Root    385 :    31.673529409833520
 Root    386 :    31.709495245924270
 Root    387 :    31.830171803273450
 Root    388 :    31.880760599687130
 Root    389 :    31.880795082870430
 Root    390 :    32.042228888688290
 Root    391 :    32.190192140861980
 Root    392 :    32.190404999153110
 Root    393 :    32.221963345679470
 Root    394 :    32.374618620785480
 Root    395 :    32.483840768415360
 Root    396 :    32.570576469937730
 Root    397 :    32.662566594971230
 Root    398 :    32.716331446545790
 Root    399 :    33.117756977203950
 Root    400 :    33.117824261622150
 Root    401 :    33.166484457285410
 Root    402 :    33.184270688122450
 Root    403 :    33.184556067478940
 Root    404 :    33.245461586314630
 Root    405 :    33.459480326148580
 Root    406 :    33.584160145365260
 Root    407 :    33.584336984427650
 Root    408 :    33.588135388126740
 Root    409 :    33.823848732050730
 Root    410 :    33.823930831969650
 Root    411 :    33.920107821598860
 Root    412 :    33.937505178695260
 Root    413 :    33.937589005113280
 Root    414 :    34.024014703527740
 Root    415 :    34.177353318590310
 Root    416 :    34.293269595310090
 Root    417 :    34.293342491955910
 Root    418 :    34.454756666122660
 Root    419 :    34.454790353314120
 Root    420 :    34.539974414965060
 Root    421 :    34.540260445990230
 Root    422 :    34.744510888914250
 Root    423 :    34.770146353552260
 Root    424 :    34.770205589345200
 Root    425 :    34.846772853034480
 Root    426 :    34.846825629227230
 Root    427 :    34.883312295768970
 Root    428 :    34.883396230414200
 Root    429 :    34.935318632937010
 Root    430 :    35.012397999154230
 Root    431 :    35.012654069320650
 Root    432 :    35.057339200935910
 Root    433 :    35.057594202910530
 Root    434 :    35.262922253852170
 Root    435 :    35.262960668398630
 Root    436 :    35.354766819501360
 Root    437 :    35.511244688304290
 Root    438 :    35.511322377395540
 Root    439 :    35.677276422930890
 Root    440 :    35.735414010282500
 Root    441 :    36.007325634645570
 Root    442 :    36.007357738050980
 Root    443 :    36.219885099990430
 Root    444 :    36.219983878583780
 Root    445 :    36.413462820609880
 Root    446 :    36.413586523932790
 Root    447 :    36.619124067556360
 Root    448 :    36.686766996026100
 Root    449 :    36.686819409810650
 Root    450 :    36.705922837038290
 Root    451 :    36.706036054725310
 Root    452 :    37.070304063280820
 Root    453 :    37.070362962579960
 Root    454 :    37.129048511281520
 Root    455 :    37.129118884522820
 Root    456 :    37.371695300670370
 Root    457 :    37.607481990520060
 Root    458 :    37.654883334941170
 Root    459 :    37.654955659849830
 Root    460 :    37.888360650073810
 Root    461 :    37.929328962771660
 Root    462 :    37.929369965729090
 Root    463 :    38.129297353842810
 Root    464 :    38.129403049581650
 Root    465 :    38.237110225358240
 Root    466 :    38.364797583680860
 Root    467 :    38.364861867800510
 Root    468 :    38.984978572842230
 Root    469 :    38.985015590649640
 Root    470 :    39.051464594130100
 Root    471 :    39.082326161963490
 Root    472 :    39.181506641843510
 Root    473 :    39.376840431520360
 Root    474 :    39.377035291697840
 Root    475 :    39.391417854293600
 Root    476 :    39.592867273031360
 Root    477 :    39.780231325572560
 Root    478 :    39.893879041347320
 Root    479 :    39.893910637215600
 Root    480 :    39.926595285342200
 Root    481 :    39.926648942478220
 Root    482 :    40.076587694223460
 Root    483 :    40.355225606135030
 Root    484 :    40.355325507229790
 Root    485 :    40.359111156705200
 Root    486 :    40.359157747433470
 Root    487 :    40.531190559353090
 Root    488 :    40.695921414479080
 Root    489 :    40.821592673065580
 Root    490 :    40.957144763557800
 Root    491 :    40.957169386850570
 Root    492 :    41.001702482350210
 Root    493 :    41.001733949160850
 Root    494 :    41.344478771833410
 Root    495 :    41.360559798195540
 Root    496 :    41.567674510891890
 Root    497 :    41.659054514391410
 Root    498 :    41.659174004253840
 Root    499 :    41.706518831542920
 Root    500 :    42.151071732543560
 Root    501 :    42.151141407708070
 Root    502 :    42.563304687047310
 Root    503 :    42.563390601819360
 Root    504 :    42.674424021495170
 Root    505 :    42.899997456624940
 Root    506 :    42.900016172757960
 Root    507 :    42.985936209178540
 Root    508 :    43.052929203994460
 Root    509 :    43.217620855076580
 Root    510 :    43.217654342531230
 Root    511 :    43.279974894634770
 Root    512 :    43.390877577765190
 Root    513 :    43.464218849005760
 Root    514 :    43.464248310379210
 Root    515 :    43.610770404480720
 Root    516 :    43.770340249440480
 Root    517 :    43.770425189061700
 Root    518 :    43.816249686831280
 Root    519 :    43.823864466169250
 Root    520 :    43.823914531768150
 Root    521 :    44.047135616323330
 Root    522 :    44.186150673427870
 Root    523 :    44.186231483576700
 Root    524 :    44.981158347420920
 Root    525 :    45.617571536598850
 Root    526 :    45.850739785734960
 Root    527 :    45.860424471630270
 Root    528 :    45.860709370355470
 Root    529 :    45.983994784254880
 Root    530 :    45.984202511911720
 Root    531 :    45.995660167810410
 Root    532 :    46.137123750024170
 Root    533 :    46.137315604674410
 Root    534 :    46.785971340149770
 Root    535 :    46.786023020944870
 Root    536 :    46.835774876436570
 Root    537 :    47.068624341902610
 Root    538 :    47.068981286840600
 Root    539 :    47.359618036907590
 Root    540 :    47.896166597052950
 Root    541 :    47.896239139707470
 Root    542 :    48.417290731414930
 Root    543 :    48.417396353810870
 Root    544 :    48.579786456769130
 Root    545 :    48.579920541206310
 Root    546 :    48.719466942567670
 Root    547 :    49.284659471894290
 Root    548 :    49.339371597263060
 Root    549 :    49.339442990449230
 Root    550 :    49.590290260180860
 Root    551 :    49.664794034954100
 Root    552 :    49.664920966885090
 Root    553 :    49.799027389278150
 Root    554 :    49.805611413690440
 Root    555 :    49.805649033652090
 Root    556 :    49.976195794924110
 Root    557 :    49.976364330024050
 Root    558 :    50.138670526975090
 Root    559 :    50.138727743241650
 Root    560 :    50.313160529933980
 Root    561 :    50.336687565881920
 Root    562 :    50.703219660798800
 Root    563 :    51.269474997263000
 Root    564 :    51.280935470467650
 Root    565 :    51.281115604019190
 Root    566 :    51.718878839487020
 Root    567 :    51.719021232673410
 Root    568 :    51.868891180238780
 Root    569 :    52.246771216644440
 Root    570 :    52.391977962720130
 Root    571 :    52.392104983647070
 Root    572 :    52.396107733017600
 Root    573 :    52.446636592645400
 Root    574 :    52.446666677944950
 Root    575 :    52.521654748700810
 Root    576 :    52.718255315639750
 Root    577 :    53.653999650728660
 Root    578 :    53.654113864354270
 Root    579 :    53.700711587612070
 Root    580 :    53.889238927062020
 Root    581 :    53.889354741306650
 Root    582 :    54.022537321017110
 Root    583 :    54.022822116592910
 Root    584 :    54.213162794146830
 Root    585 :    54.213323550372150
 Root    586 :    54.542964422207060
 Root    587 :    54.586823283067720
 Root    588 :    55.025235826131370
 Root    589 :    55.298131975043830
 Root    590 :    55.298253818041930
 Root    591 :    55.447248017405600
 Root    592 :    55.447664582377820
 Root    593 :    55.495018724908500
 Root    594 :    55.583634372478020
 Root    595 :    55.583807271568930
 Root    596 :    56.343471910814590
 Root    597 :    56.343625510442540
 Root    598 :    56.895803130127160
 Root    599 :    56.910557787173740
 Root    600 :    56.910910888024650
 Root    601 :    57.139720583822990
 Root    602 :    57.139893641581170
 Root    603 :    57.343736591062580
 Root    604 :    57.343798069088700
 Root    605 :    57.482429463847550
 Root    606 :    57.484671443558040
 Root    607 :    57.484766829133750
 Root    608 :    57.870366884087290
 Root    609 :    57.917235018812670
 Root    610 :    57.917386993554470
 Root    611 :    57.918188239730900
 Root    612 :    57.918222658796650
 Root    613 :    58.316311470008240
 Root    614 :    58.316390689952040
 Root    615 :    58.382382432533540
 Root    616 :    58.439570374093800
 Root    617 :    58.439655776803860
 Root    618 :    58.885651847528600
 Root    619 :    59.382651898367180
 Root    620 :    59.382817050418350
 Root    621 :    59.618860844127380
 Root    622 :    59.688920731199540
 Root    623 :    59.688972312978020
 Root    624 :    59.756858981215860
 Root    625 :    60.129408999259150
 Root    626 :    60.262043907982810
 Root    627 :    60.449527657176570
 Root    628 :    60.495288044877340
 Root    629 :    60.520352856240950
 Root    630 :    60.520422857770960
 Root    631 :    60.621252246635660
 Root    632 :    60.853009043408050
 Root    633 :    60.853021575904180
 Root    634 :    60.910874188503070
 Root    635 :    61.140404164932360
 Root    636 :    61.626853050241510
 Root    637 :    61.656171419961130
 Root    638 :    62.120143874937630
 Root    639 :    62.120412148354770
 Root    640 :    62.281577915976880
 Root    641 :    62.505875152486150
 Root    642 :    62.506006500994390
 Root    643 :    62.543538186671510
 Root    644 :    62.543591670769810
 Root    645 :    62.625931119490910
 Root    646 :    62.626053384518040
 Root    647 :    62.724214952096370
 Root    648 :    62.724350344093510
 Root    649 :    62.924173997462700
 Root    650 :    63.087800210779030
 Root    651 :    63.313601155934760
 Root    652 :    63.313902833829370
 Root    653 :    63.541941129525420
 Root    654 :    63.542009818583690
 Root    655 :    63.993777722522860
 Root    656 :    63.993884934459050
 Root    657 :    64.009625714967470
 Root    658 :    64.319769377834890
 Root    659 :    64.319811601476810
 Root    660 :    64.779525784815720
 Root    661 :    64.779548628983680
 Root    662 :    64.932893195361470
 Root    663 :    64.933002818643200
 Root    664 :    64.962698431892930
 Root    665 :    65.066639850601460
 Root    666 :    65.066672003124140
 Root    667 :    65.087977143710800
 Root    668 :    65.179984105760140
 Root    669 :    65.282798937885640
 Root    670 :    65.283125854755510
 Root    671 :    65.482019665305300
 Root    672 :    65.482120429227320
 Root    673 :    65.663166605023120
 Root    674 :    65.684432140785900
 Root    675 :    65.684499865132450
 Root    676 :    65.699230595597110
 Root    677 :    65.717375861461830
 Root    678 :    66.290074616862140
 Root    679 :    66.290144382816440
 Root    680 :    66.384666425446080
 Root    681 :    66.490509536891250
 Root    682 :    66.514193279752790
 Root    683 :    66.514225815634970
 Root    684 :    66.887668506629050
 Root    685 :    66.887719057655190
 Root    686 :    67.293621286334700
 Root    687 :    67.405689719859880
 Root    688 :    67.429517700231050
 Root    689 :    67.625417775844440
 Root    690 :    67.625567418173930
 Root    691 :    68.471023659554830
 Root    692 :    68.471296685742120
 Root    693 :    68.557394330211980
 Root    694 :    68.720634043244290
 Root    695 :    68.971069578758200
 Root    696 :    68.971214672919970
 Root    697 :    69.264302259243880
 Root    698 :    69.264458179609190
 Root    699 :    69.307266938995870
 Root    700 :    69.528467208224280
 Root    701 :    69.616028549932180
 Root    702 :    69.616075970734780
 Root    703 :    69.958213694405460
 Root    704 :    69.958552145549770
 Root    705 :    70.007368827632080
 Root    706 :    70.548182371919200
 Root    707 :    70.548638248315300
 Root    708 :    71.221841366981270
 Root    709 :    71.221908841818900
 Root    710 :    71.233984400914110
 Root    711 :    71.303206858081410
 Root    712 :    71.343323458454860
 Root    713 :    71.644439753819110
 Root    714 :    71.644555622411560
 Root    715 :    71.735405291193520
 Root    716 :    71.735509458660490
 Root    717 :    71.755596374748410
 Root    718 :    71.755762544336510
 Root    719 :    71.763184790434270
 Root    720 :    71.841055444434460
 Root    721 :    71.870813695415790
 Root    722 :    72.048189947654890
 Root    723 :    72.048213274012850
 Root    724 :    72.590072888573100
 Root    725 :    72.590115769678160
 Root    726 :    72.703104547073790
 Root    727 :    72.860706254578720
 Root    728 :    73.315078282647460
 Root    729 :    73.315372885020370
 Root    730 :    73.334014588848110
 Root    731 :    73.355416765380540
 Root    732 :    73.509808776529350
 Root    733 :    73.552393891905850
 Root    734 :    73.552461282616330
 Root    735 :    73.670711406291220
[...]
     11   0.000000D+00  0.485773D+00  0.295317D+00 -0.131927D+00 -0.235703D+00
     12   0.000000D+00  0.485834D+00 -0.295326D+00  0.131754D+00  0.235727D+00
     13   0.000000D+00 -0.311836D+00  0.111309D-04  0.206124D-04 -0.970405D-05
     14   0.000000D+00  0.878816D-04  0.131860D+00  0.295337D+00 -0.164117D+00
     15   0.115975D+00  0.000000D+00  0.000000D+00  0.000000D+00  0.000000D+00
     16   0.283658D+00  0.000000D+00  0.000000D+00  0.000000D+00  0.000000D+00
               796           797           798           799           800 
      1  -0.114573D+03 -0.114553D+03 -0.114553D+03 -0.114547D+03 -0.114547D+03
      2   0.541508D-01  0.000000D+00  0.000000D+00 -0.120232D-01  0.488479D-01
      3   0.382092D-01  0.000000D+00  0.000000D+00  0.488418D-01  0.120237D-01
      4   0.000000D+00  0.441364D-05 -0.492654D-05  0.000000D+00  0.000000D+00
      5  -0.170263D+00  0.000000D+00  0.000000D+00  0.298089D-01 -0.121112D+00
      6  -0.120146D+00  0.000000D+00  0.000000D+00 -0.121096D+00 -0.298122D-01
      7   0.000000D+00 -0.131909D-04  0.126395D-04  0.000000D+00  0.000000D+00
      8   0.000000D+00  0.108625D+00  0.362831D-01  0.000000D+00  0.000000D+00
      9   0.000000D+00  0.362408D-01 -0.108591D+00  0.000000D+00  0.000000D+00
     10  -0.915908D-04  0.000000D+00  0.000000D+00 -0.529323D-04 -0.182613D-04
     11   0.164123D+00  0.000000D+00  0.000000D+00 -0.180635D+00  0.270182D+00
     12  -0.164182D+00  0.000000D+00  0.000000D+00  0.180537D+00 -0.270130D+00
     13   0.620222D-05  0.000000D+00  0.000000D+00  0.316564D-04 -0.268701D-04
     14  -0.235694D+00  0.000000D+00  0.000000D+00 -0.270183D+00 -0.180601D+00
     15   0.000000D+00 -0.232010D-01  0.694295D-01  0.000000D+00  0.000000D+00
     16   0.000000D+00  0.694221D-01  0.231585D-01  0.000000D+00  0.000000D+00
               801           802           803           804           805 
      1  -0.114534D+03 -0.114534D+03 -0.114531D+03 -0.114531D+03 -0.114517D+03
      2   0.000000D+00  0.000000D+00  0.000000D+00  0.000000D+00  0.128615D-04
      3   0.000000D+00  0.000000D+00  0.000000D+00  0.000000D+00  0.703697D-04
      4  -0.112627D-04  0.000000D+00  0.152029D-04 -0.122082D-04  0.000000D+00
      5   0.000000D+00  0.000000D+00  0.000000D+00  0.000000D+00 -0.391929D-04
      6   0.000000D+00  0.000000D+00  0.000000D+00  0.000000D+00 -0.218404D-03
      7   0.313906D-04  0.263577D-05 -0.436132D-04  0.346988D-04  0.000000D+00
      8  -0.277430D-01 -0.126432D+00  0.309499D+00 -0.102143D+00  0.000000D+00
      9  -0.125801D+00  0.274499D-01 -0.102273D+00 -0.309720D+00  0.000000D+00
     10   0.000000D+00  0.000000D+00  0.000000D+00  0.000000D+00 -0.364770D+00
     11   0.000000D+00  0.000000D+00  0.000000D+00  0.000000D+00  0.121377D-04
     12   0.000000D+00  0.000000D+00  0.000000D+00  0.000000D+00 -0.121718D-04
     13   0.000000D+00  0.000000D+00  0.000000D+00  0.000000D+00  0.000000D+00
     14   0.000000D+00  0.000000D+00  0.000000D+00  0.000000D+00 -0.237705D-04
     15   0.464451D+00 -0.101548D+00  0.899847D-01  0.272227D+00  0.000000D+00
     16  -0.101833D+00 -0.465011D+00  0.271424D+00 -0.894853D-01  0.000000D+00
               806           807           808           809           810 
      1  -0.114504D+03 -0.114504D+03 -0.114496D+03 -0.114496D+03 -0.114495D+03
      2   0.000000D+00  0.000000D+00  0.682056D-02  0.913727D-01  0.158305D-03
      3   0.000000D+00  0.000000D+00  0.913901D-01 -0.681526D-02 -0.738111D-03
      4   0.316194D-05  0.844757D-05  0.000000D+00  0.000000D+00  0.000000D+00
      5   0.000000D+00  0.000000D+00 -0.211727D-01 -0.283675D+00 -0.491627D-03
      6   0.000000D+00  0.000000D+00 -0.283720D+00  0.211603D-01  0.228824D-02
      7  -0.856012D-05 -0.239990D-04  0.000000D+00  0.000000D+00  0.000000D+00
      8   0.204702D-01  0.131140D+00  0.000000D+00  0.000000D+00  0.000000D+00
      9  -0.131146D+00  0.204672D-01  0.000000D+00  0.000000D+00  0.000000D+00
     10   0.000000D+00  0.000000D+00 -0.693123D-02  0.223324D-02 -0.925668D+00
     11   0.000000D+00  0.000000D+00  0.382267D-01 -0.136151D+00 -0.605168D-03
     12   0.000000D+00  0.000000D+00 -0.382543D-01  0.136537D+00  0.606383D-03
     13   0.000000D+00  0.000000D+00 -0.106796D-03 -0.768991D-03 -0.100444D-05
     14   0.000000D+00  0.000000D+00  0.136401D+00  0.382441D-01 -0.908554D-03
     15   0.199671D+00 -0.311593D-01  0.000000D+00  0.000000D+00  0.000000D+00
     16   0.311655D-01  0.199644D+00  0.000000D+00  0.000000D+00  0.000000D+00
               811           812           813           814           815 
      1  -0.114493D+03 -0.114491D+03 -0.114481D+03 -0.114457D+03 -0.114449D+03
      2   0.307500D-03  0.000000D+00  0.000000D+00  0.727600D-05  0.000000D+00
      3   0.161837D-04  0.000000D+00  0.000000D+00  0.000000D+00  0.000000D+00
      4   0.000000D+00 -0.140294D+00  0.000000D+00  0.000000D+00  0.169841D+00
      5  -0.958403D-03  0.000000D+00  0.000000D+00 -0.244999D-04  0.000000D+00
      6  -0.488617D-04  0.000000D+00  0.000000D+00 -0.110985D-05  0.000000D+00
      7   0.000000D+00  0.401868D+00  0.000000D+00  0.000000D+00 -0.488005D+00
      8   0.000000D+00  0.310973D-04  0.224333D-04  0.000000D+00  0.111211D-04
      9   0.000000D+00 -0.233439D-04 -0.138811D-04  0.000000D+00  0.296565D-04
     10   0.000000D+00  0.000000D+00  0.000000D+00  0.000000D+00  0.000000D+00
     11  -0.623459D-01  0.000000D+00  0.000000D+00  0.512306D+00  0.000000D+00
     12  -0.615071D-01  0.000000D+00  0.000000D+00  0.512497D+00  0.000000D+00
     13   0.218345D+00  0.000000D+00  0.000000D+00  0.444530D+00  0.000000D+00
     14   0.185385D-03  0.000000D+00  0.000000D+00 -0.596411D-04  0.000000D+00
     15   0.000000D+00 -0.133977D-05  0.418153D-04  0.000000D+00 -0.432496D-05
     16   0.000000D+00  0.317191D-04  0.635413D-04  0.000000D+00  0.437890D-04
               816           817           818           819           820 
      1  -0.114443D+03 -0.114437D+03 -0.114437D+03 -0.114426D+03 -0.114423D+03
      2   0.305931D-05  0.148680D-01 -0.435452D-02  0.356582D-05  0.000000D+00
      3   0.260899D-05 -0.435949D-02 -0.148853D-01  0.333267D-05  0.773708D-05
      4   0.000000D+00  0.000000D+00  0.000000D+00  0.000000D+00  0.000000D+00
      5  -0.183380D-04 -0.207894D-01  0.608811D-02 -0.150982D-04 -0.115059D-05
      6   0.000000D+00  0.610211D-02  0.208332D-01 -0.103281D-04 -0.204214D-04
      7   0.000000D+00  0.000000D+00  0.000000D+00  0.000000D+00  0.000000D+00
      8   0.000000D+00  0.000000D+00  0.000000D+00  0.000000D+00  0.000000D+00
      9   0.000000D+00  0.000000D+00  0.000000D+00  0.000000D+00  0.000000D+00
     10   0.000000D+00  0.333092D-05  0.793304D-04  0.000000D+00 -0.288794D+00
     11  -0.432313D+00  0.216747D+00  0.136428D-01 -0.370337D+00 -0.271362D-04
     12  -0.431988D+00 -0.217028D+00 -0.135953D-01 -0.370309D+00  0.271446D-04
     13   0.132359D+00  0.143030D-03  0.107989D-03 -0.784702D-01  0.000000D+00
     14  -0.227744D-04 -0.137211D-01  0.216738D+00 -0.885461D-05  0.144415D-03
     15   0.000000D+00  0.000000D+00  0.000000D+00  0.000000D+00  0.000000D+00
     16   0.000000D+00  0.000000D+00  0.000000D+00  0.000000D+00  0.000000D+00
               821           822           823           824           825 
      1  -0.114410D+03 -0.114410D+03 -0.114385D+03 -0.114372D+03 -0.114369D+03
      2   0.000000D+00  0.000000D+00  0.000000D+00  0.000000D+00  0.000000D+00
      3   0.000000D+00  0.000000D+00  0.000000D+00  0.000000D+00  0.000000D+00
      4  -0.381295D-04  0.000000D+00  0.000000D+00  0.111394D-01 -0.162823D-04
      5   0.000000D+00  0.000000D+00  0.000000D+00  0.000000D+00  0.000000D+00
      6   0.000000D+00  0.000000D+00  0.000000D+00  0.000000D+00  0.000000D+00
      7   0.107129D-03  0.294519D-05  0.000000D+00  0.251352D-02  0.570353D-04
      8   0.100363D+00 -0.255350D+00  0.119223D-03 -0.636132D-05 -0.154297D-01
      9   0.255373D+00  0.100352D+00  0.334664D-05  0.587600D-04 -0.157004D-01
     10   0.000000D+00  0.000000D+00  0.000000D+00  0.000000D+00  0.000000D+00
     11   0.000000D+00  0.000000D+00  0.000000D+00  0.000000D+00  0.000000D+00
     12   0.000000D+00  0.000000D+00  0.000000D+00  0.000000D+00  0.000000D+00
     13   0.000000D+00  0.000000D+00  0.000000D+00  0.000000D+00  0.000000D+00
     14   0.000000D+00  0.000000D+00  0.000000D+00  0.000000D+00  0.000000D+00
     15  -0.331707D+00 -0.130343D+00  0.300637D-05 -0.180194D-03  0.212299D+00
     16   0.130368D+00 -0.331679D+00  0.171316D-03 -0.445342D-04 -0.208555D+00
               826           827           828           829           830 
      1  -0.114369D+03 -0.114359D+03 -0.114358D+03 -0.114358D+03 -0.114326D+03
      2   0.000000D+00  0.000000D+00  0.592650D-01 -0.293991D-01 -0.954349D-02
      3   0.000000D+00  0.000000D+00 -0.293974D-01 -0.592681D-01 -0.657381D-01
      4   0.177261D-04  0.000000D+00  0.000000D+00  0.000000D+00  0.000000D+00
      5   0.000000D+00  0.000000D+00 -0.145133D+00  0.719966D-01  0.288366D-01
      6   0.000000D+00  0.000000D+00  0.719922D-01  0.145147D+00  0.198626D+00
      7  -0.633176D-04  0.000000D+00  0.000000D+00  0.000000D+00  0.000000D+00
      8  -0.157239D-01 -0.684119D-04  0.000000D+00  0.000000D+00  0.000000D+00
      9   0.154387D-01  0.510688D-04  0.000000D+00  0.000000D+00  0.000000D+00
     10   0.000000D+00  0.000000D+00 -0.199013D-04 -0.459464D-04  0.248366D-04
     11   0.000000D+00  0.000000D+00 -0.630531D+00  0.712780D-01  0.249361D-01
     12   0.000000D+00  0.000000D+00  0.630490D+00 -0.712634D-01 -0.248721D-01
     13   0.000000D+00  0.000000D+00 -0.437069D-04  0.000000D+00  0.573469D-05
     14   0.000000D+00  0.000000D+00 -0.713220D-01 -0.630549D+00  0.120660D+00
     15  -0.208566D+00  0.472506D-04  0.000000D+00  0.000000D+00  0.000000D+00
     16  -0.212333D+00  0.149912D-03  0.000000D+00  0.000000D+00  0.000000D+00
               831           832           833           834           835 
      1  -0.114326D+03 -0.114322D+03 -0.114322D+03 -0.114319D+03 -0.114275D+03
      2   0.657431D-01  0.000000D+00  0.000000D+00  0.000000D+00  0.000000D+00
      3  -0.954456D-02  0.000000D+00  0.000000D+00  0.000000D+00  0.000000D+00
      4   0.000000D+00 -0.127480D-03  0.294863D-04 -0.683325D-01  0.000000D+00
      5  -0.198636D+00  0.000000D+00  0.000000D+00  0.000000D+00  0.000000D+00
      6   0.288367D-01  0.000000D+00  0.000000D+00  0.000000D+00  0.000000D+00
      7   0.000000D+00  0.437156D-03 -0.101842D-03  0.234554D+00  0.000000D+00
      8   0.000000D+00 -0.386030D-01  0.375682D+00  0.221813D-03 -0.170135D-04
      9   0.000000D+00 -0.375720D+00 -0.385963D-01  0.691805D-03 -0.335855D-04
     10  -0.143514D-04  0.000000D+00  0.000000D+00  0.000000D+00  0.000000D+00
     11   0.120586D+00  0.000000D+00  0.000000D+00  0.000000D+00  0.000000D+00
     12  -0.120589D+00  0.000000D+00  0.000000D+00  0.000000D+00  0.000000D+00
     13   0.203922D-04  0.000000D+00  0.000000D+00  0.000000D+00  0.000000D+00
     14  -0.249301D-01  0.000000D+00  0.000000D+00  0.000000D+00  0.000000D+00
     15   0.000000D+00  0.399424D+00  0.410293D-01 -0.750939D-03  0.397253D-04
     16   0.000000D+00 -0.410423D-01  0.399402D+00  0.257943D-03 -0.278709D-04
               836           837           838           839           840 
      1  -0.114274D+03 -0.114274D+03 -0.114265D+03 -0.114265D+03 -0.114259D+03
      2   0.834560D-03  0.519217D-02  0.000000D+00  0.000000D+00  0.349275D-04
      3   0.518078D-02 -0.846407D-03  0.000000D+00  0.000000D+00 -0.429575D-04
      4   0.000000D+00  0.000000D+00  0.000000D+00 -0.357069D-05  0.000000D+00
      5  -0.608614D-02 -0.376858D-01  0.000000D+00  0.000000D+00 -0.115133D-03
      6  -0.376496D-01  0.612212D-02  0.000000D+00  0.000000D+00  0.143083D-03
      7   0.000000D+00  0.000000D+00  0.323663D-05  0.844483D-05  0.000000D+00
      8   0.000000D+00  0.000000D+00  0.281492D+00  0.435715D-01  0.000000D+00
      9   0.000000D+00  0.000000D+00 -0.435719D-01  0.281483D+00  0.000000D+00
     10  -0.154330D-04  0.770511D-05  0.000000D+00  0.000000D+00  0.000000D+00
     11  -0.840621D-02  0.448235D-01  0.000000D+00  0.000000D+00 -0.586480D+00
     12   0.862067D-02 -0.449881D-01  0.000000D+00  0.000000D+00 -0.586817D+00
     13   0.263761D-05 -0.189278D-04  0.000000D+00  0.000000D+00 -0.329635D-01
     14  -0.448268D-01 -0.848554D-02  0.000000D+00  0.000000D+00  0.819067D-04
     15   0.000000D+00  0.000000D+00  0.633728D-01 -0.409386D+00  0.000000D+00
     16   0.000000D+00  0.000000D+00  0.409389D+00  0.633661D-01  0.000000D+00
               841           842           843           844           845 
      1  -0.114245D+03 -0.114245D+03 -0.114225D+03 -0.114191D+03 -0.114191D+03
      2  -0.371005D-01  0.387325D-01  0.118161D-04  0.438054D-02 -0.100545D-01
      3   0.387348D-01  0.370996D-01  0.288047D-04 -0.100548D-01 -0.437891D-02
      4   0.000000D+00  0.000000D+00  0.000000D+00  0.000000D+00  0.000000D+00
      5   0.127185D+00 -0.132781D+00 -0.411866D-04 -0.190511D-01  0.437293D-01
      6  -0.132786D+00 -0.127181D+00 -0.100360D-03  0.437302D-01  0.190455D-01
      7   0.000000D+00  0.000000D+00  0.000000D+00  0.000000D+00  0.000000D+00
      8   0.000000D+00  0.000000D+00  0.000000D+00  0.000000D+00  0.000000D+00
      9   0.000000D+00  0.000000D+00  0.000000D+00  0.000000D+00  0.000000D+00
     10  -0.279851D-05  0.000000D+00  0.360969D-01 -0.129854D-04 -0.120619D-04
     11  -0.183711D+00  0.905071D-01  0.153170D-05  0.759184D-01 -0.804732D-01
     12   0.182662D+00 -0.905582D-01 -0.166216D-05 -0.757433D-01  0.794905D-01
     13  -0.336570D-04  0.149413D-04  0.000000D+00 -0.169597D-04  0.969778D-04
     14  -0.905672D-01 -0.183204D+00 -0.113300D-03  0.800041D-01  0.758277D-01
     15   0.000000D+00  0.000000D+00  0.000000D+00  0.000000D+00  0.000000D+00
     16   0.000000D+00  0.000000D+00  0.000000D+00  0.000000D+00  0.000000D+00
               846           847           848           849           850 
      1  -0.114189D+03 -0.114162D+03 -0.114162D+03 -0.114147D+03 -0.114147D+03
      2   0.151987D-04  0.239941D-01  0.950161D-02  0.000000D+00  0.000000D+00
      3   0.115002D-05 -0.950078D-02  0.239898D-01  0.000000D+00  0.000000D+00
      4   0.000000D+00  0.000000D+00  0.000000D+00  0.162948D-04  0.899595D-05
      5  -0.537219D-04 -0.655582D-01 -0.259609D-01  0.000000D+00  0.000000D+00
      6  -0.628544D-05  0.259579D-01 -0.655447D-01  0.000000D+00  0.000000D+00
      7   0.000000D+00  0.000000D+00  0.000000D+00 -0.484383D-04 -0.262340D-04
      8   0.000000D+00  0.000000D+00  0.000000D+00 -0.434031D+00 -0.181684D-01
      9   0.000000D+00  0.000000D+00  0.000000D+00 -0.181580D-01  0.434025D+00
     10   0.000000D+00 -0.240748D-05 -0.272609D-05  0.000000D+00  0.000000D+00
     11  -0.752934D+00  0.353466D+00  0.103873D-01  0.000000D+00  0.000000D+00
     12  -0.753397D+00 -0.352856D+00 -0.102590D-01  0.000000D+00  0.000000D+00
     13   0.147487D+00 -0.566063D-04 -0.145498D-04  0.000000D+00  0.000000D+00
     14  -0.692949D-04  0.103007D-01 -0.353129D+00  0.000000D+00  0.000000D+00
     15   0.000000D+00  0.000000D+00  0.000000D+00  0.187130D-01 -0.447420D+00
     16   0.000000D+00  0.000000D+00  0.000000D+00 -0.447432D+00 -0.187347D-01
               851           852           853           854           855 
      1  -0.114144D+03 -0.114126D+03 -0.114104D+03 -0.114104D+03 -0.114098D+03
      2   0.000000D+00 -0.135813D-05  0.622758D-03 -0.621345D-01  0.000000D+00
      3  -0.129359D-04  0.000000D+00 -0.621324D-01 -0.623693D-03  0.000000D+00
      4   0.000000D+00  0.000000D+00  0.000000D+00  0.000000D+00  0.167622D+00
      5  -0.176046D-05  0.469054D-05 -0.200792D-02  0.200406D+00  0.000000D+00
      6   0.345488D-04 -0.343413D-05  0.200396D+00  0.201228D-02  0.000000D+00
      7   0.000000D+00  0.000000D+00  0.000000D+00  0.000000D+00 -0.515384D+00
      8   0.000000D+00  0.000000D+00  0.000000D+00  0.000000D+00  0.393184D-04
      9   0.000000D+00  0.000000D+00  0.000000D+00  0.000000D+00 -0.361201D-04
     10  -0.157856D-01 -0.424142D-01 -0.183561D-04 -0.880023D-05  0.000000D+00
     11   0.943747D-04 -0.182205D-04  0.603236D-01 -0.161306D+00  0.000000D+00
     12  -0.943117D-04  0.180430D-04 -0.603387D-01  0.161306D+00  0.000000D+00
     13   0.000000D+00  0.000000D+00 -0.460827D-05  0.000000D+00  0.000000D+00
     14   0.198597D-03 -0.648979D-04  0.161304D+00  0.603291D-01  0.000000D+00
     15   0.000000D+00  0.000000D+00  0.000000D+00  0.000000D+00  0.367014D-04
     16   0.000000D+00  0.000000D+00  0.000000D+00  0.000000D+00  0.372774D-04
               856           857           858           859           860 
      1  -0.114027D+03 -0.114017D+03 -0.114004D+03 -0.114004D+03 -0.113982D+03
      2   0.767900D-05  0.000000D+00  0.000000D+00  0.000000D+00  0.000000D+00
      3   0.147592D-05  0.000000D+00  0.000000D+00  0.000000D+00  0.000000D+00
      4   0.000000D+00  0.195218D-02  0.839323D-05 -0.358838D-05  0.000000D+00
      5  -0.253538D-04  0.000000D+00  0.000000D+00  0.000000D+00  0.000000D+00
      6  -0.442460D-05  0.000000D+00  0.000000D+00  0.000000D+00  0.000000D+00
      7   0.000000D+00 -0.560250D-02 -0.258225D-04  0.111210D-04  0.000000D+00
      8   0.000000D+00  0.153159D-03 -0.176281D+00 -0.126923D+00 -0.105272D-03
      9   0.000000D+00  0.182035D-03 -0.126950D+00  0.176278D+00  0.351465D-04
     10   0.000000D+00  0.000000D+00  0.000000D+00  0.000000D+00  0.000000D+00
     11  -0.254650D-01  0.000000D+00  0.000000D+00  0.000000D+00  0.000000D+00
     12  -0.254721D-01  0.000000D+00  0.000000D+00  0.000000D+00  0.000000D+00
     13   0.918907D-01  0.000000D+00  0.000000D+00  0.000000D+00  0.000000D+00
     14  -0.440489D-05  0.000000D+00  0.000000D+00  0.000000D+00  0.000000D+00
     15   0.000000D+00 -0.182557D-03  0.130838D+00 -0.181679D+00 -0.349623D-04
     16   0.000000D+00  0.153989D-03 -0.181669D+00 -0.130804D+00 -0.109455D-03
               861           862           863           864 
      1  -0.113916D+03 -0.113916D+03 -0.113755D+03 -0.113755D+03
      2  -0.784876D-02  0.450849D-01  0.000000D+00  0.000000D+00
      3  -0.450838D-01 -0.784810D-02  0.000000D+00  0.000000D+00
      4   0.000000D+00  0.000000D+00  0.316944D-05  0.000000D+00
      5   0.253089D-01 -0.145378D+00  0.000000D+00  0.000000D+00
      6   0.145372D+00  0.253058D-01  0.000000D+00  0.000000D+00
      7   0.000000D+00  0.000000D+00 -0.100045D-04 -0.187187D-05
      8   0.000000D+00  0.000000D+00  0.411475D+00 -0.203808D-01
      9   0.000000D+00  0.000000D+00 -0.203726D-01 -0.411482D+00
     10  -0.141488D-04  0.361601D-05  0.000000D+00  0.000000D+00
     11   0.169789D-01  0.957277D-01  0.000000D+00  0.000000D+00
     12  -0.169663D-01 -0.957114D-01  0.000000D+00  0.000000D+00
     13   0.544086D-05 -0.141141D-04  0.000000D+00  0.000000D+00
     14   0.957244D-01 -0.169789D-01  0.000000D+00  0.000000D+00
     15   0.000000D+00  0.000000D+00  0.196969D-01  0.397808D+00
     16   0.000000D+00  0.000000D+00  0.397808D+00 -0.197025D-01
 Unable to Open any file for archive entry.
 1\1\GINC-HEL11\SP\RM062X TD-FC\Gen\C3H6\SABYASACHI\21-Mar-2022\0\\#P T
 D(Nstates=10000) m062x/Gen SCF(maxcycles=100) Int(Grid=ultrafine)\\xGD
 B7_00001_tier4.com\\0,1\C,0,0.516845,0.69483,0.\C,0,-0.860166,0.100195
 ,0.\C,0,0.343308,-0.795021,0.\H,0,0.866514,1.164858,0.909176\H,0,0.866
 513,1.164859,-0.909176\H,0,-1.442047,0.167964,-0.909177\H,0,-1.442048,
 0.167965,0.909176\H,0,0.575574,-1.332837,-0.909179\H,0,0.575574,-1.332
 837,0.909179\\Version=EM64L-G16RevC.01\State=1-A'\HF=-117.7492797\RMSD
 =3.810e-09\PG=CS [SG(C3),X(H6)]\\@
 The archive entry for this job was punched.


 Other things may change us, but we start and end with family.
 -- Anthony Brandt
 Job cpu time:       0 days  0 hours 21 minutes 22.1 seconds.
 Elapsed time:       0 days  0 hours  2 minutes 40.5 seconds.
 File lengths (MBytes):  RWF=    968 Int=      0 D2E=      0 Chk=    240 Scr=      1
 Normal termination of Gaussian 16 at Mon Mar 21 20:10:58 2022.
