 Entering Gaussian System, Link 0=g16
 Input=000026.com
 Output=000026.log
 Initial command:
 /home/sabyasachi/g16/l1.exe "/scratch/sabyasachi/PBS_7976127.helios/Gau-107825.inp" -scrdir="/scratch/sabyasachi/PBS_7976127.helios/"
 Entering Link 1 = /home/sabyasachi/g16/l1.exe PID=    107826.
  
 Copyright (c) 1988-2019, Gaussian, Inc.  All Rights Reserved.
  
 This is part of the Gaussian(R) 16 program.  It is based on
 the Gaussian(R) 09 system (copyright 2009, Gaussian, Inc.),
 the Gaussian(R) 03 system (copyright 2003, Gaussian, Inc.),
 the Gaussian(R) 98 system (copyright 1998, Gaussian, Inc.),
 the Gaussian(R) 94 system (copyright 1995, Gaussian, Inc.),
 the Gaussian 92(TM) system (copyright 1992, Gaussian, Inc.),
 the Gaussian 90(TM) system (copyright 1990, Gaussian, Inc.),
 the Gaussian 88(TM) system (copyright 1988, Gaussian, Inc.),
 the Gaussian 86(TM) system (copyright 1986, Carnegie Mellon
 University), and the Gaussian 82(TM) system (copyright 1983,
 Carnegie Mellon University). Gaussian is a federally registered
 trademark of Gaussian, Inc.
  
 This software contains proprietary and confidential information,
 including trade secrets, belonging to Gaussian, Inc.
  
 This software is provided under written license and may be
 used, copied, transmitted, or stored only in accord with that
 written license.
  
 The following legend is applicable only to US Government
 contracts under FAR:
  
                    RESTRICTED RIGHTS LEGEND
  
 Use, reproduction and disclosure by the US Government is
 subject to restrictions as set forth in subparagraphs (a)
 and (c) of the Commercial Computer Software - Restricted
 Rights clause in FAR 52.227-19.
  
 Gaussian, Inc.
 340 Quinnipiac St., Bldg. 40, Wallingford CT 06492
  
  
 ---------------------------------------------------------------
 Warning -- This program may not be used in any manner that
 competes with the business of Gaussian, Inc. or will provide
 assistance to any competitor of Gaussian, Inc.  The licensee
 of this program is prohibited from giving any competitor of
 Gaussian, Inc. access to this program.  By using this program,
 the user acknowledges that Gaussian, Inc. is engaged in the
 business of creating and licensing software in the field of
 computational chemistry and represents and warrants to the
 licensee that it is not a competitor of Gaussian, Inc. and that
 it will not use this program in any manner prohibited above.
 ---------------------------------------------------------------
  

 Cite this work as:
 Gaussian 16, Revision C.01,
 M. J. Frisch, G. W. Trucks, H. B. Schlegel, G. E. Scuseria, 
 M. A. Robb, J. R. Cheeseman, G. Scalmani, V. Barone, 
 G. A. Petersson, H. Nakatsuji, X. Li, M. Caricato, A. V. Marenich, 
 J. Bloino, B. G. Janesko, R. Gomperts, B. Mennucci, H. P. Hratchian, 
 J. V. Ortiz, A. F. Izmaylov, J. L. Sonnenberg, D. Williams-Young, 
 F. Ding, F. Lipparini, F. Egidi, J. Goings, B. Peng, A. Petrone, 
 T. Henderson, D. Ranasinghe, V. G. Zakrzewski, J. Gao, N. Rega, 
 G. Zheng, W. Liang, M. Hada, M. Ehara, K. Toyota, R. Fukuda, 
 J. Hasegawa, M. Ishida, T. Nakajima, Y. Honda, O. Kitao, H. Nakai, 
 T. Vreven, K. Throssell, J. A. Montgomery, Jr., J. E. Peralta, 
 F. Ogliaro, M. J. Bearpark, J. J. Heyd, E. N. Brothers, K. N. Kudin, 
 V. N. Staroverov, T. A. Keith, R. Kobayashi, J. Normand, 
 K. Raghavachari, A. P. Rendell, J. C. Burant, S. S. Iyengar, 
 J. Tomasi, M. Cossi, J. M. Millam, M. Klene, C. Adamo, R. Cammi, 
 J. W. Ochterski, R. L. Martin, K. Morokuma, O. Farkas, 
 J. B. Foresman, and D. J. Fox, Gaussian, Inc., Wallingford CT, 2019.
 
 ******************************************
 Gaussian 16:  EM64L-G16RevC.01  3-Jul-2019
                21-Mar-2022 
 ******************************************
 %mem=64gb
 %nproc=8
 Will use up to    8 processors via shared memory.
 ---------------------------------------------------------------------
 #P TD(Nstates=10000) m062x/Gen SCF(maxcycles=100) Int(Grid=ultrafine)
 ---------------------------------------------------------------------
 1/38=1,172=1/1;
 2/12=2,17=6,18=5,40=1/2;
 3/5=7,11=9,25=1,30=1,74=-55,75=-5/1,2,3,8;
 4//1;
 5/5=2,7=100,38=5/2;
 8/6=1,10=1,108=10000/1;
 9/41=10000,42=1,70=2/14;
 6/7=2,8=2,9=2,10=2/1;
 99/5=1,9=1/99;
 Leave Link    1 at Mon Mar 21 20:03:18 2022, MaxMem=  8589934592 cpu:               0.4 elap:               0.1
 (Enter /home/sabyasachi/g16/l101.exe)
 ---------------------
 xGDB7_00001_tier4.com
 ---------------------
 Symbolic Z-matrix:
 Charge =  0 Multiplicity = 1
 8                    -1.0238   -0.43879   0. 
 6                     0.        0.41895   0. 
 8                     1.15299   0.10998   0. 
 1                    -0.65694  -1.33301   0. 
 1                    -0.3765    1.44977   0. 
 
 ITRead=  0  0  0  0  0
 MicOpt= -1 -1 -1 -1 -1
 NAtoms=      5 NQM=        5 NQMF=       0 NMMI=      0 NMMIF=      0
                NMic=       0 NMicF=      0.
                    Isotopes and Nuclear Properties:
 (Nuclear quadrupole moments (NQMom) in fm**2, nuclear magnetic moments (NMagM)
  in nuclear magnetons)

  Atom         1           2           3           4           5
 IAtWgt=          16          12          16           1           1
 AtmWgt=  15.9949146  12.0000000  15.9949146   1.0078250   1.0078250
 NucSpn=           0           0           0           1           1
 AtZEff=  -0.0000000  -0.0000000  -0.0000000  -0.0000000  -0.0000000
 NQMom=    0.0000000   0.0000000   0.0000000   0.0000000   0.0000000
 NMagM=    0.0000000   0.0000000   0.0000000   2.7928460   2.7928460
 AtZNuc=   8.0000000   6.0000000   8.0000000   1.0000000   1.0000000
 Leave Link  101 at Mon Mar 21 20:03:18 2022, MaxMem=  8589934592 cpu:               0.6 elap:               0.1
 (Enter /home/sabyasachi/g16/l202.exe)
                          Input orientation:                          
 ---------------------------------------------------------------------
 Center     Atomic      Atomic             Coordinates (Angstroms)
 Number     Number       Type             X           Y           Z
 ---------------------------------------------------------------------
      1          8           0       -1.023804   -0.438792    0.000000
      2          6           0        0.000000    0.418952    0.000000
      3          8           0        1.152985    0.109983    0.000000
      4          1           0       -0.656942   -1.333012    0.000000
      5          1           0       -0.376499    1.449770    0.000000
 ---------------------------------------------------------------------
                    Distance matrix (angstroms):
                    1          2          3          4          5
     1  O    0.000000
     2  C    1.335627   0.000000
     3  O    2.244897   1.193665   0.000000
     4  H    0.966549   1.871083   2.314751   0.000000
     5  H    1.996414   1.097423   2.033310   2.796878   0.000000
 Stoichiometry    CH2O2
 Framework group  CS[SG(CH2O2)]
 Deg. of freedom     7
 Full point group                 CS      NOp   2
 Largest Abelian subgroup         CS      NOp   2
 Largest concise Abelian subgroup C1      NOp   1
                         Standard orientation:                         
 ---------------------------------------------------------------------
 Center     Atomic      Atomic             Coordinates (Angstroms)
 Number     Number       Type             X           Y           Z
 ---------------------------------------------------------------------
      1          8           0       -1.023805   -0.438791    0.000000
      2          6           0       -0.000000    0.418952    0.000000
      3          8           0        1.152985    0.109982   -0.000000
      4          1           0       -0.656943   -1.333011    0.000000
      5          1           0       -0.376498    1.449770    0.000000
 ---------------------------------------------------------------------
 Rotational constants (GHZ):          78.3457848          12.2009615          10.5569106
 Leave Link  202 at Mon Mar 21 20:03:18 2022, MaxMem=  8589934592 cpu:               0.1 elap:               0.0
 (Enter /home/sabyasachi/g16/l301.exe)
 General basis read from cards:  (5D, 7F)
 Centers:       4      5
 S 3 1.00
     Exponent=  1.3010701000D+01 Coefficients=  1.9682158000D-02
     Exponent=  1.9622572000D+00 Coefficients=  1.3796524000D-01
     Exponent=  4.4453796000D-01 Coefficients=  4.7831935000D-01
 S 1 1.00
     Exponent=  1.2194962000D-01 Coefficients=  1.0000000000D+00
 P 1 1.00
     Exponent=  8.0000000000D-01 Coefficients=  1.0000000000D+00
 P 1 1.00
     Exponent=  1.1704099050D-01 Coefficients=  1.0000000000D+00
 ****
 Centers:       2
 S 5 1.00
     Exponent=  1.2384016938D+03 Coefficients=  5.4568832082D-03
     Exponent=  1.8629004992D+02 Coefficients=  4.0638409211D-02
     Exponent=  4.2251176346D+01 Coefficients=  1.8025593888D-01
     Exponent=  1.1676557932D+01 Coefficients=  4.6315121755D-01
     Exponent=  3.5930506482D+00 Coefficients=  4.4087173314D-01
 S 1 1.00
     Exponent=  4.0245147363D-01 Coefficients=  1.0000000000D+00
 S 1 1.00
     Exponent=  1.3090182668D-01 Coefficients=  1.0000000000D+00
 S 1 1.00
     Exponent=  6.7053540256D-02 Coefficients=  1.0000000000D+00
 P 3 1.00
     Exponent=  9.4680970621D+00 Coefficients=  3.8387871728D-02
     Exponent=  2.0103545142D+00 Coefficients=  2.1117025112D-01
     Exponent=  5.4771004707D-01 Coefficients=  5.1328172114D-01
 P 1 1.00
     Exponent=  1.5268613795D-01 Coefficients=  1.0000000000D+00
 D 1 1.00
     Exponent=  8.0000000000D-01 Coefficients=  1.0000000000D+00
 D 1 1.00
     Exponent=  1.1713185140D-01 Coefficients=  1.0000000000D+00
 ****
 Centers:       1      3
 S 5 1.00
     Exponent=  2.2661767785D+03 Coefficients= -5.3431809926D-03
     Exponent=  3.4087010191D+02 Coefficients= -3.9890039230D-02
     Exponent=  7.7363135167D+01 Coefficients= -1.7853911985D-01
     Exponent=  2.1479644940D+01 Coefficients= -4.6427684959D-01
     Exponent=  6.6589433124D+00 Coefficients= -4.4309745172D-01
 S 1 1.00
     Exponent=  8.0975975668D-01 Coefficients=  1.0000000000D+00
 S 1 1.00
     Exponent=  2.5530772234D-01 Coefficients=  1.0000000000D+00
 S 1 1.00
     Exponent=  7.6572453250D-02 Coefficients=  1.0000000000D+00
 P 3 1.00
     Exponent=  1.7721504317D+01 Coefficients=  4.3394573193D-02
     Exponent=  3.8635505440D+00 Coefficients=  2.3094120765D-01
     Exponent=  1.0480920883D+00 Coefficients=  5.1375311064D-01
 P 1 1.00
     Exponent=  2.7641544411D-01 Coefficients=  1.0000000000D+00
 P 1 1.00
     Exponent=  6.9002276350D-02 Coefficients=  1.0000000000D+00
 D 1 1.00
     Exponent=  1.2000000000D+00 Coefficients=  1.0000000000D+00
 D 1 1.00
     Exponent=  1.7992024323D-01 Coefficients=  1.0000000000D+00
 ****
 Ernie: Thresh=  0.10000D-02 Tol=  0.10000D-05 Strict=F.
 There are    64 symmetry adapted cartesian basis functions of A'  symmetry.
 There are    24 symmetry adapted cartesian basis functions of A"  symmetry.
 There are    58 symmetry adapted basis functions of A'  symmetry.
 There are    24 symmetry adapted basis functions of A"  symmetry.
    82 basis functions,   122 primitive gaussians,    88 cartesian basis functions
    12 alpha electrons       12 beta electrons
       nuclear repulsion energy        70.5741297168 Hartrees.
 IExCor= 4336 DFT=T Ex+Corr=M062X ExCW=0 ScaHFX=  0.540000
 ScaDFX=  1.000000  1.000000  1.000000  1.000000 ScalE2=  1.000000  1.000000
 IRadAn=      5 IRanWt=     -1 IRanGd=            0 ICorTp=0 IEmpDi=  4
 NAtoms=    5 NActive=    5 NUniq=    5 SFac= 1.00D+00 NAtFMM=   60 NAOKFM=F Big=F
 Integral buffers will be    131072 words long.
 Regular integral format.
 Two-electron integral symmetry is turned on.
 Leave Link  301 at Mon Mar 21 20:03:18 2022, MaxMem=  8589934592 cpu:               0.5 elap:               0.1
 (Enter /home/sabyasachi/g16/l302.exe)
 NPDir=0 NMtPBC=     1 NCelOv=     1 NCel=       1 NClECP=     1 NCelD=      1
         NCelK=      1 NCelE2=     1 NClLst=     1 CellRange=     0.0.
 One-electron integrals computed using PRISM.
 One-electron integral symmetry used in STVInt
 NBasis=    82 RedAO= T EigKep=  3.68D-04  NBF=    58    24
 NBsUse=    82 1.00D-06 EigRej= -1.00D+00 NBFU=    58    24
 Precomputing XC quadrature grid using
 IXCGrd= 4 IRadAn=           5 IRanWt=          -1 IRanGd=           0 AccXCQ= 0.00D+00.
 Generated NRdTot=       0 NPtTot=           0 NUsed=           0 NTot=          32
 NSgBfM=    88    88    88    88    88 MxSgAt=     5 MxSgA2=     5.
 Leave Link  302 at Mon Mar 21 20:03:19 2022, MaxMem=  8589934592 cpu:               0.9 elap:               0.1
 (Enter /home/sabyasachi/g16/l303.exe)
 DipDrv:  MaxL=1.
 Leave Link  303 at Mon Mar 21 20:03:19 2022, MaxMem=  8589934592 cpu:               0.2 elap:               0.0
 (Enter /home/sabyasachi/g16/l308.exe)
 Leave Link  308 at Mon Mar 21 20:03:19 2022, MaxMem=  8589934592 cpu:               0.2 elap:               0.0
 (Enter /home/sabyasachi/g16/l401.exe)
 ExpMin= 6.71D-02 ExpMax= 2.27D+03 ExpMxC= 3.41D+02 IAcc=3 IRadAn=         5 AccDes= 0.00D+00
 Harris functional with IExCor= 1009 and IRadAn=       5 diagonalized for initial guess.
 HarFok:  IExCor= 1009 AccDes= 0.00D+00 IRadAn=         5 IDoV= 1 UseB2=F ITyADJ=14
 ICtDFT=  3500011 ScaDFX=  1.000000  1.000000  1.000000  1.000000
 FoFCou: FMM=F IPFlag=           0 FMFlag=      100000 FMFlg1=           0
         NFxFlg=           0 DoJE=T BraDBF=F KetDBF=T FulRan=T
         wScrn=  0.000000 ICntrl=       500 IOpCl=  0 I1Cent=   200000004 NGrid=           0
         NMat0=    1 NMatS0=      1 NMatT0=    0 NMatD0=    1 NMtDS0=    0 NMtDT0=    0
 Petite list used in FoFCou.
 Harris En= -189.469566420174    
 JPrj=0 DoOrth=F DoCkMO=F.
 Initial guess orbital symmetries:
       Occupied  (A') (A') (A') (A') (A') (A') (A') (A') (A") (A')
                 (A") (A')
       Virtual   (A") (A') (A') (A') (A") (A') (A') (A') (A") (A')
                 (A") (A') (A') (A') (A") (A') (A') (A') (A') (A")
                 (A') (A") (A') (A') (A') (A") (A') (A') (A') (A")
                 (A") (A') (A") (A') (A") (A') (A') (A') (A') (A')
                 (A') (A") (A") (A') (A') (A') (A") (A') (A') (A')
                 (A") (A') (A") (A') (A') (A') (A") (A') (A') (A')
                 (A") (A') (A") (A") (A') (A") (A') (A') (A') (A')
 The electronic state of the initial guess is 1-A'.
 Leave Link  401 at Mon Mar 21 20:03:19 2022, MaxMem=  8589934592 cpu:               1.6 elap:               0.2
 (Enter /home/sabyasachi/g16/l502.exe)
 Keep R1 ints in memory in symmetry-blocked form, NReq=13119480.
 FoFCou: FMM=F IPFlag=           0 FMFlag=           0 FMFlg1=           0
         NFxFlg=           0 DoJE=F BraDBF=F KetDBF=F FulRan=T
         wScrn=  0.000000 ICntrl=       600 IOpCl=  0 I1Cent=           0 NGrid=           0
         NMat0=    1 NMatS0=   3403 NMatT0=    0 NMatD0=    1 NMtDS0=    0 NMtDT0=    0
 Petite list used in FoFCou.
 Closed shell SCF:
 Using DIIS extrapolation, IDIIS=  1040.
 NGot=  8589934592 LenX=  8586916656 LenY=  8586908471
 Requested convergence on RMS density matrix=1.00D-08 within 100 cycles.
 Requested convergence on MAX density matrix=1.00D-06.
 Requested convergence on             energy=1.00D-06.
 No special actions if energy rises.
 Integral accuracy reduced to 1.0D-05 until final iterations.

 Cycle   1  Pass 0  IDiag  1:
 E= -189.487277064128    
 DIIS: error= 3.72D-02 at cycle   1 NSaved=   1.
 NSaved= 1 IEnMin= 1 EnMin= -189.487277064128     IErMin= 1 ErrMin= 3.72D-02
 ErrMax= 3.72D-02  0.00D+00 EMaxC= 1.00D-01 BMatC= 9.97D-02 BMatP= 9.97D-02
 IDIUse=3 WtCom= 6.28D-01 WtEn= 3.72D-01
 Coeff-Com:  0.100D+01
 Coeff-En:   0.100D+01
 Coeff:      0.100D+01
 Gap=     0.304 Goal=   None    Shift=    0.000
 GapD=    0.304 DampG=1.000 DampE=0.500 DampFc=0.5000 IDamp=-1.
 Damping current iteration by 5.00D-01
 RMSDP=7.04D-03 MaxDP=1.42D-01              OVMax= 1.74D-01

 Cycle   2  Pass 0  IDiag  1:
 E= -189.514819194818     Delta-E=       -0.027542130690 Rises=F Damp=T
 DIIS: error= 9.27D-03 at cycle   2 NSaved=   2.
 NSaved= 2 IEnMin= 2 EnMin= -189.514819194818     IErMin= 2 ErrMin= 9.27D-03
 ErrMax= 9.27D-03  0.00D+00 EMaxC= 1.00D-01 BMatC= 8.71D-03 BMatP= 9.97D-02
 IDIUse=3 WtCom= 9.07D-01 WtEn= 9.27D-02
 Coeff-Com:  0.104D+00 0.896D+00
 Coeff-En:   0.200D+00 0.800D+00
 Coeff:      0.113D+00 0.887D+00
 Gap=     0.408 Goal=   None    Shift=    0.000
 RMSDP=1.87D-03 MaxDP=2.75D-02 DE=-2.75D-02 OVMax= 9.17D-02

 Cycle   3  Pass 0  IDiag  1:
 E= -189.554901087703     Delta-E=       -0.040081892885 Rises=F Damp=F
 DIIS: error= 5.25D-03 at cycle   3 NSaved=   3.
 NSaved= 3 IEnMin= 3 EnMin= -189.554901087703     IErMin= 3 ErrMin= 5.25D-03
 ErrMax= 5.25D-03  0.00D+00 EMaxC= 1.00D-01 BMatC= 3.05D-03 BMatP= 8.71D-03
 IDIUse=3 WtCom= 9.47D-01 WtEn= 5.25D-02
 Coeff-Com: -0.102D-01 0.339D+00 0.672D+00
 Coeff-En:   0.000D+00 0.000D+00 0.100D+01
 Coeff:     -0.970D-02 0.321D+00 0.689D+00
 Gap=     0.406 Goal=   None    Shift=    0.000
 RMSDP=7.21D-04 MaxDP=1.42D-02 DE=-4.01D-02 OVMax= 2.82D-02

 Cycle   4  Pass 0  IDiag  1:
 E= -189.556580003615     Delta-E=       -0.001678915912 Rises=F Damp=F
 DIIS: error= 2.65D-03 at cycle   4 NSaved=   4.
 NSaved= 4 IEnMin= 4 EnMin= -189.556580003615     IErMin= 4 ErrMin= 2.65D-03
 ErrMax= 2.65D-03  0.00D+00 EMaxC= 1.00D-01 BMatC= 1.03D-03 BMatP= 3.05D-03
 IDIUse=3 WtCom= 9.73D-01 WtEn= 2.65D-02
 Coeff-Com: -0.168D-01 0.429D-01 0.387D+00 0.587D+00
 Coeff-En:   0.000D+00 0.000D+00 0.238D+00 0.762D+00
 Coeff:     -0.163D-01 0.417D-01 0.383D+00 0.591D+00
 Gap=     0.410 Goal=   None    Shift=    0.000
 RMSDP=2.75D-04 MaxDP=6.30D-03 DE=-1.68D-03 OVMax= 7.83D-03

 Cycle   5  Pass 0  IDiag  1:
 E= -189.557304671956     Delta-E=       -0.000724668341 Rises=F Damp=F
 DIIS: error= 3.94D-04 at cycle   5 NSaved=   5.
 NSaved= 5 IEnMin= 5 EnMin= -189.557304671956     IErMin= 5 ErrMin= 3.94D-04
 ErrMax= 3.94D-04  0.00D+00 EMaxC= 1.00D-01 BMatC= 2.02D-05 BMatP= 1.03D-03
 IDIUse=3 WtCom= 9.96D-01 WtEn= 3.94D-03
 Coeff-Com: -0.429D-02 0.678D-03 0.123D+00 0.225D+00 0.655D+00
 Coeff-En:   0.000D+00 0.000D+00 0.000D+00 0.000D+00 0.100D+01
 Coeff:     -0.428D-02 0.675D-03 0.123D+00 0.225D+00 0.656D+00
 Gap=     0.408 Goal=   None    Shift=    0.000
 RMSDP=5.59D-05 MaxDP=1.61D-03 DE=-7.25D-04 OVMax= 1.58D-03

 Cycle   6  Pass 0  IDiag  1:
 E= -189.557323587914     Delta-E=       -0.000018915958 Rises=F Damp=F
 DIIS: error= 8.49D-05 at cycle   6 NSaved=   6.
 NSaved= 6 IEnMin= 6 EnMin= -189.557323587914     IErMin= 6 ErrMin= 8.49D-05
 ErrMax= 8.49D-05  0.00D+00 EMaxC= 1.00D-01 BMatC= 1.07D-06 BMatP= 2.02D-05
 IDIUse=1 WtCom= 1.00D+00 WtEn= 0.00D+00
 Coeff-Com:  0.104D-02-0.417D-02-0.738D-02-0.193D-01 0.919D-01 0.938D+00
 Coeff:      0.104D-02-0.417D-02-0.738D-02-0.193D-01 0.919D-01 0.938D+00
 Gap=     0.408 Goal=   None    Shift=    0.000
 RMSDP=1.92D-05 MaxDP=3.28D-04 DE=-1.89D-05 OVMax= 5.53D-04

 Cycle   7  Pass 0  IDiag  1:
 E= -189.557325152554     Delta-E=       -0.000001564640 Rises=F Damp=F
 DIIS: error= 2.38D-05 at cycle   7 NSaved=   7.
 NSaved= 7 IEnMin= 7 EnMin= -189.557325152554     IErMin= 7 ErrMin= 2.38D-05
 ErrMax= 2.38D-05  0.00D+00 EMaxC= 1.00D-01 BMatC= 8.90D-08 BMatP= 1.07D-06
 IDIUse=1 WtCom= 1.00D+00 WtEn= 0.00D+00
 Coeff-Com:  0.719D-03-0.704D-03-0.115D-01-0.266D-01-0.594D-01 0.312D-01
 Coeff-Com:  0.107D+01
 Coeff:      0.719D-03-0.704D-03-0.115D-01-0.266D-01-0.594D-01 0.312D-01
 Coeff:      0.107D+01
 Gap=     0.409 Goal=   None    Shift=    0.000
 RMSDP=7.92D-06 MaxDP=1.26D-04 DE=-1.56D-06 OVMax= 2.77D-04

 Initial convergence to 1.0D-05 achieved.  Increase integral accuracy.
 Cycle   8  Pass 1  IDiag  1:
 E= -189.557326869621     Delta-E=       -0.000001717067 Rises=F Damp=F
 DIIS: error= 8.65D-06 at cycle   1 NSaved=   1.
 NSaved= 1 IEnMin= 1 EnMin= -189.557326869621     IErMin= 1 ErrMin= 8.65D-06
 ErrMax= 8.65D-06  0.00D+00 EMaxC= 1.00D-01 BMatC= 2.21D-08 BMatP= 2.21D-08
 IDIUse=1 WtCom= 1.00D+00 WtEn= 0.00D+00
 Coeff-Com:  0.100D+01
 Coeff:      0.100D+01
 Gap=     0.409 Goal=   None    Shift=    0.000
 RMSDP=7.92D-06 MaxDP=1.26D-04 DE=-1.72D-06 OVMax= 7.42D-05

 Cycle   9  Pass 1  IDiag  1:
 E= -189.557326894276     Delta-E=       -0.000000024655 Rises=F Damp=F
 DIIS: error= 6.76D-06 at cycle   2 NSaved=   2.
 NSaved= 2 IEnMin= 2 EnMin= -189.557326894276     IErMin= 2 ErrMin= 6.76D-06
 ErrMax= 6.76D-06  0.00D+00 EMaxC= 1.00D-01 BMatC= 4.13D-09 BMatP= 2.21D-08
 IDIUse=1 WtCom= 1.00D+00 WtEn= 0.00D+00
 Coeff-Com:  0.164D+00 0.836D+00
 Coeff:      0.164D+00 0.836D+00
 Gap=     0.409 Goal=   None    Shift=    0.000
 RMSDP=1.20D-06 MaxDP=3.34D-05 DE=-2.47D-08 OVMax= 5.67D-05

 Cycle  10  Pass 1  IDiag  1:
 E= -189.557326894370     Delta-E=       -0.000000000094 Rises=F Damp=F
 DIIS: error= 6.37D-06 at cycle   3 NSaved=   3.
 NSaved= 3 IEnMin= 3 EnMin= -189.557326894370     IErMin= 3 ErrMin= 6.37D-06
 ErrMax= 6.37D-06  0.00D+00 EMaxC= 1.00D-01 BMatC= 5.65D-09 BMatP= 4.13D-09
 IDIUse=1 WtCom= 1.00D+00 WtEn= 0.00D+00
 Coeff-Com: -0.674D-01 0.564D+00 0.504D+00
 Coeff:     -0.674D-01 0.564D+00 0.504D+00
 Gap=     0.409 Goal=   None    Shift=    0.000
 RMSDP=6.87D-07 MaxDP=1.43D-05 DE=-9.41D-11 OVMax= 1.97D-05

 Cycle  11  Pass 1  IDiag  1:
 E= -189.557326898555     Delta-E=       -0.000000004185 Rises=F Damp=F
 DIIS: error= 3.78D-07 at cycle   4 NSaved=   4.
 NSaved= 4 IEnMin= 4 EnMin= -189.557326898555     IErMin= 4 ErrMin= 3.78D-07
 ErrMax= 3.78D-07  0.00D+00 EMaxC= 1.00D-01 BMatC= 2.01D-11 BMatP= 4.13D-09
 IDIUse=1 WtCom= 1.00D+00 WtEn= 0.00D+00
 Coeff-Com:  0.133D-02-0.881D-01-0.977D-01 0.118D+01
 Coeff:      0.133D-02-0.881D-01-0.977D-01 0.118D+01
 Gap=     0.409 Goal=   None    Shift=    0.000
 RMSDP=1.37D-07 MaxDP=2.53D-06 DE=-4.18D-09 OVMax= 5.24D-06

 Cycle  12  Pass 1  IDiag  1:
 E= -189.557326898616     Delta-E=       -0.000000000061 Rises=F Damp=F
 DIIS: error= 1.91D-07 at cycle   5 NSaved=   5.
 NSaved= 5 IEnMin= 5 EnMin= -189.557326898616     IErMin= 5 ErrMin= 1.91D-07
 ErrMax= 1.91D-07  0.00D+00 EMaxC= 1.00D-01 BMatC= 4.42D-12 BMatP= 2.01D-11
 IDIUse=1 WtCom= 1.00D+00 WtEn= 0.00D+00
 Coeff-Com:  0.617D-02-0.688D-01-0.777D-01 0.336D+00 0.805D+00
 Coeff:      0.617D-02-0.688D-01-0.777D-01 0.336D+00 0.805D+00
 Gap=     0.409 Goal=   None    Shift=    0.000
 RMSDP=3.89D-08 MaxDP=8.65D-07 DE=-6.10D-11 OVMax= 1.16D-06

 Cycle  13  Pass 1  IDiag  1:
 E= -189.557326898620     Delta-E=       -0.000000000005 Rises=F Damp=F
 DIIS: error= 3.88D-08 at cycle   6 NSaved=   6.
 NSaved= 6 IEnMin= 6 EnMin= -189.557326898620     IErMin= 6 ErrMin= 3.88D-08
 ErrMax= 3.88D-08  0.00D+00 EMaxC= 1.00D-01 BMatC= 2.92D-13 BMatP= 4.42D-12
 IDIUse=1 WtCom= 1.00D+00 WtEn= 0.00D+00
 Coeff-Com:  0.121D-02-0.855D-02-0.130D-01-0.706D-02 0.186D+00 0.841D+00
 Coeff:      0.121D-02-0.855D-02-0.130D-01-0.706D-02 0.186D+00 0.841D+00
 Gap=     0.409 Goal=   None    Shift=    0.000
 RMSDP=1.04D-08 MaxDP=1.57D-07 DE=-4.60D-12 OVMax= 2.49D-07

 Cycle  14  Pass 1  IDiag  1:
 E= -189.557326898621     Delta-E=       -0.000000000001 Rises=F Damp=F
 DIIS: error= 1.91D-08 at cycle   7 NSaved=   7.
 NSaved= 7 IEnMin= 7 EnMin= -189.557326898621     IErMin= 7 ErrMin= 1.91D-08
 ErrMax= 1.91D-08  0.00D+00 EMaxC= 1.00D-01 BMatC= 6.00D-14 BMatP= 2.92D-13
 IDIUse=1 WtCom= 1.00D+00 WtEn= 0.00D+00
 Coeff-Com:  0.321D-04 0.266D-02 0.858D-03-0.338D-01 0.560D-02 0.368D+00
 Coeff-Com:  0.656D+00
 Coeff:      0.321D-04 0.266D-02 0.858D-03-0.338D-01 0.560D-02 0.368D+00
 Coeff:      0.656D+00
 Gap=     0.409 Goal=   None    Shift=    0.000
 RMSDP=3.30D-09 MaxDP=7.17D-08 DE=-6.82D-13 OVMax= 7.38D-08

 SCF Done:  E(RM062X) =  -189.557326899     A.U. after   14 cycles
            NFock= 14  Conv=0.33D-08     -V/T= 2.0080
 KE= 1.880615107948D+02 PE=-5.865682925973D+02 EE= 1.383753251870D+02
 Leave Link  502 at Mon Mar 21 20:03:21 2022, MaxMem=  8589934592 cpu:              13.0 elap:               1.7
 (Enter /home/sabyasachi/g16/l801.exe)
 DoSCS=F DFT=T ScalE2(SS,OS)=  1.000000  1.000000
 ExpMin= 6.71D-02 ExpMax= 2.27D+03 ExpMxC= 3.41D+02 IAcc=3 IRadAn=         5 AccDes= 0.00D+00
 HarFok:  IExCor=  205 AccDes= 0.00D+00 IRadAn=         5 IDoV=-2 UseB2=F ITyADJ=14
 ICtDFT= 12500011 ScaDFX=  1.000000  1.000000  1.000000  1.000000
 Largest valence mixing into a core orbital is  9.43D-05
 Largest core mixing into a valence orbital is  2.28D-05
 Range of M.O.s used for correlation:     4    82
 NBasis=    82 NAE=    12 NBE=    12 NFC=     3 NFV=     0
 NROrb=     79 NOA=     9 NOB=     9 NVA=    70 NVB=    70

 **** Warning!!: The largest alpha MO coefficient is  0.15759404D+02

 Leave Link  801 at Mon Mar 21 20:03:21 2022, MaxMem=  8589934592 cpu:               0.4 elap:               0.1
 (Enter /home/sabyasachi/g16/l914.exe)
 RHF ground state
 Keep R1, R2, and R3 ints in memory in symmetry-blocked form, NReq=426863128.
 FoFCou: FMM=F IPFlag=           0 FMFlag=           0 FMFlg1=           0
         NFxFlg=           0 DoJE=F BraDBF=F KetDBF=F FulRan=T
         wScrn=  0.000000 ICntrl=       600 IOpCl=  0 I1Cent=           0 NGrid=           0
         NMat0=    1 NMatS0=   3403 NMatT0=    0 NMatD0=    1 NMtDS0=    0 NMtDT0=    0
 Petite list used in FoFCou.
 MDV=  8589934592 DFT=T DoStab=F Mixed=T DoRPA=T DoScal=F NonHer=T
 Making orbital integer symmetry assigments:
 Orbital symmetries:
       Occupied  (A') (A') (A') (A') (A') (A') (A') (A') (A") (A')
                 (A") (A')
       Virtual   (A') (A") (A') (A') (A") (A') (A') (A") (A') (A')
                 (A") (A') (A') (A") (A') (A') (A') (A') (A") (A')
                 (A') (A") (A') (A') (A') (A") (A') (A') (A') (A")
                 (A') (A") (A') (A") (A') (A") (A') (A') (A') (A')
                 (A') (A") (A") (A') (A') (A") (A') (A') (A") (A')
                 (A') (A') (A") (A') (A') (A") (A') (A') (A') (A')
                 (A") (A') (A") (A") (A') (A") (A') (A') (A') (A')
   630 initial guesses have been made.
 Convergence on wavefunction:    0.001000000000000
 Davidson Disk Diagonalization:  ConvIn= 1.00D-03 SkipCon=T Conv= 1.00D-03.
 Max sub-space:  3780 roots to seek:  1260 dimension of matrix:         1260
 *** WARNING: Number of orthogonal guesses is          630
 Iteration     1 Dimension   630 NMult     0 NNew    630
 CISAX will form   630 AO SS matrices at one time.
 NMat=   630 NSing=   630 JSym2X=-1.
 New state      1 was old state      2
 New state      2 was old state      1
 New state      3 was old state      4
 New state      4 was old state      5
 New state      5 was old state      3
 New state      6 was old state     14
 New state      7 was old state      6
 New state      9 was old state      7
 New state     11 was old state     13
 New state     13 was old state      9
 New state     14 was old state     11
 New state     15 was old state     16
 New state     16 was old state     17
 New state     17 was old state     15
 New state     18 was old state     32
 New state     19 was old state     24
 New state     20 was old state     19
 New state     21 was old state     18
 New state     22 was old state     42
 New state     23 was old state     22
 New state     24 was old state     20
 New state     25 was old state     23
 New state     26 was old state     21
 New state     27 was old state     29
 New state     28 was old state     26
 New state     29 was old state     25
 New state     30 was old state     27
 New state     31 was old state     30
 New state     32 was old state     28
 New state     33 was old state     31
 New state     34 was old state     33
 New state     35 was old state     37
 New state     36 was old state     43
 New state     37 was old state     34
 New state     39 was old state     44
 New state     40 was old state     41
 New state     41 was old state     39
 New state     42 was old state     35
 New state     43 was old state     36
 New state     44 was old state     40
 New state     45 was old state     51
 New state     46 was old state     45
 New state     47 was old state     46
 New state     48 was old state     53
 New state     49 was old state     47
 New state     50 was old state     48
 New state     51 was old state     49
 New state     52 was old state     63
 New state     53 was old state     50
 New state     54 was old state     52
 New state     55 was old state     62
 New state     56 was old state     57
 New state     57 was old state     55
 New state     59 was old state     54
 New state     60 was old state     59
 New state     61 was old state     56
 New state     62 was old state     64
 New state     63 was old state     60
 New state     64 was old state     61
 New state     66 was old state     67
 New state     67 was old state     75
 New state     68 was old state     69
 New state     69 was old state     68
 New state     70 was old state     71
 New state     71 was old state     72
 New state     72 was old state     66
 New state     73 was old state     85
 New state     74 was old state     73
 New state     75 was old state     82
 New state     76 was old state     70
 New state     77 was old state     78
 New state     78 was old state     80
 New state     80 was old state     77
 New state     82 was old state     88
 New state     83 was old state     74
 New state     84 was old state     76
 New state     85 was old state     92
 New state     86 was old state     87
 New state     87 was old state     84
 New state     88 was old state     83
 New state     89 was old state     93
 New state     90 was old state     89
 New state     91 was old state     86
 New state     92 was old state     91
 New state     93 was old state     96
 New state     95 was old state     90
 New state     96 was old state     95
 New state     97 was old state    104
 New state     99 was old state    102
 New state    100 was old state     97
 New state    101 was old state     99
 New state    102 was old state    109
 New state    103 was old state    101
 New state    104 was old state    100
 New state    105 was old state    106
 New state    106 was old state    105
 New state    107 was old state    115
 New state    108 was old state    111
 New state    109 was old state    103
 New state    110 was old state    112
 New state    111 was old state    116
 New state    112 was old state    107
 New state    113 was old state    108
 New state    114 was old state    124
 New state    115 was old state    125
 New state    116 was old state    110
 New state    117 was old state    113
 New state    119 was old state    117
 New state    120 was old state    121
 New state    121 was old state    119
 New state    122 was old state    114
 New state    123 was old state    126
 New state    124 was old state    130
 New state    125 was old state    127
 New state    126 was old state    134
 New state    127 was old state    122
 New state    128 was old state    129
 New state    129 was old state    128
 New state    130 was old state    123
 New state    131 was old state    120
 New state    132 was old state    136
 New state    133 was old state    139
 New state    134 was old state    133
 New state    135 was old state    137
 New state    136 was old state    132
 New state    137 was old state    138
 New state    138 was old state    141
 New state    139 was old state    135
 New state    140 was old state    144
 New state    141 was old state    131
 New state    143 was old state    140
 New state    144 was old state    145
 New state    145 was old state    143
 New state    146 was old state    153
 New state    147 was old state    146
 New state    148 was old state    151
 New state    149 was old state    152
 New state    150 was old state    148
 New state    151 was old state    147
 New state    152 was old state    150
 New state    153 was old state    149
 New state    155 was old state    159
 New state    158 was old state    160
 New state    159 was old state    162
 New state    160 was old state    158
 New state    161 was old state    168
 New state    162 was old state    165
 New state    163 was old state    155
 New state    165 was old state    163
 New state    166 was old state    170
 New state    167 was old state    180
 New state    168 was old state    167
 New state    169 was old state    172
 New state    170 was old state    169
 New state    171 was old state    178
 New state    172 was old state    166
 New state    173 was old state    171
 New state    174 was old state    179
 New state    176 was old state    177
 New state    177 was old state    174
 New state    178 was old state    176
 New state    179 was old state    182
 New state    180 was old state    190
 New state    182 was old state    185
 New state    183 was old state    184
 New state    184 was old state    189
 New state    185 was old state    187
 New state    187 was old state    191
 New state    188 was old state    183
 New state    189 was old state    210
 New state    190 was old state    195
 New state    191 was old state    192
 New state    192 was old state    188
 New state    193 was old state    198
 New state    195 was old state    201
 New state    196 was old state    193
 New state    198 was old state    199
 New state    199 was old state    200
 New state    200 was old state    196
 New state    201 was old state    204
 New state    204 was old state    208
 New state    206 was old state    207
 New state    207 was old state    214
 New state    208 was old state    209
 New state    209 was old state    206
 New state    210 was old state    212
 New state    211 was old state    215
 New state    212 was old state    211
 New state    213 was old state    217
 New state    214 was old state    223
 New state    215 was old state    216
 New state    216 was old state    219
 New state    217 was old state    221
 New state    218 was old state    225
 New state    219 was old state    220
 New state    220 was old state    218
 New state    221 was old state    213
 New state    222 was old state    235
 New state    223 was old state    222
 New state    224 was old state    230
 New state    225 was old state    244
 New state    227 was old state    229
 New state    229 was old state    231
 New state    230 was old state    232
 New state    231 was old state    227
 New state    232 was old state    224
 New state    234 was old state    242
 New state    235 was old state    234
 New state    236 was old state    238
 New state    237 was old state    240
 New state    238 was old state    258
 New state    240 was old state    247
 New state    242 was old state    251
 New state    243 was old state    236
 New state    244 was old state    249
 New state    245 was old state    237
 New state    246 was old state    248
 New state    247 was old state    254
 New state    248 was old state    250
 New state    249 was old state    246
 New state    250 was old state    243
 New state    251 was old state    259
 New state    252 was old state    245
 No map to state    253
 New state    254 was old state    261
 New state    255 was old state    252
 New state    256 was old state    267
 New state    257 was old state    262
 New state    258 was old state    260
 New state    259 was old state    257
 New state    260 was old state    253
 New state    261 was old state    255
 New state    262 was old state    256
 New state    263 was old state    266
 New state    265 was old state    268
 New state    266 was old state    272
 New state    267 was old state    271
 New state    268 was old state    263
 New state    270 was old state    265
 New state    271 was old state    279
 New state    272 was old state    276
 New state    274 was old state    277
 New state    275 was old state    270
 New state    276 was old state    280
 New state    277 was old state    275
 New state    278 was old state    282
 New state    279 was old state    288
 New state    280 was old state    274
 New state    281 was old state    287
 New state    282 was old state    278
 New state    284 was old state    285
 New state    285 was old state    281
 New state    286 was old state    294
 New state    287 was old state    284
 New state    288 was old state    293
 New state    289 was old state    286
 New state    290 was old state    296
 New state    292 was old state    289
 New state    293 was old state    297
 New state    294 was old state    290
 New state    295 was old state    292
 New state    296 was old state    295
 New state    297 was old state    300
 New state    298 was old state    307
 New state    299 was old state    298
 New state    300 was old state    301
 New state    301 was old state    302
 New state    302 was old state    303
 New state    303 was old state    305
 New state    304 was old state    299
 New state    305 was old state    309
 New state    306 was old state    308
 New state    307 was old state    306
 New state    308 was old state    312
 New state    309 was old state    304
 New state    310 was old state    313
 New state    312 was old state    314
 New state    313 was old state    310
 New state    314 was old state    316
 New state    315 was old state    317
 New state    316 was old state    318
 New state    317 was old state    315
 New state    318 was old state    321
 New state    321 was old state    325
 New state    323 was old state    326
 New state    324 was old state    336
 New state    325 was old state    323
 New state    326 was old state    324
 New state    328 was old state    330
 New state    330 was old state    328
 New state    331 was old state    334
 New state    332 was old state    331
 New state    333 was old state    332
 New state    334 was old state    333
 New state    335 was old state    350
 New state    336 was old state    335
 New state    337 was old state    349
 New state    338 was old state    337
 New state    339 was old state    338
 New state    340 was old state    339
 New state    342 was old state    340
 New state    344 was old state    342
 New state    345 was old state    352
 New state    346 was old state    344
 New state    347 was old state    345
 New state    348 was old state    346
 New state    349 was old state    347
 New state    350 was old state    361
 New state    352 was old state    356
 New state    353 was old state    348
 New state    354 was old state    355
 New state    355 was old state    363
 New state    356 was old state    353
 New state    357 was old state    358
 New state    358 was old state    359
 New state    359 was old state    360
 New state    360 was old state    354
 New state    361 was old state    370
 New state    363 was old state    367
 New state    365 was old state    369
 New state    366 was old state    357
 New state    367 was old state    374
 New state    369 was old state    366
 New state    370 was old state    365
 New state    371 was old state    373
 New state    372 was old state    375
 New state    373 was old state    381
 New state    374 was old state    372
 New state    375 was old state    371
 New state    377 was old state    405
 New state    378 was old state    379
 New state    379 was old state    378
 New state    380 was old state    382
 New state    381 was old state    380
 New state    382 was old state    387
 New state    383 was old state    385
 New state    385 was old state    383
 New state    387 was old state    388
 New state    388 was old state    390
 New state    390 was old state    392
 New state    392 was old state    393
 New state    393 was old state    394
 New state    394 was old state    396
 New state    396 was old state    399
 New state    399 was old state    401
 New state    401 was old state    404
 New state    404 was old state    406
 New state    405 was old state    409
 New state    406 was old state    410
 New state    407 was old state    416
 New state    408 was old state    411
 New state    409 was old state    408
 New state    410 was old state    407
 New state    411 was old state    412
 New state    412 was old state    425
 New state    414 was old state    423
 New state    415 was old state    417
 New state    416 was old state    414
 New state    417 was old state    415
 New state    418 was old state    422
 New state    420 was old state    418
 New state    422 was old state    424
 New state    423 was old state    420
 New state    424 was old state    428
 New state    425 was old state    426
 New state    426 was old state    432
 New state    427 was old state    430
 New state    428 was old state    429
 New state    429 was old state    435
 New state    430 was old state    427
 New state    432 was old state    433
 New state    433 was old state    441
 New state    435 was old state    436
 New state    436 was old state    437
 New state    437 was old state    440
 New state    439 was old state    443
 New state    440 was old state    439
 No map to state    441
 New state    443 was old state    447
 New state    445 was old state    450
 New state    446 was old state    451
 New state    447 was old state    445
 New state    449 was old state    453
 New state    450 was old state    449
 New state    451 was old state    452
 New state    452 was old state    446
 New state    453 was old state    461
 New state    455 was old state    456
 New state    456 was old state    455
 New state    457 was old state    458
 New state    458 was old state    457
 New state    459 was old state    460
 New state    460 was old state    464
 New state    461 was old state    467
 New state    462 was old state    465
 New state    463 was old state    459
 New state    464 was old state    463
 New state    465 was old state    462
 No map to state    466
 New state    467 was old state    466
 New state    470 was old state    471
 New state    471 was old state    472
 New state    472 was old state    470
 New state    473 was old state    475
 New state    474 was old state    477
 New state    475 was old state    473
 New state    476 was old state    479
 New state    477 was old state    474
 New state    478 was old state    482
 New state    479 was old state    476
 New state    480 was old state    478
 New state    481 was old state    480
 New state    482 was old state    481
 New state    483 was old state    486
 New state    484 was old state    483
 New state    486 was old state    484
 New state    489 was old state    490
 New state    490 was old state    489
 New state    493 was old state    494
 New state    494 was old state    493
 New state    497 was old state    500
 New state    498 was old state    499
 New state    499 was old state    497
 New state    500 was old state    498
 New state    502 was old state    505
 New state    503 was old state    502
 New state    505 was old state    503
 New state    510 was old state    512
 New state    511 was old state    514
 New state    512 was old state    510
 New state    513 was old state    511
 New state    514 was old state    513
 New state    515 was old state    516
 New state    516 was old state    515
 New state    517 was old state    518
 New state    518 was old state    517
 New state    520 was old state    521
 New state    521 was old state    520
 New state    522 was old state    523
 New state    523 was old state    525
 New state    524 was old state    522
 New state    525 was old state    524
 New state    526 was old state    527
 New state    527 was old state    526
 New state    529 was old state    530
 New state    530 was old state    529
 New state    531 was old state    536
 New state    533 was old state    531
 New state    534 was old state    540
 New state    535 was old state    534
 New state    536 was old state    538
 New state    537 was old state    535
 New state    538 was old state    533
 New state    539 was old state    546
 New state    540 was old state    537
 New state    542 was old state    539
 New state    543 was old state    542
 New state    544 was old state    545
 New state    545 was old state    544
 New state    546 was old state    549
 New state    547 was old state    543
 New state    548 was old state    547
 New state    549 was old state    550
 New state    550 was old state    548
 New state    554 was old state    555
 New state    555 was old state    554
 New state    556 was old state    561
 New state    557 was old state    560
 New state    558 was old state    556
 New state    559 was old state    564
 New state    560 was old state    557
 New state    561 was old state    559
 New state    562 was old state    558
 New state    563 was old state    562
 New state    564 was old state    563
 New state    568 was old state    569
 New state    569 was old state    571
 New state    570 was old state    568
 New state    571 was old state    574
 New state    572 was old state    573
 New state    573 was old state    570
 New state    574 was old state    572
 New state    576 was old state    577
 New state    577 was old state    576
 New state    578 was old state    580
 New state    579 was old state    578
 New state    580 was old state    579
 New state    581 was old state    582
 New state    582 was old state    581
 New state    585 was old state    589
 New state    586 was old state    585
 New state    588 was old state    586
 New state    589 was old state    588
 New state    590 was old state    591
 New state    591 was old state    592
 New state    592 was old state    590
 New state    594 was old state    595
 New state    595 was old state    597
 New state    596 was old state    599
 New state    597 was old state    594
 New state    599 was old state    596
 New state    600 was old state    602
 New state    601 was old state    600
 New state    602 was old state    601
 New state    603 was old state    605
 New state    604 was old state    603
 New state    605 was old state    604
 New state    606 was old state    609
 New state    607 was old state    606
 New state    609 was old state    607
 New state    612 was old state    613
 New state    613 was old state    612
 New state    614 was old state    616
 New state    615 was old state    614
 New state    616 was old state    615
 New state    618 was old state    619
 New state    619 was old state    618
 New state    620 was old state    621
 New state    621 was old state    620
 New state    622 was old state    623
 New state    623 was old state    622
 New state    628 was old state    629
 New state    629 was old state    628
 Excitation Energies [eV] at current iteration:
 Root      1 :     5.644612630947093
 Root      2 :     8.266123544729549
 Root      3 :     8.881138225926078
 Root      4 :     8.947606257880583
 Root      5 :     9.113761357865874
 Root      6 :     9.325372953589541
 Root      7 :    10.032409241228190
 Root      8 :    10.157182540615140
 Root      9 :    10.228950656513010
 Root     10 :    11.058297974486410
 Root     11 :    11.087218274166330
 Root     12 :    11.210579140071260
 Root     13 :    11.278094967424280
 Root     14 :    11.372542337739770
 Root     15 :    11.502760134352650
 Root     16 :    11.689555257054510
 Root     17 :    11.738612211677370
 Root     18 :    12.018103848661050
 Root     19 :    12.065579336180850
 Root     20 :    12.101516481713280
 Root     21 :    12.339028191780420
 Root     22 :    12.381560578413970
 Root     23 :    12.480524800551840
 Root     24 :    12.648046437087880
 Root     25 :    12.671863470186020
 Root     26 :    12.962599202345490
 Root     27 :    13.084227897771030
 Root     28 :    13.313914115281150
 Root     29 :    13.319969194790550
 Root     30 :    13.412410893037210
 Root     31 :    13.584935720047610
 Root     32 :    13.617901048644800
 Root     33 :    13.874684297127650
 Root     34 :    14.079123624267150
 Root     35 :    14.249133713589500
 Root     36 :    14.296924339689760
 Root     37 :    14.382510023283910
 Root     38 :    14.631300457839180
 Root     39 :    14.760015087623670
 Root     40 :    14.772081127506730
 Root     41 :    14.815188306385690
 Root     42 :    14.833345310834850
 Root     43 :    14.860833613607220
 Root     44 :    15.009357252663810
 Root     45 :    15.309077834279440
 Root     46 :    15.414572540631160
 Root     47 :    15.509347332428760
 Root     48 :    15.542342398169960
 Root     49 :    15.554030136727220
 Root     50 :    15.677611602527300
 Root     51 :    15.774880612665590
 Root     52 :    15.893165598340750
 Root     53 :    15.949904803048430
 Root     54 :    15.968339581462480
 Root     55 :    16.176649554754480
 Root     56 :    16.196092747561810
 Root     57 :    16.243097605446740
 Root     58 :    16.453182641330720
 Root     59 :    16.510062138530060
 Root     60 :    16.529279421570160
 Root     61 :    16.591358669466730
 Root     62 :    16.686224341845430
 Root     63 :    16.811863816351620
 Root     64 :    16.934849307716570
 Root     65 :    16.975684194297100
 Root     66 :    16.995095771325340
 Root     67 :    17.115410665480890
 Root     68 :    17.170303937733100
 Root     69 :    17.340632613745750
 Root     70 :    17.341901609037360
 Root     71 :    17.359598176532750
 Root     72 :    17.429613690820330
 Root     73 :    17.512686208403470
 Root     74 :    17.656132280452750
 Root     75 :    17.713393723462340
 Root     76 :    17.727614386738370
 Root     77 :    17.837830150617560
 Root     78 :    17.966065056506780
 Root     79 :    18.038170797709950
 Root     80 :    18.069039514881060
 Root     81 :    18.105506686273340
 Root     82 :    18.218458562469240
 Root     83 :    18.245700385208990
 Root     84 :    18.351770666661530
 Root     85 :    18.364820304265280
 Root     86 :    18.425062901636950
 Root     87 :    18.518558678741610
 Root     88 :    18.627304140989750
 Root     89 :    18.789443279680420
 Root     90 :    18.884880004928220
 Root     91 :    18.998620104714280
 Root     92 :    19.043912999474440
 Root     93 :    19.268941711378920
 Root     94 :    19.316416389655590
 Root     95 :    19.441474441031460
 Root     96 :    19.538137364485120
 Root     97 :    19.544927075590120
 Root     98 :    19.576372086993000
 Root     99 :    19.633648833969460
 Root    100 :    19.990612008619440
 Root    101 :    20.014056794715020
 Root    102 :    20.053562793036460
 Root    103 :    20.232335816706080
 Root    104 :    20.317454273823400
 Root    105 :    20.445583316663150
 Root    106 :    20.479620842313820
 Root    107 :    20.483490802503140
 Root    108 :    20.546877094209480
 Root    109 :    20.602636503354840
 Root    110 :    20.650197498950880
 Root    111 :    20.770397566102290
 Root    112 :    20.802017704615100
 Root    113 :    20.934955068417790
 Root    114 :    21.064491399113910
 Root    115 :    21.188526389490930
 Root    116 :    21.194578847998160
 Root    117 :    21.349627259263570
 Root    118 :    21.443153141306980
 Root    119 :    21.456180320424330
 Root    120 :    21.466288169374270
 Root    121 :    21.601323135531850
 Root    122 :    21.621125331340550
 Root    123 :    21.821751979973040
 Root    124 :    21.851930228289180
 Root    125 :    21.852895779183900
 Root    126 :    21.911930992863960
 Root    127 :    22.065468525258480
 Root    128 :    22.145818789334290
 Root    129 :    22.149927942953540
 Root    130 :    22.187137968966130
 Root    131 :    22.296299056769680
 Root    132 :    22.470795592170170
 Root    133 :    22.510287929339750
 Root    134 :    22.584916002336180
 Root    135 :    22.627263582425350
 Root    136 :    22.739576322511790
 Root    137 :    22.814295191159780
 Root    138 :    22.948714094430300
 Root    139 :    22.993310911407090
 Root    140 :    23.087445711165410
 Root    141 :    23.149621492215360
 Root    142 :    23.210754424291230
 Root    143 :    23.357469321248520
 Root    144 :    23.359760416287590
 Root    145 :    23.469990307662770
 Root    146 :    23.525993136292840
 Root    147 :    23.562448837290740
 Root    148 :    23.602139527529760
 Root    149 :    23.834831759050130
 Root    150 :    23.839724872132050
 Root    151 :    23.849855929614860
 Root    152 :    23.911404590952060
 Root    153 :    24.023689201905130
 Root    154 :    24.203054115240220
 Root    155 :    24.334270554104980
 Root    156 :    24.403042171863090
 Root    157 :    24.494615713312970
 Root    158 :    24.643073256273280
 Root    159 :    24.726075275664660
 Root    160 :    24.739383341114450
 Root    161 :    24.788449544664700
 Root    162 :    24.905050482187430
 Root    163 :    24.997247539046180
 Root    164 :    25.117172593265100
 Root    165 :    25.145223278818030
 Root    166 :    25.234335376165360
 Root    167 :    25.426242201073180
 Root    168 :    25.551621176485180
 Root    169 :    25.599471112418480
 Root    170 :    25.664258152479030
 Root    171 :    25.728176239834130
 Root    172 :    25.762784588730370
 Root    173 :    25.843086616088500
 Root    174 :    25.878477127095020
 Root    175 :    25.974895583797150
 Root    176 :    26.098318955661920
 Root    177 :    26.109914868779480
 Root    178 :    26.295463505362910
 Root    179 :    26.366402909379090
 Root    180 :    26.426744300300100
 Root    181 :    26.470020052667710
 Root    182 :    26.518144501540940
 Root    183 :    26.577103114730400
 Root    184 :    26.682118613599730
 Root    185 :    26.822933714038430
 Root    186 :    26.855688623785070
 Root    187 :    26.965010221569370
 Root    188 :    27.012458232821970
 Root    189 :    27.063925848272100
 Root    190 :    27.119059753707710
 Root    191 :    27.185336070839450
 Root    192 :    27.420604544433900
 Root    193 :    27.482164526565670
 Root    194 :    27.500783335935300
 Root    195 :    27.521072058353590
 Root    196 :    27.674601118860480
 Root    197 :    27.706207913566610
 Root    198 :    27.754029387100780
 Root    199 :    27.795846873555800
 Root    200 :    27.852121584313830
 Root    201 :    28.010535614948160
 Root    202 :    28.093364753679840
 Root    203 :    28.162023413581630
 Root    204 :    28.193321149317900
 Root    205 :    28.382244409541690
 Root    206 :    28.421863355386340
 Root    207 :    28.618312399140160
 Root    208 :    28.640796732209170
 Root    209 :    28.780094116572310
 Root    210 :    28.941293055580050
 Root    211 :    29.047996947696980
 Root    212 :    29.138624669351800
 Root    213 :    29.283852199625000
 Root    214 :    29.363518409372230
 Root    215 :    29.512414974621340
 Root    216 :    29.602881610964270
 Root    217 :    29.623473465413480
 Root    218 :    29.648380934816380
 Root    219 :    29.761266364730060
 Root    220 :    29.809271905306190
 Root    221 :    29.842692290713130
 Root    222 :    29.879454066648920
 Root    223 :    29.914024562476230
 Root    224 :    29.923781636673240
 Root    225 :    30.281340478414820
 Root    226 :    30.305172465910730
 Root    227 :    30.544154076503240
 Root    228 :    30.551785293075070
 Root    229 :    30.846966567182340
 Root    230 :    30.851192349255000
 Root    231 :    30.942778226819140
 Root    232 :    30.952844568449030
 Root    233 :    30.984485515610820
 Root    234 :    31.260845881857990
 Root    235 :    31.291852777603710
 Root    236 :    31.388344980683310
 Root    237 :    31.402658592701480
 Root    238 :    31.428234907219560
 Root    239 :    31.552375310017790
 Root    240 :    31.593463229529390
 Root    241 :    31.675189622723700
 Root    242 :    31.727614091738150
 Root    243 :    31.825631426687690
 Root    244 :    31.956332918215170
 Root    245 :    32.047167411597900
 Root    246 :    32.258563014039150
 Root    247 :    32.268707523606860
 Root    248 :    32.278288153157100
 Root    249 :    32.331839561884980
 Root    250 :    32.384856468929240
 Root    251 :    32.424886032397690
 Root    252 :    32.518843990116510
 Root    253 :    32.611001888595560
 Root    254 :    32.685998964410810
 Root    255 :    32.709840878004140
 Root    256 :    32.845296512231100
 Root    257 :    32.879942746429750
 Root    258 :    32.994155923375690
 Root    259 :    33.263308506372390
 Root    260 :    33.310950444344800
 Root    261 :    33.541662046773850
 Root    262 :    33.591737327763430
 Root    263 :    33.688647691423970
 Root    264 :    33.886435554978490
 Root    265 :    33.990073910032380
 Root    266 :    34.116756149708000
 Root    267 :    34.312875686907300
 Root    268 :    34.340322396472960
 Root    269 :    34.359385293310210
 Root    270 :    34.721170776076710
 Root    271 :    34.854412092679600
 Root    272 :    35.057554095118090
 Root    273 :    35.104566010173230
 Root    274 :    35.173801551338200
 Root    275 :    35.295067571226620
 Root    276 :    35.361094312034390
 Root    277 :    35.572296398013010
 Root    278 :    35.790520370891000
 Root    279 :    35.965416531845250
 Root    280 :    36.007204148802690
 Root    281 :    36.066073485249730
 Root    282 :    36.103967005214770
 Root    283 :    36.378677092847040
 Root    284 :    36.396672200401700
 Root    285 :    36.491302463319760
 Root    286 :    36.554565750408290
 Root    287 :    36.594909763177030
 Root    288 :    36.730797320818910
 Root    289 :    36.774110705457020
 Root    290 :    37.143200971510390
 Root    291 :    37.154898611517010
 Root    292 :    37.237698954615430
 Root    293 :    37.407564478828300
 Root    294 :    37.456117857023090
 Root    295 :    37.798495623944770
 Root    296 :    37.872673394343800
 Root    297 :    37.881913328948060
 Root    298 :    38.064096267589560
 Root    299 :    38.077425996037490
 Root    300 :    38.238753763520460
 Root    301 :    38.343929094114370
 Root    302 :    38.445348399656260
 Root    303 :    38.718243152362190
 Root    304 :    38.802008399688290
 Root    305 :    38.997452487502120
 Root    306 :    39.063400493458870
 Root    307 :    39.258350775866080
 Root    308 :    39.515767839233140
 Root    309 :    39.800721106181640
 Root    310 :    39.868788792276840
 Root    311 :    40.054763666258990
 Root    312 :    40.339271810827130
 Root    313 :    40.351198080012420
 Root    314 :    40.437691985424730
 Root    315 :    40.618775144985200
 Root    316 :    40.650915209195960
 Root    317 :    40.692221529177440
 Root    318 :    40.804626290226710
 Root    319 :    41.305069126045690
 Root    320 :    41.808687593492460
 Root    321 :    41.900707852252020
 Root    322 :    41.985300174765920
 Root    323 :    42.072049911557070
 Root    324 :    42.351557141962290
 Root    325 :    42.451642894352350
 Root    326 :    42.505499059100920
 Root    327 :    42.507175930131100
 Root    328 :    42.657281199868710
 Root    329 :    42.836721046934480
 Root    330 :    43.180026065265560
 Root    331 :    43.374860180022940
 Root    332 :    43.417527677341240
 Root    333 :    43.562114567972100
 Root    334 :    43.734413280584440
 Root    335 :    43.946917310636770
 Root    336 :    44.159225878622140
 Root    337 :    44.404096143045690
 Root    338 :    44.449556533570540
 Root    339 :    44.456522884578130
 Root    340 :    44.772027993285520
 Root    341 :    44.800503442581460
 Root    342 :    44.936554296442730
 Root    343 :    45.031039772935580
 Root    344 :    45.224390296957260
 Root    345 :    45.392803785330980
 Root    346 :    45.698725785453300
 Root    347 :    45.922524647354830
 Root    348 :    45.923433159203880
 Root    349 :    46.258735040434760
 Root    350 :    46.353492696574190
 Root    351 :    46.402979514915430
 Root    352 :    46.506721229246620
 Root    353 :    46.609229891881120
 Root    354 :    46.733361841530580
 Root    355 :    46.938406162160280
 Root    356 :    47.030837792023060
 Root    357 :    47.038888453669660
 Root    358 :    47.180651256747770
 Root    359 :    47.342795150453810
 Root    360 :    47.485203207058850
 Root    361 :    47.952458278047030
 Root    362 :    48.152480968511140
 Root    363 :    48.187162730010390
 Root    364 :    48.357026430952460
 Root    365 :    48.418817970006630
 Root    366 :    48.431729741400010
 Root    367 :    48.519107388440880
 Root    368 :    49.264387354610950
 Root    369 :    49.285651180605530
 Root    370 :    49.329914346364150
 Root    371 :    49.861233366541090
 Root    372 :    49.873813925225480
 Root    373 :    50.033574159955830
 Root    374 :    50.106415928996080
 Root    375 :    50.148714512049180
 Root    376 :    50.435137129326670
 Root    377 :    50.607617482458100
 Root    378 :    50.950414259923560
 Root    379 :    51.232511659711820
 Root    380 :    51.742103792744700
 Root    381 :    51.926819715635420
 Root    382 :    51.981200533182910
 Root    383 :    52.016215536310770
 Root    384 :    52.163729551018460
 Root    385 :    52.174441038598150
 Root    386 :    52.601398390299940
 Root    387 :    52.864900251187980
 Root    388 :    52.990090443215290
 Root    389 :    53.201142821519510
 Root    390 :    53.453486893381770
 Root    391 :    53.676000561154930
 Root    392 :    53.953427367904050
 Root    393 :    54.107777422300670
 Root    394 :    54.234983006237800
 Root    395 :    54.484315630900330
 Root    396 :    54.766199250094960
 Root    397 :    54.916909590011770
 Root    398 :    55.033489236515270
 Root    399 :    55.253549238169650
 Root    400 :    55.331284404446290
 Root    401 :    55.464443957779970
 Root    402 :    55.595049323705330
 Root    403 :    55.639044680278530
 Root    404 :    55.898784326698080
 Root    405 :    55.981073199255230
 Root    406 :    56.017163027509790
 Root    407 :    56.174016336569390
 Root    408 :    56.309903956485770
 Root    409 :    56.346470105625330
 Root    410 :    56.666190692074340
 Root    411 :    56.724078034672910
 Root    412 :    56.885932655887730
 Root    413 :    57.113367366258570
 Root    414 :    57.155174891029400
 Root    415 :    57.538842509624260
 Root    416 :    57.660577074009010
 Root    417 :    57.750312368418060
 Root    418 :    57.872020200171700
 Root    419 :    57.955088004251420
 Root    420 :    58.175731883402410
 Root    421 :    58.307770586657640
 Root    422 :    58.597523194172480
 Root    423 :    58.928758403443000
 Root    424 :    59.013997418746090
 Root    425 :    59.127720045686040
 Root    426 :    59.465570102473840
 Root    427 :    59.472245866038000
 Root    428 :    59.719893840879300
 Root    429 :    59.831097812795700
 Root    430 :    59.904080043120280
 Root    431 :    60.004081967483410
 Root    432 :    60.044456644712600
 Root    433 :    60.335133441517260
 Root    434 :    60.578843214167280
 Root    435 :    60.806011524414910
 Root    436 :    60.961010945791500
 Root    437 :    61.042290945168340
 Root    438 :    61.312997026615560
 Root    439 :    61.334465992616210
 Root    440 :    61.370797293425970
 Root    441 :    61.553197067570140
 Root    442 :    61.659578775403030
 Root    443 :    61.908418031345160
 Root    444 :    62.243478389309240
 Root    445 :    62.369289142138530
 Root    446 :    62.480991924185830
 Root    447 :    62.848279549539460
 Root    448 :    63.003422857823990
 Root    449 :    63.102572348197700
 Root    450 :    63.203740673167780
 Root    451 :    63.237607227210920
 Root    452 :    63.371214380060740
 Root    453 :    63.523903349422560
 Root    454 :    63.915806172904190
 Root    455 :    64.011395423936020
 Root    456 :    64.149299629116240
 Root    457 :    64.403060116621870
 Root    458 :    64.777130931088010
 Root    459 :    64.781620174557060
 Root    460 :    64.994348580298520
 Root    461 :    65.129139513586910
 Root    462 :    65.385927541756200
 Root    463 :    65.504175147820010
 Root    464 :    65.557741736034430
 Root    465 :    65.711219120621140
 Root    466 :    65.902271498423360
 Root    467 :    66.372566195415980
 Root    468 :    66.729306388576020
 Root    469 :    66.859285158133530
 Root    470 :    66.896594114998540
 Root    471 :    67.299335663995650
 Root    472 :    67.403128521691950
 Root    473 :    68.049316951317220
 Root    474 :    68.191558481512300
 Root    475 :    68.254459736316360
 Root    476 :    68.405363632668230
 Root    477 :    68.514946711561070
 Root    478 :    68.942822319791150
 Root    479 :    69.013780970473850
 Root    480 :    69.073654420798080
 Root    481 :    69.208734278784380
 Root    482 :    69.347967081540250
 Root    483 :    69.368964566664970
 Root    484 :    69.580583151159530
 Root    485 :    70.028146725544800
 Root    486 :    70.149096463979530
 Root    487 :    70.485558248872550
 Root    488 :    70.730367969698240
 Root    489 :    71.030313390585560
 Root    490 :    71.180425053774240
 Root    491 :    71.275712318478810
 Root    492 :    72.520578965791050
 Root    493 :    72.991537651268290
 Root    494 :    73.121268847453510
 Root    495 :    73.418013220098540
 Root    496 :    73.641063828804530
 Root    497 :    74.261785116887680
 Root    498 :    74.350520032815780
 Root    499 :    74.542040540999510
 Root    500 :    74.853930531418730
 Root    501 :    75.099602476033520
 Root    502 :    75.245205586464080
 Root    503 :    75.718315769303730
 Root    504 :    75.760113817193130
 Root    505 :    76.339682043142630
 Root    506 :    76.682401036837110
 Root    507 :    77.652553430142110
 Root    508 :    77.724344902139240
 Root    509 :    78.114921361053260
 Root    510 :    78.452801775629200
 Root    511 :    78.639528198526210
 Root    512 :    78.885661891505110
 Root    513 :    79.132873509665230
 Root    514 :    79.161318753532070
 Root    515 :    79.769437226839530
 Root    516 :    80.049282316559310
 Root    517 :    80.532104561408960
 Root    518 :    80.727630998610370
 Root    519 :    80.955151839787360
 Root    520 :    81.149008920947580
 Root    521 :    81.201607371041650
 Root    522 :    83.047148969936640
 Root    523 :    83.076715358523430
 Root    524 :    83.200199174653750
 Root    525 :    83.284463486654600
 Root    526 :    83.853774161988600
 Root    527 :    84.096583978457700
 Root    528 :    84.437884204944230
 Root    529 :    84.674945568952550
 Root    530 :    85.044301826993420
 Root    531 :    85.161541944045030
 Root    532 :    85.207262880276790
 Root    533 :    85.590495867130940
 Root    534 :    86.490081031514310
 Root    535 :    86.553401866443980
 Root    536 :    86.749758114229150
 Root    537 :    86.850717376803770
 Root    538 :    86.963571138858940
 Root    539 :    87.280020707647080
 Root    540 :    87.430930386379860
 Root    541 :    87.484129394773550
 Root    542 :    87.737789382877040
 Root    543 :    88.373940387223840
 Root    544 :    88.835525544671580
 Root    545 :    88.875837794854230
 Root    546 :    89.300920760729260
 Root    547 :    89.474969472457230
 Root    548 :    90.293459517930060
 Root    549 :    90.790161267984200
 Root    550 :    90.888441380572900
 Root    551 :    91.314460387084720
 Root    552 :    91.514570742626110
 Root    553 :    91.820798942980390
 Root    554 :    91.967488528716400
 Root    555 :    92.154883230969730
 Root    556 :    92.159787772828840
 Root    557 :    92.658455226225840
 Root    558 :    92.708810886211340
 Root    559 :    92.768899891522250
 Root    560 :    93.178592175202620
 Root    561 :    93.398790056865640
 Root    562 :    93.987388659173260
 Root    563 :    94.380191139807250
 Root    564 :    94.779089927629500
 Root    565 :    95.481352335760320
 Root    566 :    95.821177961190170
 Root    567 :    96.114363427060480
 Root    568 :    96.184716355278550
 Root    569 :    97.041431148797540
 Root    570 :    97.122291390146510
 Root    571 :    97.639482964857070
 Root    572 :    97.689306389386360
 Root    573 :    97.819952668173600
 Root    574 :    98.337843923996080
 Root    575 :    98.518764912827280
 Root    576 :    99.014648564152030
 Root    577 :    99.141344936530980
 Root    578 :    99.368289477382770
 Root    579 :    99.527616493506680
 Root    580 :   100.417390877516500
 Root    581 :   100.659965462928900
 Root    582 :   101.019128070410500
 Root    583 :   101.733374020341700
 Root    584 :   102.367581912696600
 Root    585 :   102.986622967372500
 Root    586 :   103.069067320083100
 Root    587 :   103.643539137908100
 Root    588 :   103.902632594612200
 Root    589 :   104.154814877921000
 Root    590 :   104.709041831662600
 Root    591 :   105.417076600879900
 Root    592 :   105.590547731182600
 Root    593 :   105.764679605572200
 Root    594 :   106.931131345775600
 Root    595 :   107.216669023923300
 Root    596 :   107.320621303193900
 Root    597 :   107.799803297337800
 Root    598 :   108.011189639458100
 Root    599 :   108.527776348254500
 Root    600 :   109.417709044561500
 Root    601 :   109.797924754351300
 Root    602 :   110.130892888618900
 Root    603 :   110.288414928329100
 Root    604 :   110.493357535717600
 Root    605 :   110.665771134087100
 Root    606 :   112.301282221174800
 Root    607 :   112.700994054124800
 Root    608 :   112.879214276735000
 Root    609 :   113.519998602531100
 Root    610 :   113.823292235058200
 Root    611 :   114.445622680340700
 Root    612 :   114.725883160357700
 Root    613 :   115.133244586346400
 Root    614 :   115.164146301288600
 Root    615 :   115.479947008714400
 Root    616 :   115.647641566006100
 Root    617 :   117.224956364641300
 Root    618 :   117.380228940148000
 Root    619 :   118.086318526837000
 Root    620 :   118.885430605466100
 Root    621 :   119.241759006801000
 Root    622 :   119.943789741551200
 Root    623 :   120.196198418138000
 Root    624 :   122.610000987204500
 Root    625 :   124.471951625454300
 Root    626 :   126.854355412285400
 Root    627 :   128.738296048529800
 Root    628 :   132.353996390069300
 Root    629 :   132.882432679190000
 Root    630 :   135.920528030671300
 Convergence achieved for final wavefunctions.
 ***********************************************************************
 Excited states from <AA,BB:AA,BB> singles matrix:
 ***********************************************************************
 
 1PDM for each excited state written to RWF  633
 Ground to excited state transition densities written to RWF  633
 Ground to excited state transition electric dipole moments (Au):
       state          X           Y           Z        Dip. S.      Osc.
         1         0.0000     -0.0000      0.0804      0.0065      0.0009
         2         0.2492     -0.2547     -0.0000      0.1270      0.0257
         3         0.0000     -0.0000     -0.1041      0.0108      0.0024
         4        -0.8966     -0.1965     -0.0000      0.8424      0.1847
         5         0.2165      0.5795     -0.0000      0.3827      0.0855
         6         0.0000     -0.0000     -0.0140      0.0002      0.0000
         7         0.0000     -0.0000      0.1276      0.0163      0.0040
         8        -0.0000     -0.0000      0.1949      0.0380      0.0095
         9        -0.5206      0.2956     -0.0000      0.3584      0.0898
        10         0.0000      0.0000     -0.3669      0.1346      0.0365
        11        -0.0589      0.3574     -0.0000      0.1312      0.0356
        12         0.1895      0.2908      0.0000      0.1205      0.0331
        13        -0.2967      0.1189      0.0000      0.1022      0.0282
        14         0.2093     -0.0743     -0.0000      0.0493      0.0137
        15         0.1393     -0.0147     -0.0000      0.0196      0.0055
        16        -0.0000     -0.0000     -0.0383      0.0015      0.0004
        17         0.0000     -0.0000     -0.1876      0.0352      0.0101
        18        -0.0000      0.0000      0.1873      0.0351      0.0103
        19         0.1417     -0.7187      0.0000      0.5366      0.1586
        20        -0.0000      0.0000     -0.0671      0.0045      0.0013
        21        -0.2423      0.0470      0.0000      0.0609      0.0184
        22        -0.0000      0.0000     -0.1316      0.0173      0.0053
        23         0.0000     -0.0000      0.1017      0.0103      0.0032
        24         0.4122      0.1649     -0.0000      0.1971      0.0611
        25        -0.0000     -0.0000     -0.3283      0.1078      0.0335
        26         0.0491     -0.0033      0.0000      0.0024      0.0008
        27         0.0000     -0.0000      0.0674      0.0045      0.0015
        28        -0.0000      0.0000     -0.0553      0.0031      0.0010
        29         0.3270      0.0345      0.0000      0.1081      0.0353
        30         0.0000     -0.0000     -0.2410      0.0581      0.0191
        31         0.1472     -0.2740      0.0000      0.0967      0.0322
        32        -0.0000      0.0000     -0.1590      0.0253      0.0084
        33         0.0472      0.0188      0.0000      0.0026      0.0009
        34        -0.5517     -0.0818      0.0000      0.3110      0.1073
        35         0.0649     -0.0278     -0.0000      0.0050      0.0017
        36         0.0000     -0.0000      0.2736      0.0748      0.0262
        37         0.1619     -0.4379     -0.0000      0.2179      0.0768
        38         0.1470      0.1794     -0.0000      0.0538      0.0193
        39         0.4820     -0.1710      0.0000      0.2616      0.0946
        40        -0.0458     -0.2272     -0.0000      0.0537      0.0194
        41         0.0000     -0.0000     -0.2199      0.0483      0.0175
        42        -0.1291      0.4248     -0.0000      0.1971      0.0716
        43        -0.0000      0.0000      0.2082      0.0433      0.0158
        44         0.1751      0.2232      0.0000      0.0805      0.0296
        45        -0.0000      0.0000      0.3606      0.1300      0.0488
        46        -0.0629     -0.3857      0.0000      0.1527      0.0577
        47        -0.0000      0.0000      0.1552      0.0241      0.0091
        48         0.5940     -0.2348      0.0000      0.4080      0.1554
        49        -0.0000      0.0000      0.2256      0.0509      0.0194
        50        -0.1562     -0.1747      0.0000      0.0549      0.0211
        51        -0.0000      0.0000      0.3214      0.1033      0.0399
        52        -0.0000     -0.0000     -0.0287      0.0008      0.0003
        53         0.1572     -0.0945     -0.0000      0.0336      0.0131
        54        -0.0000      0.0000     -0.0122      0.0001      0.0001
        55         0.0000      0.0000     -0.0621      0.0039      0.0015
        56        -0.0087     -0.0731     -0.0000      0.0054      0.0021
        57         0.0000      0.0000     -0.3732      0.1393      0.0554
        58        -0.1108      0.2069     -0.0000      0.0551      0.0222
        59        -0.2580     -0.1634     -0.0000      0.0933      0.0377
        60         0.0000      0.0000     -0.1644      0.0270      0.0109
        61         0.3228     -0.1281      0.0000      0.1206      0.0490
        62        -0.0397      0.2236      0.0000      0.0516      0.0211
        63        -0.1072      0.1672      0.0000      0.0395      0.0163
        64        -0.1698     -0.4163     -0.0000      0.2022      0.0839
        65        -0.0000     -0.0000      0.1934      0.0374      0.0155
        66         0.0628      0.1298     -0.0000      0.0208      0.0087
        67         0.0000      0.0000      0.2398      0.0575      0.0241
        68         0.2284     -0.1215      0.0000      0.0669      0.0282
        69         0.1093      0.0455      0.0000      0.0140      0.0060
        70         0.0000      0.0000     -0.2285      0.0522      0.0222
        71         0.1851      0.2359     -0.0000      0.0899      0.0382
        72         0.0000      0.0000      0.0627      0.0039      0.0017
        73        -0.0000     -0.0000     -0.6099      0.3720      0.1596
        74         0.1406      0.0664      0.0000      0.0242      0.0105
        75        -0.0000     -0.0000      0.4417      0.1951      0.0847
        76        -0.0742     -0.0081     -0.0000      0.0056      0.0024
        77         0.0736     -0.4601      0.0000      0.2171      0.0949
        78         0.1125     -0.0134      0.0000      0.0128      0.0057
        79         0.0000      0.0000     -0.0078      0.0001      0.0000
        80        -0.1316      0.0378      0.0000      0.0187      0.0083
        81        -0.0000     -0.0000      0.1717      0.0295      0.0131
        82         0.2589      0.3192      0.0000      0.1689      0.0754
        83        -0.0000     -0.0000      0.0455      0.0021      0.0009
        84        -0.2479      0.3627     -0.0000      0.1930      0.0868
        85         0.0000      0.0000     -0.0685      0.0047      0.0021
        86         0.2585      0.5177      0.0000      0.3348      0.1512
        87         0.0000      0.0000     -0.5681      0.3227      0.1464
        88         0.1024     -0.1845      0.0000      0.0445      0.0203
        89        -0.2186     -0.2175     -0.0000      0.0951      0.0438
        90         0.0000      0.0000     -0.1186      0.0141      0.0065
        91        -0.0338     -0.1748     -0.0000      0.0317      0.0148
        92         0.0000      0.0000      0.1208      0.0146      0.0068
        93        -0.0000     -0.0000     -0.1440      0.0207      0.0098
        94         0.4107      0.0932     -0.0000      0.1773      0.0839
        95         0.0403     -0.0244      0.0000      0.0022      0.0011
        96        -0.2870      0.0496     -0.0000      0.0848      0.0406
        97        -0.0000     -0.0000      0.2637      0.0695      0.0333
        98         0.0000     -0.0000     -0.2511      0.0630      0.0302
        99         0.0000      0.0000     -0.1051      0.0111      0.0053
       100        -0.2207     -0.0777     -0.0000      0.0547      0.0268
       101        -0.3523     -0.5285     -0.0000      0.4035      0.1978
       102         0.0891     -0.0562     -0.0000      0.0111      0.0055
       103        -0.0092      0.0565      0.0000      0.0033      0.0016
       104         0.0722      0.0634      0.0000      0.0092      0.0046
       105         0.3666      0.1894      0.0000      0.1703      0.0853
       106        -0.0000     -0.0000      0.1149      0.0132      0.0066
       107        -0.0878      0.0390      0.0000      0.0092      0.0046
       108        -0.0000     -0.0000      0.0355      0.0013      0.0006
       109        -0.0706     -0.1154     -0.0000      0.0183      0.0092
       110        -0.2335     -0.0531     -0.0000      0.0573      0.0290
       111         0.3573     -0.2438      0.0000      0.1871      0.0952
       112        -0.0000     -0.0000     -0.0567      0.0032      0.0016
       113         0.3326      0.4764      0.0000      0.3376      0.1731
       114        -0.0000      0.0000     -0.1184      0.0140      0.0072
       115        -0.0128      0.2496      0.0000      0.0625      0.0324
       116         0.0000      0.0000      0.1705      0.0291      0.0151
       117        -0.2552     -0.0782      0.0000      0.0712      0.0373
       118         0.0000     -0.0000     -0.1218      0.0148      0.0078
       119         0.1795     -0.3233      0.0000      0.1368      0.0719
       120        -0.0000      0.0000      0.0893      0.0080      0.0042
       121         0.0000     -0.0000     -0.2392      0.0572      0.0303
       122        -0.0382      0.1054      0.0000      0.0126      0.0067
       123        -0.4753     -0.1198      0.0000      0.2402      0.1284
       124        -0.0000      0.0000     -0.0308      0.0010      0.0005
       125         0.0021     -0.0520     -0.0000      0.0027      0.0015
       126         0.0000     -0.0000     -0.1229      0.0151      0.0081
       127        -0.0380      0.2746     -0.0000      0.0768      0.0415
       128         0.0000      0.0000     -0.1032      0.0107      0.0058
[...]
     13   0.000000D+00  0.000000D+00 -0.744001D-01  0.000000D+00 -0.811443D-01
     14   0.000000D+00  0.000000D+00  0.278181D-01  0.000000D+00 -0.504945D+00
     15   0.461409D+00 -0.301438D+00  0.000000D+00 -0.899597D+00  0.000000D+00
     16   0.338675D+00 -0.132854D+00  0.000000D+00 -0.418993D+00  0.000000D+00
               561           562           563           564           565 
      1  -0.186125D+03 -0.186103D+03 -0.186089D+03 -0.186074D+03 -0.186048D+03
      2   0.000000D+00  0.000000D+00  0.000000D+00  0.000000D+00  0.204345D-01
      3   0.000000D+00  0.000000D+00  0.000000D+00  0.000000D+00  0.409796D-01
      4   0.145576D+00  0.673423D-01  0.154107D+00 -0.494933D-01  0.000000D+00
      5   0.000000D+00  0.000000D+00  0.000000D+00  0.000000D+00 -0.872785D-01
      6   0.000000D+00  0.000000D+00  0.000000D+00  0.000000D+00 -0.113069D+00
      7  -0.425264D+00 -0.208946D+00 -0.484575D+00  0.135599D+00  0.000000D+00
      8  -0.102884D+00 -0.351615D+00  0.162520D+00 -0.364659D-03  0.000000D+00
      9   0.104429D+01  0.162039D+01  0.573303D-01  0.144522D+00  0.000000D+00
     10   0.000000D+00  0.000000D+00  0.000000D+00  0.000000D+00  0.154582D-01
     11   0.000000D+00  0.000000D+00  0.000000D+00  0.000000D+00 -0.136019D+01
     12   0.000000D+00  0.000000D+00  0.000000D+00  0.000000D+00 -0.899005D-01
     13   0.000000D+00  0.000000D+00  0.000000D+00  0.000000D+00  0.156665D+00
     14   0.000000D+00  0.000000D+00  0.000000D+00  0.000000D+00 -0.162285D+00
     15  -0.116762D+01 -0.204886D+01 -0.213497D-01 -0.168027D+00  0.000000D+00
     16  -0.314858D-01 -0.158054D+00  0.150847D+00 -0.605889D-01  0.000000D+00
               566           567           568           569           570 
      1  -0.186036D+03 -0.186025D+03 -0.186023D+03 -0.185991D+03 -0.185988D+03
      2   0.780507D-01 -0.128852D+00  0.000000D+00  0.000000D+00  0.664845D-01
      3   0.230119D-01  0.171144D+00  0.000000D+00  0.000000D+00 -0.104181D+00
      4   0.000000D+00  0.000000D+00  0.776211D-01  0.556506D-01  0.000000D+00
      5  -0.285196D+00  0.422805D+00  0.000000D+00  0.000000D+00 -0.217171D+00
      6  -0.361636D-01 -0.534673D+00  0.000000D+00  0.000000D+00  0.328508D+00
      7   0.000000D+00  0.000000D+00 -0.243290D+00 -0.162240D+00  0.000000D+00
      8   0.000000D+00  0.000000D+00  0.584272D-01 -0.743512D-01  0.000000D+00
      9   0.000000D+00  0.000000D+00 -0.113733D+00  0.352730D+00  0.000000D+00
     10   0.342133D+00 -0.192018D+00  0.000000D+00  0.000000D+00  0.557591D-01
     11  -0.300526D+01 -0.160536D+01  0.000000D+00  0.000000D+00  0.599062D+00
     12  -0.317344D-01  0.333664D+00  0.000000D+00  0.000000D+00 -0.333638D+00
     13   0.104359D+00  0.942842D-01  0.000000D+00  0.000000D+00  0.105619D+00
     14  -0.422737D+00 -0.749084D+00  0.000000D+00  0.000000D+00  0.501997D+00
     15   0.000000D+00  0.000000D+00  0.183709D+00 -0.456071D+00  0.000000D+00
     16   0.000000D+00  0.000000D+00 -0.157534D-02 -0.318158D-01  0.000000D+00
               571           572           573           574           575 
      1  -0.185969D+03 -0.185967D+03 -0.185963D+03 -0.185943D+03 -0.185937D+03
      2   0.429204D-01  0.000000D+00  0.183997D+00  0.000000D+00  0.215200D+00
      3  -0.546782D-01  0.000000D+00 -0.484258D-02  0.000000D+00  0.648611D-01
      4   0.000000D+00  0.206803D-03  0.000000D+00 -0.235056D+00  0.000000D+00
      5  -0.160327D+00  0.000000D+00 -0.621871D+00  0.000000D+00 -0.705372D+00
      6   0.183668D+00  0.000000D+00  0.229450D-01  0.000000D+00 -0.216956D+00
      7   0.000000D+00 -0.702515D-02  0.000000D+00  0.742028D+00  0.000000D+00
      8   0.000000D+00  0.110001D+00  0.000000D+00 -0.133455D-01  0.000000D+00
      9   0.000000D+00 -0.356612D+00  0.000000D+00 -0.112380D+01  0.000000D+00
     10   0.658394D-02  0.000000D+00  0.105779D+00  0.000000D+00 -0.140482D+01
     11  -0.435296D+00  0.000000D+00 -0.512384D+00  0.000000D+00  0.167331D+01
     12   0.396679D-02  0.000000D+00  0.600663D-01  0.000000D+00 -0.308812D+00
     13   0.248644D+00  0.000000D+00 -0.176942D-01  0.000000D+00 -0.772626D-01
     14   0.128139D+00  0.000000D+00  0.721142D+00  0.000000D+00 -0.112383D+01
     15   0.000000D+00  0.417555D+00  0.000000D+00  0.159826D+01  0.000000D+00
     16   0.000000D+00  0.175224D+00  0.000000D+00 -0.188786D+00  0.000000D+00
               576           577           578           579           580 
      1  -0.185919D+03 -0.185914D+03 -0.185906D+03 -0.185900D+03 -0.185867D+03
      2   0.563932D-01  0.000000D+00 -0.511470D-01 -0.134263D+00  0.000000D+00
      3  -0.121651D+00  0.000000D+00  0.136467D-01 -0.559246D-01  0.000000D+00
      4   0.000000D+00 -0.277024D+00  0.000000D+00  0.000000D+00 -0.963846D-01
      5  -0.198466D+00  0.000000D+00  0.165682D+00  0.458312D+00  0.000000D+00
      6   0.440998D+00  0.000000D+00 -0.408995D-01  0.206422D+00  0.000000D+00
      7   0.000000D+00  0.897513D+00  0.000000D+00  0.000000D+00  0.335805D+00
      8   0.000000D+00 -0.709916D+00  0.000000D+00  0.000000D+00  0.141156D+00
      9   0.000000D+00  0.191687D+01  0.000000D+00  0.000000D+00 -0.107397D+01
     10  -0.466681D+00  0.000000D+00 -0.627367D+00 -0.170234D+00  0.000000D+00
     11  -0.590067D+00  0.000000D+00  0.166650D+01 -0.640707D+00  0.000000D+00
     12  -0.752895D+00  0.000000D+00  0.390817D-01 -0.500868D+00  0.000000D+00
     13  -0.441641D-01  0.000000D+00 -0.122277D+00  0.165884D+00  0.000000D+00
     14  -0.478640D+00  0.000000D+00 -0.142042D+00 -0.562826D+00  0.000000D+00
     15   0.000000D+00 -0.227880D+01  0.000000D+00  0.000000D+00  0.140166D+01
     16   0.000000D+00 -0.588774D+00  0.000000D+00  0.000000D+00  0.495221D-01
               581           582           583           584           585 
      1  -0.185858D+03 -0.185845D+03 -0.185819D+03 -0.185795D+03 -0.185773D+03
      2  -0.215197D-01  0.000000D+00  0.000000D+00  0.259773D-01  0.000000D+00
      3  -0.960224D-01  0.000000D+00  0.000000D+00 -0.256748D-02  0.000000D+00
      4   0.000000D+00  0.321432D-01 -0.212814D+00  0.000000D+00 -0.558922D-03
      5   0.741625D-01  0.000000D+00  0.000000D+00 -0.106696D+00  0.000000D+00
      6   0.314208D+00  0.000000D+00  0.000000D+00 -0.178969D-01  0.000000D+00
      7   0.000000D+00 -0.109703D+00  0.687501D+00  0.000000D+00  0.100642D-02
      8   0.000000D+00  0.258365D-01 -0.598213D+00  0.000000D+00  0.820630D-01
      9   0.000000D+00  0.931835D-02  0.103794D+01  0.000000D+00 -0.255727D+00
     10   0.371003D+00  0.000000D+00  0.000000D+00  0.467193D+00  0.000000D+00
     11   0.368605D-01  0.000000D+00  0.000000D+00 -0.285727D+00  0.000000D+00
     12  -0.386344D-01  0.000000D+00  0.000000D+00  0.398362D+00  0.000000D+00
     13   0.382625D+00  0.000000D+00  0.000000D+00  0.709589D-01  0.000000D+00
     14   0.232814D+00  0.000000D+00  0.000000D+00  0.427000D+00  0.000000D+00
     15   0.000000D+00  0.594217D-01 -0.126908D+01  0.000000D+00  0.283920D+00
     16   0.000000D+00  0.225125D+00 -0.707162D+00  0.000000D+00  0.623453D+00
               586           587           588           589           590 
      1  -0.185770D+03 -0.185748D+03 -0.185739D+03 -0.185730D+03 -0.185709D+03
      2   0.187043D-01 -0.399304D-01  0.298560D-02  0.127251D+00  0.000000D+00
      3   0.103451D-01 -0.187552D+00 -0.107201D-01 -0.747196D-01  0.000000D+00
      4   0.000000D+00  0.000000D+00  0.000000D+00  0.000000D+00  0.156479D+00
      5  -0.736142D-01  0.111268D+00  0.928796D-02 -0.481965D+00  0.000000D+00
      6  -0.135970D-01  0.655186D+00  0.286803D-01  0.242554D+00  0.000000D+00
      7   0.000000D+00  0.000000D+00  0.000000D+00  0.000000D+00 -0.547233D+00
      8   0.000000D+00  0.000000D+00  0.000000D+00  0.000000D+00  0.171292D+00
      9   0.000000D+00  0.000000D+00  0.000000D+00  0.000000D+00  0.527910D-01
     10  -0.182887D+00  0.331478D+00 -0.113007D+00  0.795570D+00  0.000000D+00
     11  -0.919638D+00 -0.226435D+01  0.335664D+00  0.748882D+00  0.000000D+00
     12  -0.178420D+00 -0.334033D+00 -0.361681D-01  0.252997D+00  0.000000D+00
     13   0.122809D+00  0.971327D-01  0.416616D+00 -0.113096D-01  0.000000D+00
     14  -0.454666D+00 -0.213504D+00 -0.225256D+00  0.157117D+01  0.000000D+00
     15   0.000000D+00  0.000000D+00  0.000000D+00  0.000000D+00 -0.104496D+00
     16   0.000000D+00  0.000000D+00  0.000000D+00  0.000000D+00  0.126887D+00
               591           592           593           594           595 
      1  -0.185683D+03 -0.185677D+03 -0.185671D+03 -0.185628D+03 -0.185617D+03
      2  -0.302350D-02  0.000000D+00  0.000000D+00  0.668439D-02  0.000000D+00
      3  -0.706652D-01  0.000000D+00  0.000000D+00 -0.927701D-02  0.000000D+00
      4   0.000000D+00  0.176603D-01 -0.100545D+00  0.000000D+00 -0.386915D-01
      5   0.110462D-01  0.000000D+00  0.000000D+00 -0.392302D-01  0.000000D+00
      6   0.235919D+00  0.000000D+00  0.000000D+00  0.108098D-01  0.000000D+00
      7   0.000000D+00 -0.431327D-01  0.350315D+00  0.000000D+00  0.137947D+00
      8   0.000000D+00 -0.970885D-01 -0.334277D+00  0.000000D+00 -0.250725D-01
      9   0.000000D+00  0.109772D+00  0.594864D+00  0.000000D+00 -0.872683D-01
     10   0.197863D+00  0.000000D+00  0.000000D+00  0.106389D+00  0.000000D+00
     11  -0.534360D-01  0.000000D+00  0.000000D+00  0.925563D+00  0.000000D+00
     12   0.679169D+00  0.000000D+00  0.000000D+00  0.276534D+00  0.000000D+00
     13  -0.343156D+00  0.000000D+00  0.000000D+00 -0.192256D+00  0.000000D+00
     14   0.248956D+00  0.000000D+00  0.000000D+00  0.766179D+00  0.000000D+00
     15   0.000000D+00 -0.456567D+00 -0.333167D+00  0.000000D+00  0.236286D+00
     16   0.000000D+00 -0.355536D+00 -0.229861D+00  0.000000D+00 -0.379992D+00
               596           597           598           599           600 
      1  -0.185613D+03 -0.185596D+03 -0.185588D+03 -0.185569D+03 -0.185536D+03
      2  -0.325216D-01  0.152494D+00  0.000000D+00  0.000000D+00  0.000000D+00
      3   0.495544D-01  0.132048D+00  0.000000D+00  0.000000D+00  0.000000D+00
      4   0.000000D+00  0.000000D+00  0.395960D-01 -0.513294D-01 -0.100771D+00
      5   0.132293D+00 -0.600041D+00  0.000000D+00  0.000000D+00  0.000000D+00
      6  -0.165940D+00 -0.471894D+00  0.000000D+00  0.000000D+00  0.000000D+00
      7   0.000000D+00  0.000000D+00 -0.148203D+00  0.162958D+00  0.377961D+00
      8   0.000000D+00  0.000000D+00  0.369688D+00  0.581100D-01 -0.198624D-01
      9   0.000000D+00  0.000000D+00 -0.132879D+01 -0.210302D+00 -0.590134D+00
     10  -0.672683D+00 -0.769624D+00  0.000000D+00  0.000000D+00  0.000000D+00
     11  -0.155448D+00 -0.269632D+00  0.000000D+00  0.000000D+00  0.000000D+00
     12  -0.523266D+00  0.392368D-01  0.000000D+00  0.000000D+00  0.000000D+00
     13   0.816659D-02  0.126806D-01  0.000000D+00  0.000000D+00  0.000000D+00
     14  -0.106262D+01 -0.532014D+00  0.000000D+00  0.000000D+00  0.000000D+00
     15   0.000000D+00  0.000000D+00  0.151082D+01  0.662347D-01  0.699180D+00
     16   0.000000D+00  0.000000D+00  0.339945D+00  0.942378D-01 -0.626740D-01
               601           602           603           604           605 
      1  -0.185522D+03 -0.185510D+03 -0.185504D+03 -0.185497D+03 -0.185490D+03
      2   0.366084D-01  0.771518D-01  0.000000D+00  0.228165D-01  0.000000D+00
      3  -0.120172D-01  0.140715D-01  0.000000D+00  0.182480D-02  0.000000D+00
      4   0.000000D+00  0.000000D+00 -0.638863D-01  0.000000D+00 -0.151311D-01
      5  -0.142346D+00 -0.291541D+00  0.000000D+00 -0.924954D-01  0.000000D+00
      6   0.334542D-01 -0.307303D-01  0.000000D+00 -0.469716D-02  0.000000D+00
      7   0.000000D+00  0.000000D+00  0.220142D+00  0.000000D+00  0.551008D-01
      8   0.000000D+00  0.000000D+00  0.170898D-01  0.000000D+00 -0.877988D-01
      9   0.000000D+00  0.000000D+00 -0.296898D+00  0.000000D+00  0.263064D+00
     10  -0.570274D-01 -0.887375D+00  0.000000D+00  0.364676D+00  0.000000D+00
     11  -0.798957D-01 -0.319645D+01  0.000000D+00 -0.108830D+01  0.000000D+00
     12   0.227114D+00 -0.173116D-01  0.000000D+00  0.297962D+00  0.000000D+00
     13   0.381308D-01  0.573863D-01  0.000000D+00  0.236388D-02  0.000000D+00
     14   0.811394D-01 -0.141588D+01  0.000000D+00 -0.860762D-01  0.000000D+00
     15   0.000000D+00  0.000000D+00  0.315284D+00  0.000000D+00 -0.137096D+00
     16   0.000000D+00  0.000000D+00  0.105238D+00  0.000000D+00 -0.203953D+00
               606           607           608           609           610 
      1  -0.185430D+03 -0.185416D+03 -0.185409D+03 -0.185386D+03 -0.185374D+03
      2   0.000000D+00 -0.158961D+00  0.112164D-01  0.243337D-01  0.000000D+00
      3   0.000000D+00  0.128455D-01 -0.111336D-01 -0.710631D-01  0.000000D+00
      4  -0.648665D-01  0.000000D+00  0.000000D+00  0.000000D+00  0.604463D-01
      5   0.000000D+00  0.614007D+00 -0.568679D-01 -0.110502D+00  0.000000D+00
      6   0.000000D+00 -0.347310D-01  0.479848D-01  0.305399D+00  0.000000D+00
      7   0.265229D+00  0.000000D+00  0.000000D+00  0.000000D+00 -0.213088D+00
      8  -0.269954D+00  0.000000D+00  0.000000D+00  0.000000D+00  0.161945D+00
      9   0.661131D+00  0.000000D+00  0.000000D+00  0.000000D+00 -0.827146D-01
     10   0.000000D+00 -0.100082D+01  0.320913D+00  0.260375D+00  0.000000D+00
     11   0.000000D+00  0.256044D+01 -0.298734D-01 -0.285431D+01  0.000000D+00
     12   0.000000D+00 -0.366417D+00  0.116442D+00 -0.260289D+00  0.000000D+00
     13   0.000000D+00 -0.146607D+00  0.527371D-01  0.790539D-01  0.000000D+00
     14   0.000000D+00 -0.100389D+01  0.516148D+00 -0.108796D+00  0.000000D+00
     15  -0.773109D+00  0.000000D+00  0.000000D+00  0.000000D+00  0.100696D-01
     16  -0.126403D-01  0.000000D+00  0.000000D+00  0.000000D+00  0.221201D+00
               611           612           613           614           615 
      1  -0.185352D+03 -0.185341D+03 -0.185326D+03 -0.185325D+03 -0.185314D+03
      2  -0.801329D-01  0.000000D+00 -0.776674D-01  0.402185D-01  0.261682D-01
      3  -0.164532D-01  0.000000D+00  0.530709D-01 -0.111246D+00 -0.359912D-01
      4   0.000000D+00  0.282895D-01  0.000000D+00  0.000000D+00  0.000000D+00
      5   0.348530D+00  0.000000D+00  0.315087D+00 -0.181115D+00 -0.801156D-01
      6   0.778399D-01  0.000000D+00 -0.215550D+00  0.441016D+00  0.142933D+00
      7   0.000000D+00 -0.112984D+00  0.000000D+00  0.000000D+00  0.000000D+00
      8   0.000000D+00 -0.235854D-01  0.000000D+00  0.000000D+00  0.000000D+00
      9   0.000000D+00  0.392485D+00  0.000000D+00  0.000000D+00  0.000000D+00
     10  -0.736826D-01  0.000000D+00  0.212083D-01 -0.281017D-01 -0.761755D+00
     11   0.403831D+00  0.000000D+00  0.117475D+01 -0.128319D+01  0.804561D-01
     12  -0.180448D+00  0.000000D+00  0.238114D+00 -0.258449D+00 -0.127613D+00
     13   0.761283D-02  0.000000D+00 -0.192501D+00 -0.297049D-01 -0.349515D-01
     14  -0.413057D+00  0.000000D+00 -0.130269D+00 -0.219653D+00 -0.905328D+00
     15   0.000000D+00 -0.350811D+00  0.000000D+00  0.000000D+00  0.000000D+00
     16   0.000000D+00 -0.383127D-01  0.000000D+00  0.000000D+00  0.000000D+00
               616           617           618           619           620 
      1  -0.185307D+03 -0.185249D+03 -0.185244D+03 -0.185218D+03 -0.185188D+03
      2  -0.274436D-03  0.000000D+00 -0.444892D-02  0.000000D+00  0.116917D+00
      3  -0.165197D+00  0.000000D+00 -0.524266D-01  0.000000D+00  0.633500D-02
      4   0.000000D+00 -0.324562D-01  0.000000D+00  0.250352D-01  0.000000D+00
      5   0.149664D-01  0.000000D+00  0.495464D-01  0.000000D+00 -0.498833D+00
      6   0.655189D+00  0.000000D+00  0.228120D+00  0.000000D+00 -0.297945D-01
      7   0.000000D+00  0.125021D+00  0.000000D+00 -0.880474D-01  0.000000D+00
      8   0.000000D+00 -0.107140D+00  0.000000D+00 -0.595880D-01  0.000000D+00
      9   0.000000D+00  0.208931D+00  0.000000D+00  0.184861D+00  0.000000D+00
     10  -0.144374D+01  0.000000D+00 -0.211823D+00  0.000000D+00 -0.907414D-01
     11   0.605592D+00  0.000000D+00 -0.116374D+00  0.000000D+00  0.115179D+01
     12  -0.105418D+01  0.000000D+00 -0.989638D-01  0.000000D+00  0.232922D+00
     13  -0.115156D+00  0.000000D+00 -0.274906D+00  0.000000D+00 -0.625164D-02
     14  -0.165398D+01  0.000000D+00 -0.369539D+00  0.000000D+00  0.444775D+00
     15   0.000000D+00 -0.238740D+00  0.000000D+00 -0.779204D-01  0.000000D+00
     16   0.000000D+00  0.129859D-01  0.000000D+00 -0.213620D-01  0.000000D+00
               621           622           623           624           625 
      1  -0.185175D+03 -0.185149D+03 -0.185140D+03 -0.185051D+03 -0.184983D+03
      2  -0.559934D-01 -0.313003D-01 -0.418190D-01 -0.478442D-01 -0.245538D-01
      3   0.806576D-01 -0.990927D-02 -0.390027D-01  0.446455D-01  0.107401D-01
      4   0.000000D+00  0.000000D+00  0.000000D+00  0.000000D+00  0.000000D+00
      5   0.226352D+00  0.915432D-01  0.172886D+00  0.201175D+00  0.132434D+00
      6  -0.314466D+00  0.164657D-01  0.181621D+00 -0.166659D+00 -0.425565D-01
      7   0.000000D+00  0.000000D+00  0.000000D+00  0.000000D+00  0.000000D+00
      8   0.000000D+00  0.000000D+00  0.000000D+00  0.000000D+00  0.000000D+00
      9   0.000000D+00  0.000000D+00  0.000000D+00  0.000000D+00  0.000000D+00
     10   0.533459D+00  0.101114D+00 -0.328369D+00  0.674528D+00  0.323227D+00
     11  -0.170417D+01  0.335740D+00 -0.672126D+00 -0.110529D+01 -0.311554D-02
     12   0.485409D+00  0.389363D-01 -0.371529D+00  0.253663D+00 -0.988073D-01
     13   0.121780D+00  0.716290D-01  0.145057D+00  0.357513D-01  0.115461D+00
     14   0.152975D+00  0.253077D+00 -0.311991D+00  0.214940D+00 -0.217486D-01
     15   0.000000D+00  0.000000D+00  0.000000D+00  0.000000D+00  0.000000D+00
     16   0.000000D+00  0.000000D+00  0.000000D+00  0.000000D+00  0.000000D+00
               626           627           628           629           630 
      1  -0.184896D+03 -0.184826D+03 -0.184693D+03 -0.184674D+03 -0.184562D+03
      2   0.365626D-01 -0.391253D-02  0.186085D-01 -0.296071D-02  0.849749D-02
      3  -0.117586D-01  0.348842D-02 -0.231235D-01 -0.683958D-02  0.180067D-01
      4   0.000000D+00  0.000000D+00  0.000000D+00  0.000000D+00  0.000000D+00
      5  -0.130380D+00 -0.135402D-01 -0.835015D-01 -0.828855D-02 -0.144536D-01
      6   0.495981D-01  0.438334D-03  0.701539D-01  0.265019D-01 -0.578111D-01
      7   0.000000D+00  0.000000D+00  0.000000D+00  0.000000D+00  0.000000D+00
      8   0.000000D+00  0.000000D+00  0.000000D+00  0.000000D+00  0.000000D+00
      9   0.000000D+00  0.000000D+00  0.000000D+00  0.000000D+00  0.000000D+00
     10  -0.209091D+00 -0.182238D-02 -0.898479D-01 -0.170818D+00  0.116354D+00
     11   0.934781D+00 -0.459699D-01  0.307026D-01  0.330154D-01 -0.189838D+00
     12   0.523802D-02 -0.183943D+00  0.309775D-01 -0.965405D-01 -0.101158D+00
     13  -0.165529D+00 -0.802256D-01 -0.374088D-01 -0.514057D-01  0.549424D-01
     14   0.749420D-01 -0.181574D-01 -0.308535D+00 -0.562533D-01  0.560987D-01
     15   0.000000D+00  0.000000D+00  0.000000D+00  0.000000D+00  0.000000D+00
     16   0.000000D+00  0.000000D+00  0.000000D+00  0.000000D+00  0.000000D+00
 Unable to Open any file for archive entry.
 1\1\GINC-HEL23\SP\RM062X TD-FC\Gen\C1H2O2\SABYASACHI\21-Mar-2022\0\\#P
  TD(Nstates=10000) m062x/Gen SCF(maxcycles=100) Int(Grid=ultrafine)\\x
 GDB7_00001_tier4.com\\0,1\O,0,-1.023804,-0.438792,0.\C,0,0.,0.418952,0
 .\O,0,1.152985,0.109983,0.\H,0,-0.656942,-1.333012,0.\H,0,-0.376499,1.
 44977,0.\\Version=EM64L-G16RevC.01\State=1-A'\HF=-189.5573269\RMSD=3.2
 96e-09\PG=CS [SG(C1H2O2)]\\@
 The archive entry for this job was punched.


 EDUCATION DOESN'T COST 
           ... IT PAYS!

 -- POSTMARK, UNIV. OF MISSISSIPPI, DEC 78
 Job cpu time:       0 days  0 hours 10 minutes 27.7 seconds.
 Elapsed time:       0 days  0 hours  1 minutes 18.7 seconds.
 File lengths (MBytes):  RWF=    508 Int=      0 D2E=      0 Chk=    107 Scr=      1
 Normal termination of Gaussian 16 at Mon Mar 21 20:04:37 2022.
