 Entering Gaussian System, Link 0=g16
 Input=000009.com
 Output=000009.log
 Initial command:
 /home/sabyasachi/g16/l1.exe "/scratch/sabyasachi/PBS_7976110.helios/Gau-30948.inp" -scrdir="/scratch/sabyasachi/PBS_7976110.helios/"
 Entering Link 1 = /home/sabyasachi/g16/l1.exe PID=     30949.
  
 Copyright (c) 1988-2019, Gaussian, Inc.  All Rights Reserved.
  
 This is part of the Gaussian(R) 16 program.  It is based on
 the Gaussian(R) 09 system (copyright 2009, Gaussian, Inc.),
 the Gaussian(R) 03 system (copyright 2003, Gaussian, Inc.),
 the Gaussian(R) 98 system (copyright 1998, Gaussian, Inc.),
 the Gaussian(R) 94 system (copyright 1995, Gaussian, Inc.),
 the Gaussian 92(TM) system (copyright 1992, Gaussian, Inc.),
 the Gaussian 90(TM) system (copyright 1990, Gaussian, Inc.),
 the Gaussian 88(TM) system (copyright 1988, Gaussian, Inc.),
 the Gaussian 86(TM) system (copyright 1986, Carnegie Mellon
 University), and the Gaussian 82(TM) system (copyright 1983,
 Carnegie Mellon University). Gaussian is a federally registered
 trademark of Gaussian, Inc.
  
 This software contains proprietary and confidential information,
 including trade secrets, belonging to Gaussian, Inc.
  
 This software is provided under written license and may be
 used, copied, transmitted, or stored only in accord with that
 written license.
  
 The following legend is applicable only to US Government
 contracts under FAR:
  
                    RESTRICTED RIGHTS LEGEND
  
 Use, reproduction and disclosure by the US Government is
 subject to restrictions as set forth in subparagraphs (a)
 and (c) of the Commercial Computer Software - Restricted
 Rights clause in FAR 52.227-19.
  
 Gaussian, Inc.
 340 Quinnipiac St., Bldg. 40, Wallingford CT 06492
  
  
 ---------------------------------------------------------------
 Warning -- This program may not be used in any manner that
 competes with the business of Gaussian, Inc. or will provide
 assistance to any competitor of Gaussian, Inc.  The licensee
 of this program is prohibited from giving any competitor of
 Gaussian, Inc. access to this program.  By using this program,
 the user acknowledges that Gaussian, Inc. is engaged in the
 business of creating and licensing software in the field of
 computational chemistry and represents and warrants to the
 licensee that it is not a competitor of Gaussian, Inc. and that
 it will not use this program in any manner prohibited above.
 ---------------------------------------------------------------
  

 Cite this work as:
 Gaussian 16, Revision C.01,
 M. J. Frisch, G. W. Trucks, H. B. Schlegel, G. E. Scuseria, 
 M. A. Robb, J. R. Cheeseman, G. Scalmani, V. Barone, 
 G. A. Petersson, H. Nakatsuji, X. Li, M. Caricato, A. V. Marenich, 
 J. Bloino, B. G. Janesko, R. Gomperts, B. Mennucci, H. P. Hratchian, 
 J. V. Ortiz, A. F. Izmaylov, J. L. Sonnenberg, D. Williams-Young, 
 F. Ding, F. Lipparini, F. Egidi, J. Goings, B. Peng, A. Petrone, 
 T. Henderson, D. Ranasinghe, V. G. Zakrzewski, J. Gao, N. Rega, 
 G. Zheng, W. Liang, M. Hada, M. Ehara, K. Toyota, R. Fukuda, 
 J. Hasegawa, M. Ishida, T. Nakajima, Y. Honda, O. Kitao, H. Nakai, 
 T. Vreven, K. Throssell, J. A. Montgomery, Jr., J. E. Peralta, 
 F. Ogliaro, M. J. Bearpark, J. J. Heyd, E. N. Brothers, K. N. Kudin, 
 V. N. Staroverov, T. A. Keith, R. Kobayashi, J. Normand, 
 K. Raghavachari, A. P. Rendell, J. C. Burant, S. S. Iyengar, 
 J. Tomasi, M. Cossi, J. M. Millam, M. Klene, C. Adamo, R. Cammi, 
 J. W. Ochterski, R. L. Martin, K. Morokuma, O. Farkas, 
 J. B. Foresman, and D. J. Fox, Gaussian, Inc., Wallingford CT, 2019.
 
 ******************************************
 Gaussian 16:  EM64L-G16RevC.01  3-Jul-2019
                21-Mar-2022 
 ******************************************
 %mem=64gb
 %nproc=8
 Will use up to    8 processors via shared memory.
 ---------------------------------------------------------------------
 #P TD(Nstates=10000) m062x/Gen SCF(maxcycles=100) Int(Grid=ultrafine)
 ---------------------------------------------------------------------
 1/38=1,172=1/1;
 2/12=2,17=6,18=5,40=1/2;
 3/5=7,11=9,25=1,30=1,74=-55,75=-5/1,2,3,8;
 4//1;
 5/5=2,7=100,38=5/2;
 8/6=1,10=1,108=10000/1;
 9/41=10000,42=1,70=2/14;
 6/7=2,8=2,9=2,10=2/1;
 99/5=1,9=1/99;
 Leave Link    1 at Mon Mar 21 20:10:14 2022, MaxMem=  8589934592 cpu:               0.4 elap:               0.1
 (Enter /home/sabyasachi/g16/l101.exe)
 ---------------------
 xGDB7_00001_tier4.com
 ---------------------
 Symbolic Z-matrix:
 Charge =  0 Multiplicity = 1
 9                     0.        0.        0.68819 
 9                     0.        0.       -0.68819 
 
 ITRead=  0  0
 MicOpt= -1 -1
 NAtoms=      2 NQM=        2 NQMF=       0 NMMI=      0 NMMIF=      0
                NMic=       0 NMicF=      0.
                    Isotopes and Nuclear Properties:
 (Nuclear quadrupole moments (NQMom) in fm**2, nuclear magnetic moments (NMagM)
  in nuclear magnetons)

  Atom         1           2
 IAtWgt=          19          19
 AtmWgt=  18.9984033  18.9984033
 NucSpn=           1           1
 AtZEff=  -0.0000000  -0.0000000
 NQMom=    0.0000000   0.0000000
 NMagM=    2.6288670   2.6288670
 AtZNuc=   9.0000000   9.0000000
 Leave Link  101 at Mon Mar 21 20:10:14 2022, MaxMem=  8589934592 cpu:               0.6 elap:               0.1
 (Enter /home/sabyasachi/g16/l202.exe)
                          Input orientation:                          
 ---------------------------------------------------------------------
 Center     Atomic      Atomic             Coordinates (Angstroms)
 Number     Number       Type             X           Y           Z
 ---------------------------------------------------------------------
      1          9           0        0.000000    0.000000    0.688193
      2          9           0        0.000000    0.000000   -0.688193
 ---------------------------------------------------------------------
 Stoichiometry    F2
 Framework group  D*H[C*(F.F)]
 Deg. of freedom     1
 Full point group                 D*H     NOp   8
 Largest Abelian subgroup         D2H     NOp   8
 Largest concise Abelian subgroup C2      NOp   2
                         Standard orientation:                         
 ---------------------------------------------------------------------
 Center     Atomic      Atomic             Coordinates (Angstroms)
 Number     Number       Type             X           Y           Z
 ---------------------------------------------------------------------
      1          9           0        0.000000    0.000000    0.688193
      2          9           0        0.000000    0.000000   -0.688193
 ---------------------------------------------------------------------
 Rotational constants (GHZ):           0.0000000          28.0833945          28.0833945
 Leave Link  202 at Mon Mar 21 20:10:14 2022, MaxMem=  8589934592 cpu:               0.1 elap:               0.0
 (Enter /home/sabyasachi/g16/l301.exe)
 General basis read from cards:  (5D, 7F)
 Centers:       1      2
 S 5 1.00
     Exponent=  2.8948325990D+03 Coefficients= -5.3408255515D-03
     Exponent=  4.3541939120D+02 Coefficients= -3.9904258866D-02
     Exponent=  9.8843328866D+01 Coefficients= -1.7912768038D-01
     Exponent=  2.7485198001D+01 Coefficients= -4.6758090825D-01
     Exponent=  8.5405498171D+00 Coefficients= -4.4653131020D-01
 S 1 1.00
     Exponent=  1.0654578038D+00 Coefficients=  1.0000000000D+00
 S 1 1.00
     Exponent=  3.3247346748D-01 Coefficients=  1.0000000000D+00
 S 1 1.00
     Exponent=  9.8097752264D-02 Coefficients=  1.0000000000D+00
 P 3 1.00
     Exponent=  2.2696633924D+01 Coefficients= -4.5212874436D-02
     Exponent=  4.9872339257D+00 Coefficients= -2.3754317067D-01
     Exponent=  1.3491613954D+00 Coefficients= -5.1287353587D-01
 P 1 1.00
     Exponent=  3.4829881977D-01 Coefficients=  1.0000000000D+00
 P 1 1.00
     Exponent=  8.3372148304D-02 Coefficients=  1.0000000000D+00
 D 1 1.00
     Exponent=  1.4000000000D+00 Coefficients=  1.0000000000D+00
 D 1 1.00
     Exponent=  2.2301361948D-01 Coefficients=  1.0000000000D+00
 ****
 Ernie: Thresh=  0.10000D-02 Tol=  0.10000D-05 Strict=F.
 There are    13 symmetry adapted cartesian basis functions of AG  symmetry.
 There are     2 symmetry adapted cartesian basis functions of B1G symmetry.
 There are     5 symmetry adapted cartesian basis functions of B2G symmetry.
 There are     5 symmetry adapted cartesian basis functions of B3G symmetry.
 There are     2 symmetry adapted cartesian basis functions of AU  symmetry.
 There are    13 symmetry adapted cartesian basis functions of B1U symmetry.
 There are     5 symmetry adapted cartesian basis functions of B2U symmetry.
 There are     5 symmetry adapted cartesian basis functions of B3U symmetry.
 There are    11 symmetry adapted basis functions of AG  symmetry.
 There are     2 symmetry adapted basis functions of B1G symmetry.
 There are     5 symmetry adapted basis functions of B2G symmetry.
 There are     5 symmetry adapted basis functions of B3G symmetry.
 There are     2 symmetry adapted basis functions of AU  symmetry.
 There are    11 symmetry adapted basis functions of B1U symmetry.
 There are     5 symmetry adapted basis functions of B2U symmetry.
 There are     5 symmetry adapted basis functions of B3U symmetry.
    46 basis functions,    70 primitive gaussians,    50 cartesian basis functions
     9 alpha electrons        9 beta electrons
       nuclear repulsion energy        31.1419573321 Hartrees.
 IExCor= 4336 DFT=T Ex+Corr=M062X ExCW=0 ScaHFX=  0.540000
 ScaDFX=  1.000000  1.000000  1.000000  1.000000 ScalE2=  1.000000  1.000000
 IRadAn=      5 IRanWt=     -1 IRanGd=            0 ICorTp=0 IEmpDi=  4
 NAtoms=    2 NActive=    2 NUniq=    1 SFac= 4.00D+00 NAtFMM=   60 NAOKFM=F Big=F
 Integral buffers will be    131072 words long.
 Regular integral format.
 Two-electron integral symmetry is turned on.
 Leave Link  301 at Mon Mar 21 20:10:14 2022, MaxMem=  8589934592 cpu:               0.5 elap:               0.1
 (Enter /home/sabyasachi/g16/l302.exe)
 NPDir=0 NMtPBC=     1 NCelOv=     1 NCel=       1 NClECP=     1 NCelD=      1
         NCelK=      1 NCelE2=     1 NClLst=     1 CellRange=     0.0.
 One-electron integrals computed using PRISM.
 One-electron integral symmetry used in STVInt
 NBasis=    46 RedAO= T EigKep=  2.60D-03  NBF=    11     2     5     5     2    11     5     5
 NBsUse=    46 1.00D-06 EigRej= -1.00D+00 NBFU=    11     2     5     5     2    11     5     5
 Precomputing XC quadrature grid using
 IXCGrd= 4 IRadAn=           5 IRanWt=          -1 IRanGd=           0 AccXCQ= 0.00D+00.
 Generated NRdTot=       0 NPtTot=           0 NUsed=           0 NTot=          32
 NSgBfM=    50    50    50    50    50 MxSgAt=     2 MxSgA2=     2.
 Leave Link  302 at Mon Mar 21 20:10:14 2022, MaxMem=  8589934592 cpu:               0.9 elap:               0.1
 (Enter /home/sabyasachi/g16/l303.exe)
 DipDrv:  MaxL=1.
 Leave Link  303 at Mon Mar 21 20:10:14 2022, MaxMem=  8589934592 cpu:               0.2 elap:               0.0
 (Enter /home/sabyasachi/g16/l308.exe)
 Leave Link  308 at Mon Mar 21 20:10:14 2022, MaxMem=  8589934592 cpu:               0.2 elap:               0.0
 (Enter /home/sabyasachi/g16/l401.exe)
 ExpMin= 8.34D-02 ExpMax= 2.89D+03 ExpMxC= 4.35D+02 IAcc=3 IRadAn=         5 AccDes= 0.00D+00
 Harris functional with IExCor= 1009 and IRadAn=       5 diagonalized for initial guess.
 HarFok:  IExCor= 1009 AccDes= 0.00D+00 IRadAn=         5 IDoV= 1 UseB2=F ITyADJ=14
 ICtDFT=  3500011 ScaDFX=  1.000000  1.000000  1.000000  1.000000
 FoFCou: FMM=F IPFlag=           0 FMFlag=      100000 FMFlg1=           0
         NFxFlg=           0 DoJE=T BraDBF=F KetDBF=T FulRan=T
         wScrn=  0.000000 ICntrl=       500 IOpCl=  0 I1Cent=   200000004 NGrid=           0
         NMat0=    1 NMatS0=      1 NMatT0=    0 NMatD0=    1 NMtDS0=    0 NMtDT0=    0
 Petite list used in FoFCou.
 Harris En= -199.203519247141    
 JPrj=0 DoOrth=F DoCkMO=F.
 Initial guess orbital symmetries:
       Occupied  (SGU) (SGG) (SGG) (SGU) (SGG) (PIU) (PIU) (PIG)
                 (PIG)
       Virtual   (SGU) (SGG) (SGU) (PIU) (PIU) (SGG) (PIG) (PIG)
                 (SGU) (DLTG) (DLTG) (PIU) (PIU) (DLTU) (DLTU)
                 (SGU) (PIG) (PIG) (SGG) (PIU) (PIU) (SGG) (SGU)
                 (PIG) (PIG) (SGG) (SGU) (SGG) (PIU) (PIU) (DLTG)
                 (DLTG) (DLTU) (DLTU) (PIG) (PIG) (SGU)
 The electronic state of the initial guess is 1-SGG.
 Leave Link  401 at Mon Mar 21 20:10:15 2022, MaxMem=  8589934592 cpu:               1.1 elap:               0.2
 (Enter /home/sabyasachi/g16/l502.exe)
 Keep R1 ints in memory in symmetry-blocked form, NReq=7578131.
 FoFCou: FMM=F IPFlag=           0 FMFlag=           0 FMFlg1=           0
         NFxFlg=           0 DoJE=F BraDBF=F KetDBF=F FulRan=T
         wScrn=  0.000000 ICntrl=       600 IOpCl=  0 I1Cent=           0 NGrid=           0
         NMat0=    1 NMatS0=   1081 NMatT0=    0 NMatD0=    1 NMtDS0=    0 NMtDT0=    0
 Petite list used in FoFCou.
 Closed shell SCF:
 Using DIIS extrapolation, IDIIS=  1040.
 NGot=  8589934592 LenX=  8589844957 LenY=  8589842016
 Requested convergence on RMS density matrix=1.00D-08 within 100 cycles.
 Requested convergence on MAX density matrix=1.00D-06.
 Requested convergence on             energy=1.00D-06.
 No special actions if energy rises.
 Integral accuracy reduced to 1.0D-05 until final iterations.

 Cycle   1  Pass 0  IDiag  1:
 E= -199.270497396824    
 DIIS: error= 2.37D-02 at cycle   1 NSaved=   1.
 NSaved= 1 IEnMin= 1 EnMin= -199.270497396824     IErMin= 1 ErrMin= 2.37D-02
 ErrMax= 2.37D-02  0.00D+00 EMaxC= 1.00D-01 BMatC= 2.73D-02 BMatP= 2.73D-02
 IDIUse=3 WtCom= 7.63D-01 WtEn= 2.37D-01
 Coeff-Com:  0.100D+01
 Coeff-En:   0.100D+01
 Coeff:      0.100D+01
 Gap=     0.444 Goal=   None    Shift=    0.000
 GapD=    0.444 DampG=2.000 DampE=0.500 DampFc=1.0000 IDamp=-1.
 RMSDP=2.45D-03 MaxDP=2.37D-02              OVMax= 3.34D-02

 Cycle   2  Pass 0  IDiag  1:
 E= -199.280330923931     Delta-E=       -0.009833527107 Rises=F Damp=F
 DIIS: error= 1.16D-02 at cycle   2 NSaved=   2.
 NSaved= 2 IEnMin= 2 EnMin= -199.280330923931     IErMin= 2 ErrMin= 1.16D-02
 ErrMax= 1.16D-02  0.00D+00 EMaxC= 1.00D-01 BMatC= 6.37D-03 BMatP= 2.73D-02
 IDIUse=3 WtCom= 8.84D-01 WtEn= 1.16D-01
 Coeff-Com:  0.304D+00 0.696D+00
 Coeff-En:   0.000D+00 0.100D+01
 Coeff:      0.269D+00 0.731D+00
 Gap=     0.456 Goal=   None    Shift=    0.000
 RMSDP=1.10D-03 MaxDP=1.38D-02 DE=-9.83D-03 OVMax= 1.51D-02

 Cycle   3  Pass 0  IDiag  1:
 E= -199.283923024892     Delta-E=       -0.003592100962 Rises=F Damp=F
 DIIS: error= 2.33D-03 at cycle   3 NSaved=   3.
 NSaved= 3 IEnMin= 3 EnMin= -199.283923024892     IErMin= 3 ErrMin= 2.33D-03
 ErrMax= 2.33D-03  0.00D+00 EMaxC= 1.00D-01 BMatC= 3.58D-04 BMatP= 6.37D-03
 IDIUse=3 WtCom= 9.77D-01 WtEn= 2.33D-02
 Coeff-Com:  0.136D-01 0.198D+00 0.788D+00
 Coeff-En:   0.000D+00 0.000D+00 0.100D+01
 Coeff:      0.133D-01 0.193D+00 0.793D+00
 Gap=     0.455 Goal=   None    Shift=    0.000
 RMSDP=2.63D-04 MaxDP=3.48D-03 DE=-3.59D-03 OVMax= 3.55D-03

 Cycle   4  Pass 0  IDiag  1:
 E= -199.284147506113     Delta-E=       -0.000224481221 Rises=F Damp=F
 DIIS: error= 4.42D-04 at cycle   4 NSaved=   4.
 NSaved= 4 IEnMin= 4 EnMin= -199.284147506113     IErMin= 4 ErrMin= 4.42D-04
 ErrMax= 4.42D-04  0.00D+00 EMaxC= 1.00D-01 BMatC= 7.40D-06 BMatP= 3.58D-04
 IDIUse=3 WtCom= 9.96D-01 WtEn= 4.42D-03
 Coeff-Com: -0.609D-02 0.304D-01 0.221D+00 0.754D+00
 Coeff-En:   0.000D+00 0.000D+00 0.000D+00 0.100D+01
 Coeff:     -0.607D-02 0.302D-01 0.220D+00 0.755D+00
 Gap=     0.455 Goal=   None    Shift=    0.000
 RMSDP=3.52D-05 MaxDP=3.97D-04 DE=-2.24D-04 OVMax= 3.45D-04

 Cycle   5  Pass 0  IDiag  1:
 E= -199.284151481324     Delta-E=       -0.000003975211 Rises=F Damp=F
 DIIS: error= 3.14D-05 at cycle   5 NSaved=   5.
 NSaved= 5 IEnMin= 5 EnMin= -199.284151481324     IErMin= 5 ErrMin= 3.14D-05
 ErrMax= 3.14D-05  0.00D+00 EMaxC= 1.00D-01 BMatC= 1.85D-08 BMatP= 7.40D-06
 IDIUse=1 WtCom= 1.00D+00 WtEn= 0.00D+00
 Coeff-Com:  0.430D-03-0.468D-02-0.294D-01-0.124D+00 0.116D+01
 Coeff:      0.430D-03-0.468D-02-0.294D-01-0.124D+00 0.116D+01
 Gap=     0.455 Goal=   None    Shift=    0.000
 RMSDP=3.33D-06 MaxDP=3.63D-05 DE=-3.98D-06 OVMax= 5.50D-05

 Initial convergence to 1.0D-05 achieved.  Increase integral accuracy.
 Cycle   6  Pass 1  IDiag  1:
 E= -199.284082869065     Delta-E=        0.000068612259 Rises=F Damp=F
 DIIS: error= 2.44D-05 at cycle   1 NSaved=   1.
 NSaved= 1 IEnMin= 1 EnMin= -199.284082869065     IErMin= 1 ErrMin= 2.44D-05
 ErrMax= 2.44D-05  0.00D+00 EMaxC= 1.00D-01 BMatC= 1.59D-08 BMatP= 1.59D-08
 IDIUse=1 WtCom= 1.00D+00 WtEn= 0.00D+00
 Coeff-Com:  0.100D+01
 Coeff:      0.100D+01
 Gap=     0.455 Goal=   None    Shift=    0.000
 RMSDP=3.33D-06 MaxDP=3.63D-05 DE= 6.86D-05 OVMax= 4.99D-05

 Cycle   7  Pass 1  IDiag  1:
 E= -199.284082886434     Delta-E=       -0.000000017369 Rises=F Damp=F
 DIIS: error= 1.05D-05 at cycle   2 NSaved=   2.
 NSaved= 2 IEnMin= 2 EnMin= -199.284082886434     IErMin= 2 ErrMin= 1.05D-05
 ErrMax= 1.05D-05  0.00D+00 EMaxC= 1.00D-01 BMatC= 3.43D-09 BMatP= 1.59D-08
 IDIUse=1 WtCom= 1.00D+00 WtEn= 0.00D+00
 Coeff-Com:  0.251D+00 0.749D+00
 Coeff:      0.251D+00 0.749D+00
 Gap=     0.455 Goal=   None    Shift=    0.000
 RMSDP=9.43D-07 MaxDP=1.33D-05 DE=-1.74D-08 OVMax= 9.95D-06

 Cycle   8  Pass 1  IDiag  1:
 E= -199.284082888320     Delta-E=       -0.000000001886 Rises=F Damp=F
 DIIS: error= 2.27D-06 at cycle   3 NSaved=   3.
 NSaved= 3 IEnMin= 3 EnMin= -199.284082888320     IErMin= 3 ErrMin= 2.27D-06
 ErrMax= 2.27D-06  0.00D+00 EMaxC= 1.00D-01 BMatC= 2.30D-10 BMatP= 3.43D-09
 IDIUse=1 WtCom= 1.00D+00 WtEn= 0.00D+00
 Coeff-Com: -0.342D-01 0.168D+00 0.866D+00
 Coeff:     -0.342D-01 0.168D+00 0.866D+00
 Gap=     0.455 Goal=   None    Shift=    0.000
 RMSDP=2.63D-07 MaxDP=3.01D-06 DE=-1.89D-09 OVMax= 3.72D-06

 Cycle   9  Pass 1  IDiag  1:
 E= -199.284082888483     Delta-E=       -0.000000000163 Rises=F Damp=F
 DIIS: error= 4.12D-07 at cycle   4 NSaved=   4.
 NSaved= 4 IEnMin= 4 EnMin= -199.284082888483     IErMin= 4 ErrMin= 4.12D-07
 ErrMax= 4.12D-07  0.00D+00 EMaxC= 1.00D-01 BMatC= 5.98D-12 BMatP= 2.30D-10
 IDIUse=1 WtCom= 1.00D+00 WtEn= 0.00D+00
 Coeff-Com: -0.126D-01 0.328D-01 0.246D+00 0.733D+00
 Coeff:     -0.126D-01 0.328D-01 0.246D+00 0.733D+00
 Gap=     0.455 Goal=   None    Shift=    0.000
 RMSDP=2.66D-08 MaxDP=2.36D-07 DE=-1.63D-10 OVMax= 4.92D-07

 Cycle  10  Pass 1  IDiag  1:
 E= -199.284082888486     Delta-E=       -0.000000000003 Rises=F Damp=F
 DIIS: error= 3.09D-08 at cycle   5 NSaved=   5.
 NSaved= 5 IEnMin= 5 EnMin= -199.284082888486     IErMin= 5 ErrMin= 3.09D-08
 ErrMax= 3.09D-08  0.00D+00 EMaxC= 1.00D-01 BMatC= 1.31D-14 BMatP= 5.98D-12
 IDIUse=1 WtCom= 1.00D+00 WtEn= 0.00D+00
 Coeff-Com:  0.141D-02-0.555D-02-0.304D-01-0.775D-01 0.111D+01
 Coeff:      0.141D-02-0.555D-02-0.304D-01-0.775D-01 0.111D+01
 Gap=     0.455 Goal=   None    Shift=    0.000
 RMSDP=3.93D-09 MaxDP=3.66D-08 DE=-3.13D-12 OVMax= 6.42D-08

 SCF Done:  E(RM062X) =  -199.284082888     A.U. after   10 cycles
            NFock= 10  Conv=0.39D-08     -V/T= 2.0048
 KE= 1.983276403503D+02 PE=-5.378999974253D+02 EE= 1.091463168544D+02
 Leave Link  502 at Mon Mar 21 20:10:15 2022, MaxMem=  8589934592 cpu:               1.9 elap:               0.3
 (Enter /home/sabyasachi/g16/l801.exe)
 DoSCS=F DFT=T ScalE2(SS,OS)=  1.000000  1.000000
 ExpMin= 8.34D-02 ExpMax= 2.89D+03 ExpMxC= 4.35D+02 IAcc=3 IRadAn=         5 AccDes= 0.00D+00
 HarFok:  IExCor=  205 AccDes= 0.00D+00 IRadAn=         5 IDoV=-2 UseB2=F ITyADJ=14
 ICtDFT= 12500011 ScaDFX=  1.000000  1.000000  1.000000  1.000000
 Largest valence mixing into a core orbital is  5.61D-05
 Largest core mixing into a valence orbital is  2.55D-05
 Range of M.O.s used for correlation:     3    46
 NBasis=    46 NAE=     9 NBE=     9 NFC=     2 NFV=     0
 NROrb=     44 NOA=     7 NOB=     7 NVA=    37 NVB=    37
 Leave Link  801 at Mon Mar 21 20:10:15 2022, MaxMem=  8589934592 cpu:               0.3 elap:               0.1
 (Enter /home/sabyasachi/g16/l914.exe)
 RHF ground state
 Keep R1, R2, and R3 ints in memory in symmetry-blocked form, NReq=77142351.
 FoFCou: FMM=F IPFlag=           0 FMFlag=           0 FMFlg1=           0
         NFxFlg=           0 DoJE=F BraDBF=F KetDBF=F FulRan=T
         wScrn=  0.000000 ICntrl=       600 IOpCl=  0 I1Cent=           0 NGrid=           0
         NMat0=    1 NMatS0=   1081 NMatT0=    0 NMatD0=    1 NMtDS0=    0 NMtDT0=    0
 Petite list used in FoFCou.
 MDV=  8589934592 DFT=T DoStab=F Mixed=T DoRPA=T DoScal=F NonHer=T
 Making orbital integer symmetry assigments:
 Orbital symmetries:
       Occupied  (SGU) (SGG) (SGG) (SGU) (SGG) (PIU) (PIU) (PIG)
                 (PIG)
       Virtual   (SGU) (SGU) (SGG) (PIU) (PIU) (PIG) (PIG) (SGG)
                 (SGU) (DLTG) (DLTG) (PIU) (PIU) (SGU) (DLTU) (DLTU)
                 (SGG) (PIG) (PIG) (PIU) (PIU) (SGG) (SGU) (PIG)
                 (PIG) (SGG) (SGU) (SGG) (PIU) (PIU) (DLTG) (DLTG)
                 (DLTU) (DLTU) (PIG) (PIG) (SGU)
   259 initial guesses have been made.
 Convergence on wavefunction:    0.001000000000000
 Davidson Disk Diagonalization:  ConvIn= 1.00D-03 SkipCon=T Conv= 1.00D-03.
 Max sub-space:  1554 roots to seek:   518 dimension of matrix:          518
 *** WARNING: Number of orthogonal guesses is          259
 Iteration     1 Dimension   259 NMult     0 NNew    259
 CISAX will form   259 AO SS matrices at one time.
 NMat=   259 NSing=   259 JSym2X=-1.
 New state      1 was old state      2
 New state      2 was old state      1
 New state      5 was old state      9
 New state      6 was old state      8
 New state      8 was old state      5
 New state      9 was old state      6
 New state     10 was old state     11
 New state     11 was old state     12
 New state     12 was old state     10
 New state     13 was old state     18
 New state     14 was old state     19
 New state     15 was old state     13
 New state     16 was old state     15
 New state     18 was old state     16
 New state     19 was old state     14
 New state     20 was old state     22
 New state     21 was old state     23
 New state     22 was old state     21
 New state     23 was old state     20
 New state     24 was old state     25
 New state     25 was old state     26
 New state     26 was old state     29
 New state     28 was old state     24
 New state     29 was old state     31
 New state     31 was old state     28
 New state     32 was old state     37
 New state     33 was old state     36
 New state     34 was old state     32
 New state     36 was old state     34
 New state     37 was old state     33
 New state     38 was old state     40
 New state     40 was old state     38
 New state     43 was old state     44
 New state     44 was old state     43
 New state     47 was old state     48
 New state     48 was old state     47
 New state     49 was old state     50
 New state     50 was old state     49
 New state     51 was old state     57
 New state     52 was old state     56
 New state     53 was old state     58
 New state     54 was old state     51
 New state     55 was old state     52
 New state     56 was old state     54
 New state     57 was old state     53
 New state     58 was old state     59
 New state     59 was old state     60
 New state     60 was old state     55
 New state     65 was old state     66
 New state     66 was old state     65
 New state     67 was old state     74
 New state     68 was old state     77
 New state     69 was old state     75
 New state     70 was old state     67
 New state     71 was old state     68
 New state     72 was old state     70
 New state     73 was old state     76
 New state     74 was old state     72
 New state     75 was old state     71
 New state     76 was old state     79
 New state     77 was old state     80
 New state     78 was old state     73
 New state     79 was old state     78
 New state     80 was old state     69
 New state     81 was old state     95
 New state     82 was old state     81
 New state     83 was old state     82
 New state     84 was old state     85
 New state     85 was old state     86
 New state     86 was old state     87
 New state     87 was old state     88
 New state     88 was old state     84
 New state     89 was old state     83
 New state     90 was old state     89
 New state     91 was old state     92
 New state     92 was old state     93
 New state     93 was old state     98
 New state     95 was old state     91
 New state     96 was old state     90
 New state     97 was old state    101
 New state     98 was old state     99
 New state     99 was old state     96
 New state    100 was old state     97
 New state    101 was old state    103
 New state    102 was old state    104
 New state    103 was old state    102
 New state    104 was old state    100
 New state    105 was old state    106
 New state    106 was old state    105
 New state    107 was old state    108
 New state    108 was old state    109
 New state    109 was old state    107
 New state    110 was old state    113
 New state    111 was old state    114
 New state    113 was old state    110
 New state    114 was old state    111
 New state    115 was old state    116
 New state    116 was old state    115
 New state    118 was old state    120
 New state    120 was old state    125
 New state    121 was old state    127
 New state    122 was old state    128
 New state    123 was old state    121
 New state    124 was old state    134
 New state    125 was old state    135
 New state    126 was old state    123
 New state    127 was old state    124
 New state    128 was old state    122
 New state    129 was old state    118
 New state    130 was old state    137
 New state    131 was old state    136
 New state    132 was old state    130
 New state    133 was old state    131
 New state    134 was old state    129
 New state    135 was old state    132
 New state    136 was old state    133
 New state    137 was old state    126
 New state    138 was old state    141
 New state    139 was old state    140
 New state    140 was old state    138
 New state    141 was old state    139
 New state    142 was old state    155
 New state    143 was old state    156
 New state    144 was old state    142
 New state    145 was old state    148
 New state    146 was old state    150
 New state    147 was old state    151
 New state    148 was old state    144
 New state    149 was old state    145
 New state    150 was old state    146
 New state    151 was old state    147
 New state    152 was old state    143
 New state    153 was old state    168
 New state    155 was old state    153
 New state    156 was old state    152
 New state    157 was old state    160
 New state    158 was old state    161
 New state    160 was old state    165
 New state    161 was old state    164
 New state    162 was old state    167
 New state    163 was old state    166
 New state    164 was old state    163
 New state    165 was old state    158
 New state    166 was old state    157
 New state    167 was old state    169
 New state    168 was old state    170
 New state    169 was old state    162
 New state    170 was old state    149
 New state    171 was old state    172
 New state    172 was old state    171
 New state    173 was old state    175
 New state    175 was old state    173
 New state    178 was old state    182
 New state    179 was old state    180
 New state    180 was old state    181
 New state    181 was old state    179
 New state    182 was old state    178
 New state    184 was old state    186
 New state    186 was old state    184
 New state    191 was old state    195
 New state    192 was old state    194
 New state    194 was old state    191
 New state    195 was old state    192
 New state    196 was old state    197
 New state    197 was old state    198
 New state    198 was old state    196
 New state    199 was old state    201
 New state    200 was old state    199
 New state    201 was old state    205
 New state    202 was old state    206
 New state    203 was old state    202
 New state    204 was old state    203
 New state    205 was old state    204
 New state    206 was old state    210
 New state    207 was old state    209
 New state    208 was old state    200
 New state    209 was old state    208
 New state    210 was old state    207
 New state    211 was old state    217
 New state    212 was old state    218
 New state    213 was old state    212
 New state    214 was old state    211
 New state    215 was old state    216
 New state    216 was old state    215
 New state    217 was old state    223
 New state    218 was old state    224
 New state    219 was old state    220
 New state    220 was old state    219
 New state    221 was old state    228
 New state    222 was old state    225
 New state    223 was old state    227
 New state    224 was old state    222
 New state    225 was old state    221
 New state    226 was old state    214
 New state    227 was old state    213
 New state    228 was old state    229
 New state    229 was old state    231
 New state    231 was old state    232
 New state    232 was old state    226
 New state    234 was old state    236
 New state    235 was old state    237
 New state    236 was old state    235
 New state    237 was old state    234
 New state    243 was old state    244
 New state    244 was old state    243
 Excitation Energies [eV] at current iteration:
 Root      1 :     4.537077982516375
 Root      2 :     4.537077982517263
 Root      3 :     8.719660273214197
 Root      4 :     8.719660273214206
 Root      5 :    13.534128072025220
 Root      6 :    13.534128072025400
 Root      7 :    13.566877713496230
 Root      8 :    13.719672657021680
 Root      9 :    13.719672657021720
 Root     10 :    14.363537932542460
 Root     11 :    14.494892111889910
 Root     12 :    14.495212671726830
 Root     13 :    16.154810628733890
 Root     14 :    16.154810628734850
 Root     15 :    16.249403893006220
 Root     16 :    16.263930002541370
 Root     17 :    16.428759613585170
 Root     18 :    16.428789934317130
 Root     19 :    17.042252950464960
 Root     20 :    17.767991692026540
 Root     21 :    17.767991692026570
 Root     22 :    17.985373564313370
 Root     23 :    17.985373564313450
 Root     24 :    18.496689272439890
 Root     25 :    18.572758023259080
 Root     26 :    18.681874034640490
 Root     27 :    18.681992031215220
 Root     28 :    19.246842450073300
 Root     29 :    19.282749861955020
 Root     30 :    19.282749861955240
 Root     31 :    19.607535898887290
 Root     32 :    20.390878314507870
 Root     33 :    20.390878314508360
 Root     34 :    20.486234496859240
 Root     35 :    20.544004496271750
 Root     36 :    20.544029671993310
 Root     37 :    21.027890544016600
 Root     38 :    21.212979699265780
 Root     39 :    21.245987762512290
 Root     40 :    21.245987762512700
 Root     41 :    22.075543776925470
 Root     42 :    22.075543776931180
 Root     43 :    23.322871106191460
 Root     44 :    23.322871106191490
 Root     45 :    23.563909665568340
 Root     46 :    23.563909665568640
 Root     47 :    26.012259246626300
 Root     48 :    26.012259246629450
 Root     49 :    26.043255002586900
 Root     50 :    26.932012352912300
 Root     51 :    27.175847084547590
 Root     52 :    27.251234928131950
 Root     53 :    27.252245609837840
 Root     54 :    27.305024945984410
 Root     55 :    27.305024945984440
 Root     56 :    28.086978464272970
 Root     57 :    28.086978464273750
 Root     58 :    28.143327804093950
 Root     59 :    28.143512537416070
 Root     60 :    28.840706973232890
 Root     61 :    29.534942473979330
 Root     62 :    29.534942473980880
 Root     63 :    29.930398597721280
 Root     64 :    29.930398597721290
 Root     65 :    30.166958200872700
 Root     66 :    30.166958200872990
 Root     67 :    30.704446829995610
 Root     68 :    30.954751687342480
 Root     69 :    30.955199468548880
 Root     70 :    31.183667564829850
 Root     71 :    31.183667564831190
 Root     72 :    32.027250473638450
 Root     73 :    32.241260758511630
 Root     74 :    32.245472741610140
 Root     75 :    32.245575327197980
 Root     76 :    32.645515356772520
 Root     77 :    32.645515356773360
 Root     78 :    32.978492464260530
 Root     79 :    32.999534517287850
 Root     80 :    33.418746774297520
 Root     81 :    33.556962801516000
 Root     82 :    33.649705079144740
 Root     83 :    33.649705079144750
 Root     84 :    33.770325485099380
 Root     85 :    33.770325485099450
 Root     86 :    34.083684788148800
 Root     87 :    34.083684788149070
 Root     88 :    34.194935246056860
 Root     89 :    34.194935246056890
 Root     90 :    34.376539955862800
 Root     91 :    34.406919673721420
 Root     92 :    34.407280870088140
 Root     93 :    35.533934993317070
 Root     94 :    35.537820488724930
 Root     95 :    35.675378215126160
 Root     96 :    35.675378215126180
 Root     97 :    35.717140781345800
 Root     98 :    35.717197346506900
 Root     99 :    35.972362527939420
 Root    100 :    35.972362527939420
 Root    101 :    36.512202889737590
 Root    102 :    36.512202889739190
 Root    103 :    36.830148961450920
 Root    104 :    37.223211686094860
 Root    105 :    40.525549968492830
 Root    106 :    40.864000133486050
 Root    107 :    41.485751057155600
 Root    108 :    41.485751057155800
 Root    109 :    41.496431338106410
 Root    110 :    42.547979221572720
 Root    111 :    42.548085440974890
 Root    112 :    43.282580508022340
 Root    113 :    43.421740357258700
 Root    114 :    43.421740357258820
 Root    115 :    43.652408627077680
 Root    116 :    43.925191806707960
 Root    117 :    43.925558950547310
 Root    118 :    46.637735044900990
 Root    119 :    46.637735044901010
 Root    120 :    47.439602404822490
 Root    121 :    47.858845929122180
 Root    122 :    47.859518104545740
 Root    123 :    48.427028599257430
 Root    124 :    48.520475132202110
 Root    125 :    48.520475132202860
 Root    126 :    48.694220988917880
 Root    127 :    48.694792017797870
 Root    128 :    48.894769492711230
 Root    129 :    49.760441222167340
 Root    130 :    49.845668425524760
 Root    131 :    49.845668425526740
 Root    132 :    50.499983768080410
 Root    133 :    50.500214366941130
 Root    134 :    50.892225313414310
 Root    135 :    51.039008608402260
 Root    136 :    51.039008608403110
 Root    137 :    51.629685691719350
 Root    138 :    53.177346938983170
 Root    139 :    53.177346938986420
 Root    140 :    54.477965708776070
 Root    141 :    54.477965708776760
 Root    142 :    55.185544113933930
 Root    143 :    55.185544113933960
 Root    144 :    55.239687831980260
 Root    145 :    55.809159911367080
 Root    146 :    55.883068361982600
 Root    147 :    55.883715396754740
 Root    148 :    56.560462713823500
 Root    149 :    56.560995692167380
 Root    150 :    56.583912038881800
 Root    151 :    56.583912038883200
 Root    152 :    56.967102820175430
 Root    153 :    57.943928550712510
 Root    154 :    58.654083101134500
 Root    155 :    58.654083101135190
 Root    156 :    58.815354071028670
 Root    157 :    59.658883281439070
 Root    158 :    59.772770932162200
 Root    159 :    59.772771421255900
 Root    160 :    59.983962832832420
 Root    161 :    59.983962832834440
 Root    162 :    60.020649318680210
 Root    163 :    60.020649318681140
 Root    164 :    60.399244370926990
 Root    165 :    60.458353757145290
 Root    166 :    60.458353757147900
 Root    167 :    63.768502392923470
 Root    168 :    63.768502392925880
 Root    169 :    64.483027998013070
 Root    170 :    64.876667856340020
 Root    171 :    68.777331625294020
 Root    172 :    68.777331625294070
 Root    173 :    70.630796276485170
 Root    174 :    70.630796276487760
 Root    175 :    71.511334148652010
 Root    176 :    72.621223776262500
 Root    177 :    72.621223776263010
 Root    178 :    73.886271365345220
 Root    179 :    75.379075073902430
 Root    180 :    75.379075073905030
 Root    181 :    76.259671478872650
 Root    182 :    76.401719829814970
 Root    183 :    78.461560556162340
 Root    184 :    82.468386700841620
 Root    185 :    82.468386700843600
 Root    186 :    83.465724333234230
 Root    187 :    83.482777701672130
 Root    188 :    86.371827962040300
 Root    189 :    86.371827962040440
 Root    190 :    88.625363078391230
 Root    191 :    89.431662261119460
 Root    192 :    90.184052285404040
 Root    193 :    90.184895295661780
 Root    194 :    90.336546719985560
 Root    195 :    90.336546719985590
 Root    196 :    92.720573709146900
 Root    197 :    93.156994938844800
 Root    198 :    93.380271443702870
 Root    199 :    94.135186105529410
 Root    200 :    94.135813142407910
 Root    201 :    95.260049880613440
 Root    202 :    95.260049880613520
 Root    203 :    96.108223202543060
 Root    204 :    96.117742847608620
 Root    205 :    96.117742847608890
 Root    206 :    96.329385169829140
 Root    207 :    96.329385169829150
 Root    208 :    98.749866891243100
 Root    209 :    98.977619095584670
 Root    210 :    98.977619095584840
 Root    211 :   100.828299876647900
 Root    212 :   100.829139530441600
 Root    213 :   101.323871179906000
 Root    214 :   101.323871179906100
 Root    215 :   101.728289017399400
 Root    216 :   101.728289017399400
 Root    217 :   102.450470776510200
 Root    218 :   102.451165542143400
 Root    219 :   102.803396698041600
 Root    220 :   102.803396698041900
 Root    221 :   103.177643267206900
 Root    222 :   103.529502091917200
 Root    223 :   103.529639902190500
 Root    224 :   104.060432659440900
 Root    225 :   104.060432659440900
 Root    226 :   105.730646080576300
 Root    227 :   105.730646080576300
 Root    228 :   106.437510854007900
 Root    229 :   106.929582634685200
 Root    230 :   107.417480288402900
 Root    231 :   107.417573375832600
 Root    232 :   107.829178222996400
 Root    233 :   109.941827335558800
 Root    234 :   110.280160042107700
 Root    235 :   110.280160042108000
 Root    236 :   111.328669091982100
 Root    237 :   111.328669091982100
 Root    238 :   114.523663632249600
 Root    239 :   116.031071044163500
 Root    240 :   116.032093326520700
 Root    241 :   117.635103072027000
 Root    242 :   117.635930789461100
 Root    243 :   118.617340930728500
 Root    244 :   118.617340930728500
 Root    245 :   123.465913795860900
 Root    246 :   123.465913795860900
 Root    247 :   123.923761028556200
 Root    248 :   123.924644453287900
 Root    249 :   125.407700767151500
 Root    250 :   125.408357854431900
 Root    251 :   130.705308313037700
 Root    252 :   130.705308313037700
 Root    253 :   130.976698322482800
 Root    254 :   130.976698322482900
 Root    255 :   134.788672282989500
 Root    256 :   134.788672282989800
 Root    257 :   137.173934668981500
 Root    258 :   150.691622193377500
 Root    259 :   157.607238519234700
 Convergence achieved for final wavefunctions.
 ***********************************************************************
 Excited states from <AA,BB:AA,BB> singles matrix:
 ***********************************************************************
 
 1PDM for each excited state written to RWF  633
 Ground to excited state transition densities written to RWF  633
 Ground to excited state transition electric dipole moments (Au):
       state          X           Y           Z        Dip. S.      Osc.
         1         0.0054     -0.0062      0.0000      0.0001      0.0000
         2        -0.0062     -0.0054     -0.0000      0.0001      0.0000
         3        -0.0000     -0.0000     -0.0000      0.0000      0.0000
         4        -0.0000      0.0000      0.0000      0.0000      0.0000
         5        -0.0000      0.0000     -0.0000      0.0000      0.0000
         6        -0.0000     -0.0000      0.0000      0.0000      0.0000
         7        -0.0000     -0.0000     -1.1825      1.3983      0.4648
         8        -0.2545      0.1591     -0.0000      0.0901      0.0303
         9        -0.1591     -0.2545      0.0000      0.0901      0.0303
        10        -0.0000     -0.0000      0.0000      0.0000      0.0000
        11        -0.0000     -0.0000      0.0000      0.0000      0.0000
        12         0.0000     -0.0000      0.0000      0.0000      0.0000
        13         0.0000     -0.0000      0.0000      0.0000      0.0000
        14        -0.0000      0.0000     -0.0000      0.0000      0.0000
        15        -0.0000     -0.0000     -0.7585      0.5753      0.2290
        16         0.0000     -0.0000     -0.0000      0.0000      0.0000
        17        -0.0000      0.0000      0.0000      0.0000      0.0000
        18        -0.0000      0.0000     -0.0000      0.0000      0.0000
        19         0.0000     -0.0000     -0.0000      0.0000      0.0000
        20         0.3294      0.3366      0.0000      0.2218      0.0966
        21         0.3366     -0.3294     -0.0000      0.2218      0.0966
        22         0.0000     -0.0000     -0.0000      0.0000      0.0000
        23         0.0000     -0.0000      0.0000      0.0000      0.0000
        24        -0.0000      0.0000     -0.0000      0.0000      0.0000
        25         0.0000     -0.0000      0.0000      0.0000      0.0000
        26         0.0000     -0.0000      0.0000      0.0000      0.0000
        27         0.0000     -0.0000      0.0000      0.0000      0.0000
        28         0.0000      0.0000      0.1854      0.0344      0.0162
        29        -0.0697      0.1920      0.0000      0.0417      0.0197
        30         0.1920      0.0697     -0.0000      0.0417      0.0197
        31        -0.0000     -0.0000     -0.0000      0.0000      0.0000
        32        -0.2971     -0.1455     -0.0000      0.1095      0.0547
        33         0.1455     -0.2971      0.0000      0.1095      0.0547
        34         0.0000     -0.0000     -0.0000      0.0000      0.0000
        35        -0.0000      0.0000     -0.0000      0.0000      0.0000
        36        -0.0000      0.0000     -0.0000      0.0000      0.0000
        37         0.0000     -0.0000      0.1303      0.0170      0.0087
        38         0.0000     -0.0000      0.0000      0.0000      0.0000
        39        -0.0000      0.0000     -0.0000      0.0000      0.0000
        40         0.0000     -0.0000     -0.0000      0.0000      0.0000
        41         0.2940     -0.0161     -0.0000      0.0867      0.0469
        42         0.0161      0.2940      0.0000      0.0867      0.0469
        43         0.0000      0.0000      0.0000      0.0000      0.0000
        44        -0.0000      0.0000      0.0000      0.0000      0.0000
        45         0.0000      0.0000      0.0000      0.0000      0.0000
        46         0.0000     -0.0000      0.0000      0.0000      0.0000
        47         0.0000     -0.0000      0.0000      0.0000      0.0000
        48         0.0000     -0.0000      0.0000      0.0000      0.0000
        49        -0.0000      0.0000     -0.0000      0.0000      0.0000
        50        -0.0000     -0.0000      0.4065      0.1652      0.1090
        51         0.0000      0.0000      0.0000      0.0000      0.0000
        52         0.0000     -0.0000      0.0000      0.0000      0.0000
        53        -0.0000     -0.0000     -0.0000      0.0000      0.0000
        54         0.0003     -0.0003     -0.0000      0.0000      0.0000
        55         0.0003      0.0003     -0.0000      0.0000      0.0000
        56         0.8490     -0.0487      0.0000      0.7231      0.4976
        57        -0.0487     -0.8490     -0.0000      0.7231      0.4976
        58         0.0000      0.0000      0.0000      0.0000      0.0000
        59        -0.0000     -0.0000     -0.0000      0.0000      0.0000
        60        -0.0000      0.0000      1.2567      1.5792      1.1159
        61        -0.2448      0.0360     -0.0000      0.0612      0.0443
        62        -0.0360     -0.2448     -0.0000      0.0612      0.0443
        63         0.0012     -0.0012      0.0000      0.0000      0.0000
        64        -0.0012     -0.0012     -0.0000      0.0000      0.0000
        65         0.5819      0.2703      0.0000      0.4117      0.3043
        66        -0.2703      0.5819     -0.0000      0.4117      0.3043
        67        -0.0000      0.0000     -0.0000      0.0000      0.0000
        68         0.0000     -0.0000      0.0000      0.0000      0.0000
        69        -0.0000     -0.0000      0.0000      0.0000      0.0000
        70        -0.0000     -0.0000     -0.0000      0.0000      0.0000
        71         0.0000      0.0000      0.0000      0.0000      0.0000
        72         0.0000      0.0000      0.0000      0.0000      0.0000
        73        -0.0000      0.0000      0.0000      0.0000      0.0000
        74        -0.0000      0.0000     -0.0000      0.0000      0.0000
        75         0.0000     -0.0000     -0.0000      0.0000      0.0000
        76         0.7818      0.0227      0.0000      0.6118      0.4893
        77        -0.0227      0.7818     -0.0000      0.6118      0.4893
        78        -0.0000      0.0000     -0.0000      0.0000      0.0000
        79        -0.0000      0.0000      0.1140      0.0130      0.0105
        80        -0.0000      0.0000      0.0000      0.0000      0.0000
        81        -0.0000     -0.0000     -0.2873      0.0825      0.0679
        82        -0.0000      0.0000     -0.0000      0.0000      0.0000
        83         0.0000      0.0000      0.0000      0.0000      0.0000
        84         0.0000     -0.0000     -0.0000      0.0000      0.0000
        85        -0.0000      0.0000      0.0000      0.0000      0.0000
        86        -0.0000      0.0000     -0.0000      0.0000      0.0000
        87         0.0000     -0.0000      0.0000      0.0000      0.0000
        88        -0.0000      0.0000     -0.0000      0.0000      0.0000
        89        -0.0000     -0.0000      0.0000      0.0000      0.0000
        90         0.0000      0.0000      0.1779      0.0316      0.0266
        91        -0.0000      0.0000      0.0000      0.0000      0.0000
        92        -0.0000     -0.0000     -0.0000      0.0000      0.0000
        93        -0.0000     -0.0000     -0.0000      0.0000      0.0000
        94         0.0000     -0.0000     -0.0718      0.0052      0.0045
        95         0.0207     -0.0466      0.0000      0.0026      0.0023
        96        -0.0466     -0.0207     -0.0000      0.0026      0.0023
        97        -0.0000      0.0000     -0.0000      0.0000      0.0000
        98        -0.0000     -0.0000     -0.0000      0.0000      0.0000
        99        -0.1585     -0.1640      0.0000      0.0520      0.0459
       100        -0.1640      0.1585      0.0000      0.0520      0.0459
       101         0.0000     -0.0000      0.0000      0.0000      0.0000
       102         0.0000     -0.0000     -0.0000      0.0000      0.0000
       103         0.0000      0.0000      0.0000      0.0000      0.0000
       104         0.0000     -0.0000      0.2181      0.0476      0.0434
       105        -0.0000     -0.0000     -0.0000      0.0000      0.0000
       106        -0.0000      0.0000      0.0379      0.0014      0.0014
       107        -0.0201     -0.0041      0.0000      0.0004      0.0004
       108         0.0041     -0.0201      0.0000      0.0004      0.0004
       109         0.0000     -0.0000      0.0000      0.0000      0.0000
       110        -0.0000     -0.0000     -0.0000      0.0000      0.0000
       111         0.0000      0.0000      0.0000      0.0000      0.0000
       112        -0.0000      0.0000      0.0000      0.0000      0.0000
       113        -0.0000     -0.0000      0.0000      0.0000      0.0000
       114         0.0000      0.0000      0.0000      0.0000      0.0000
       115        -0.0000      0.0000      0.0000      0.0000      0.0000
       116        -0.0000      0.0000     -0.0000      0.0000      0.0000
       117        -0.0000      0.0000     -0.0000      0.0000      0.0000
       118         0.0000     -0.0000      0.0000      0.0000      0.0000
       119        -0.0000      0.0000      0.0000      0.0000      0.0000
       120        -0.0000     -0.0000     -0.0000      0.0000      0.0000
       121         0.0000      0.0000      0.0000      0.0000      0.0000
       122        -0.0000     -0.0000     -0.0000      0.0000      0.0000
       123         0.0000     -0.0000     -0.1475      0.0217      0.0258
       124         0.1498     -0.0061     -0.0000      0.0225      0.0267
       125         0.0061      0.1498      0.0000      0.0225      0.0267
       126         0.0000      0.0000     -0.0000      0.0000      0.0000
       127         0.0000      0.0000     -0.0000      0.0000      0.0000
       128        -0.0000     -0.0000     -0.0000      0.0000      0.0000
       129         0.0000     -0.0000      0.1639      0.0269      0.0327
       130        -0.0000     -0.0000      0.0000      0.0000      0.0000
       131         0.0000     -0.0000      0.0000      0.0000      0.0000
       132        -0.0000     -0.0000      0.0000      0.0000      0.0000
       133         0.0000      0.0000     -0.0000      0.0000      0.0000
       134        -0.0000      0.0000     -0.1088      0.0118      0.0147
       135        -0.1223      0.0038     -0.0000      0.0150      0.0187
       136        -0.0038     -0.1223     -0.0000      0.0150      0.0187
       137         0.0000     -0.0000     -0.0000      0.0000      0.0000
       138         0.3367      0.0016     -0.0000      0.1134      0.1477
       139        -0.0016      0.3367     -0.0000      0.1134      0.1477
       140         0.2250      0.0072      0.0000      0.0507      0.0676
       141        -0.0072      0.2250      0.0000      0.0507      0.0676
       142        -0.0000      0.0000     -0.0000      0.0000      0.0000
       143         0.0000      0.0000      0.0000      0.0000      0.0000
       144         0.0000      0.0000     -0.0000      0.0000      0.0000
       145        -0.0000     -0.0000     -0.0000      0.0000      0.0000
       146        -0.0000      0.0000      0.0000      0.0000      0.0000
       147        -0.0000     -0.0000     -0.0000      0.0000      0.0000
       148        -0.0000     -0.0000     -0.0000      0.0000      0.0000
       149         0.0000     -0.0000      0.0000      0.0000      0.0000
       150         0.0295     -0.0000     -0.0000      0.0009      0.0012
       151         0.0000      0.0295     -0.0000      0.0009      0.0012
       152         0.0000     -0.0000     -0.0865      0.0075      0.0104
       153         0.0000      0.0000     -0.0000      0.0000      0.0000
       154        -0.0000     -0.0000     -0.0000      0.0000      0.0000
       155         0.0000      0.0000     -0.0000      0.0000      0.0000
       156        -0.0000      0.0000     -0.0000      0.0000      0.0000
       157        -0.0000     -0.0000      0.0000      0.0000      0.0000
       158         0.0000     -0.0000     -0.0000      0.0000      0.0000
       159        -0.0000      0.0000     -0.0000      0.0000      0.0000
       160        -0.0000     -0.0000      0.0000      0.0000      0.0000
       161        -0.0000      0.0000     -0.0000      0.0000      0.0000
       162        -0.1081     -0.0071      0.0000      0.0117      0.0173
       163         0.0071     -0.1081     -0.0000      0.0117      0.0173
       164        -0.0000     -0.0000     -0.1502      0.0225      0.0334
       165        -0.0000     -0.0000     -0.0000      0.0000      0.0000
       166         0.0000      0.0000     -0.0000      0.0000      0.0000
       167        -0.0000      0.0000      0.0000      0.0000      0.0000
       168        -0.0000      0.0000      0.0000      0.0000      0.0000
       169         0.0000      0.0000     -0.1060      0.0112      0.0178
       170         0.0000      0.0000     -0.0000      0.0000      0.0000
       171        -0.0411      0.2195      0.0000      0.0499      0.0840
       172         0.2195      0.0411      0.0000      0.0499      0.0840
       173        -0.0012     -0.3660      0.0000      0.1340      0.2318
       174        -0.3660      0.0012     -0.0000      0.1340      0.2318
       175         0.0000      0.0000      0.0230      0.0005      0.0009
       176        -0.0000      0.0000      0.0000      0.0000      0.0000
       177        -0.0000      0.0000      0.0000      0.0000      0.0000
       178        -0.0000     -0.0000     -0.3995      0.1596      0.2889
       179        -0.0010     -0.1844     -0.0000      0.0340      0.0628
       180        -0.1844      0.0010     -0.0000      0.0340      0.0628
       181        -0.0000      0.0000     -0.0000      0.0000      0.0000
       182        -0.0000      0.0000     -0.0842      0.0071      0.0133
       183         0.0000     -0.0000     -0.0000      0.0000      0.0000
       184         0.0000      0.0000      0.0000      0.0000      0.0000
       185        -0.0000      0.0000      0.0000      0.0000      0.0000
       186         0.0000     -0.0000      0.1107      0.0123      0.0251
       187         0.0000      0.0000      0.0000      0.0000      0.0000
       188        -0.0000      0.0000      0.0000      0.0000      0.0000
       189         0.0000      0.0000     -0.0000      0.0000      0.0000
       190         0.0000      0.0000     -0.0000      0.0000      0.0000
       191        -0.0000      0.0000     -0.0000      0.0000      0.0000
       192        -0.0000     -0.0000      0.0000      0.0000      0.0000
       193        -0.0000      0.0000      0.0000      0.0000      0.0000
       194         0.0441     -0.0638      0.0000      0.0060      0.0133
       195        -0.0638     -0.0441     -0.0000      0.0060      0.0133
       196         0.0000      0.0000      0.0000      0.0000      0.0000
       197         0.0000     -0.0000     -0.0000      0.0000      0.0000
       198        -0.0000     -0.0000      0.6385      0.4077      0.9327
       199         0.0000     -0.0000      0.0000      0.0000      0.0000
       200        -0.0000      0.0000     -0.0000      0.0000      0.0000
       201        -0.0000      0.0000     -0.0000      0.0000      0.0000
       202         0.0000     -0.0000     -0.0000      0.0000      0.0000
       203        -0.0000      0.0000      0.0889      0.0079      0.0186
       204         0.0093     -0.0003      0.0000      0.0001      0.0002
       205         0.0003      0.0093     -0.0000      0.0001      0.0002
       206         0.0000      0.0000      0.0000      0.0000      0.0000
       207        -0.0000      0.0000      0.0000      0.0000      0.0000
       208        -0.0000     -0.0000     -0.0000      0.0000      0.0000
       209        -0.0000      0.0000     -0.0000      0.0000      0.0000
       210        -0.0000      0.0000      0.0000      0.0000      0.0000
       211         0.0000     -0.0000      0.0000      0.0000      0.0000
       212         0.0000      0.0000      0.0000      0.0000      0.0000
       213         0.1218      0.1810      0.0000      0.0476      0.1182
       214         0.1810     -0.1218     -0.0000      0.0476      0.1182
       215        -0.0002      0.0001      0.0000      0.0000      0.0000
       216         0.0001      0.0002      0.0000      0.0000      0.0000
       217        -0.0000     -0.0000      0.0000      0.0000      0.0000
       218        -0.0000      0.0000      0.0000      0.0000      0.0000
       219         0.0000     -0.0000     -0.0000      0.0000      0.0000
       220        -0.0000     -0.0000     -0.0000      0.0000      0.0000
       221         0.0000     -0.0000      0.0000      0.0000      0.0000
       222        -0.0000     -0.0000     -0.0000      0.0000      0.0000
       223        -0.0000      0.0000     -0.0000      0.0000      0.0000
       224        -0.0000     -0.0000     -0.0000      0.0000      0.0000
       225        -0.0000      0.0000      0.0000      0.0000      0.0000
       226        -0.3196     -0.8059     -0.0000      0.7516      1.9468
       227         0.8059     -0.3196      0.0000      0.7516      1.9468
       228        -0.0000      0.0000      0.0501      0.0025      0.0066
       229        -0.0000      0.0000     -0.0000      0.0000      0.0000
       230         0.0000     -0.0000      0.0000      0.0000      0.0000
       231        -0.0000      0.0000      0.0000      0.0000      0.0000
       232         0.0000     -0.0000      0.0000      0.0000      0.0000
       233        -0.0000      0.0000      0.4511      0.2035      0.5482
       234        -0.0000     -0.0000      0.0000      0.0000      0.0000
       235         0.0000     -0.0000     -0.0000      0.0000      0.0000
       236         0.0000     -0.0000      0.0000      0.0000      0.0000
       237         0.0000     -0.0000      0.0000      0.0000      0.0000
       238         0.0000     -0.0000     -0.0000      0.0000      0.0000
       239         0.0000      0.0000     -0.0000      0.0000      0.0000
       240         0.0000     -0.0000     -0.0000      0.0000      0.0000
       241         0.0000      0.0000      0.0000      0.0000      0.0000
       242         0.0000     -0.0000      0.0000      0.0000      0.0000
       243        -0.0061      0.1358      0.0000      0.0185      0.0537
       244         0.1358      0.0061      0.0000      0.0185      0.0537
       245         0.0219     -0.0408      0.0000      0.0021      0.0065
       246        -0.0408     -0.0219     -0.0000      0.0021      0.0065
       247         0.0000     -0.0000     -0.0000      0.0000      0.0000
       248        -0.0000      0.0000      0.0000      0.0000      0.0000
       249        -0.0000     -0.0000     -0.0000      0.0000      0.0000
       250         0.0000     -0.0000     -0.0000      0.0000      0.0000
       251         0.0000     -0.0000      0.0000      0.0000      0.0000
       252         0.0000      0.0000      0.0000      0.0000      0.0000
       253        -0.1764     -0.0459     -0.0000      0.0332      0.1066
       254         0.0459     -0.1764     -0.0000      0.0332      0.1066
       255        -0.0000      0.0000      0.0000      0.0000      0.0000
       256        -0.0000     -0.0000      0.0000      0.0000      0.0000
       257         0.0000      0.0000      0.2467      0.0608      0.2045
       258        -0.0000     -0.0000     -0.0000      0.0000      0.0000
       259         0.0000     -0.0000      0.0422      0.0018      0.0069
 Ground to excited state transition velocity dipole moments (Au):
       state          X           Y           Z        Dip. S.      Osc.
         1        -0.0114      0.0130      0.0000      0.0003      0.0012
         2         0.0130      0.0114      0.0000      0.0003      0.0012
         3         0.0000      0.0000      0.0000      0.0000      0.0000
         4         0.0000      0.0000     -0.0000      0.0000      0.0000
         5         0.0000     -0.0000      0.0000      0.0000      0.0000
         6         0.0000      0.0000     -0.0000      0.0000      0.0000
         7         0.0000      0.0000      0.6141      0.3771      0.5043
         8         0.1339     -0.0837      0.0000      0.0249      0.0330
         9         0.0837      0.1339     -0.0000      0.0249      0.0330
        10        -0.0000      0.0000     -0.0000      0.0000      0.0000
        11         0.0000      0.0000     -0.0000      0.0000      0.0000
        12         0.0000     -0.0000     -0.0000      0.0000      0.0000
        13        -0.0000      0.0000     -0.0000      0.0000      0.0000
        14         0.0000     -0.0000      0.0000      0.0000      0.0000
        15        -0.0000     -0.0000      0.4763      0.2269      0.2533
        16         0.0000      0.0000     -0.0000      0.0000      0.0000
        17         0.0000     -0.0000     -0.0000      0.0000      0.0000
        18         0.0000      0.0000     -0.0000      0.0000      0.0000
        19        -0.0000      0.0000      0.0000      0.0000      0.0000
        20        -0.2329     -0.2380     -0.0000      0.1109      0.1132
        21        -0.2380      0.2329     -0.0000      0.1109      0.1132
        22        -0.0000      0.0000      0.0000      0.0000      0.0000
        23        -0.0000      0.0000     -0.0000      0.0000      0.0000
        24         0.0000     -0.0000      0.0000      0.0000      0.0000
        25        -0.0000     -0.0000      0.0000      0.0000      0.0000
        26        -0.0000      0.0000     -0.0000      0.0000      0.0000
        27        -0.0000     -0.0000     -0.0000      0.0000      0.0000
        28        -0.0000     -0.0000     -0.1270      0.0161      0.0152
        29         0.0448     -0.1235     -0.0000      0.0173      0.0162
        30        -0.1235     -0.0448      0.0000      0.0173      0.0162
        31         0.0000      0.0000     -0.0000      0.0000      0.0000
        32         0.2204      0.1079     -0.0000      0.0602      0.0536
        33        -0.1079      0.2204     -0.0000      0.0602      0.0536
        34        -0.0000      0.0000      0.0000      0.0000      0.0000
        35         0.0000     -0.0000      0.0000      0.0000      0.0000
        36         0.0000     -0.0000      0.0000      0.0000      0.0000
        37        -0.0000      0.0000     -0.1143      0.0131      0.0113
        38        -0.0000      0.0000     -0.0000      0.0000      0.0000
        39         0.0000     -0.0000      0.0000      0.0000      0.0000
        40        -0.0000      0.0000     -0.0000      0.0000      0.0000
        41        -0.2584      0.0142     -0.0000      0.0669      0.0550
        42        -0.0142     -0.2584     -0.0000      0.0669      0.0550
        43        -0.0000     -0.0000      0.0000      0.0000      0.0000
        44        -0.0000      0.0000      0.0000      0.0000      0.0000
        45        -0.0000     -0.0000      0.0000      0.0000      0.0000
        46        -0.0000     -0.0000      0.0000      0.0000      0.0000
        47        -0.0000      0.0000     -0.0000      0.0000      0.0000
        48        -0.0000      0.0000     -0.0000      0.0000      0.0000
        49         0.0000     -0.0000      0.0000      0.0000      0.0000
        50         0.0000     -0.0000     -0.3969      0.1575      0.1061
        51        -0.0000     -0.0000     -0.0000      0.0000      0.0000
        52        -0.0000      0.0000     -0.0000      0.0000      0.0000
        53         0.0000      0.0000      0.0000      0.0000      0.0000
        54        -0.0003      0.0003      0.0000      0.0000      0.0000
        55        -0.0003     -0.0003      0.0000      0.0000      0.0000
        56        -0.9186      0.0527     -0.0000      0.8466      0.5468
        57         0.0527      0.9186      0.0000      0.8466      0.5468
        58        -0.0000     -0.0000     -0.0000      0.0000      0.0000
        59         0.0000      0.0000      0.0000      0.0000      0.0000
        60         0.0000     -0.0000     -1.4151      2.0024      1.2595
        61         0.2506     -0.0368      0.0000      0.0642      0.0394
        62         0.0368      0.2506     -0.0000      0.0642      0.0394
        63        -0.0014      0.0014     -0.0000      0.0000      0.0000
        64         0.0014      0.0014      0.0000      0.0000      0.0000
        65        -0.6754     -0.3137      0.0000      0.5546      0.3335
        66         0.3137     -0.6754      0.0000      0.5546      0.3335
        67         0.0000     -0.0000      0.0000      0.0000      0.0000
        68        -0.0000      0.0000     -0.0000      0.0000      0.0000
        69         0.0000      0.0000     -0.0000      0.0000      0.0000
        70         0.0000      0.0000      0.0000      0.0000      0.0000
        71        -0.0000     -0.0000     -0.0000      0.0000      0.0000
        72        -0.0000     -0.0000     -0.0000      0.0000      0.0000
        73         0.0000     -0.0000     -0.0000      0.0000      0.0000
        74         0.0000     -0.0000      0.0000      0.0000      0.0000
        75        -0.0000      0.0000      0.0000      0.0000      0.0000
        76        -0.9590     -0.0278     -0.0000      0.9205      0.5115
        77         0.0278     -0.9590      0.0000      0.9205      0.5115
        78         0.0000     -0.0000      0.0000      0.0000      0.0000
        79        -0.0000     -0.0000     -0.1705      0.0291      0.0160
        80         0.0000     -0.0000     -0.0000      0.0000      0.0000
        81         0.0000     -0.0000      0.3520      0.1239      0.0670
        82         0.0000     -0.0000      0.0000      0.0000      0.0000
        83        -0.0000     -0.0000     -0.0000      0.0000      0.0000
        84        -0.0000      0.0000      0.0000      0.0000      0.0000
        85         0.0000     -0.0000     -0.0000      0.0000      0.0000
        86        -0.0000     -0.0000      0.0000      0.0000      0.0000
        87        -0.0000      0.0000     -0.0000      0.0000      0.0000
        88         0.0000     -0.0000      0.0000      0.0000      0.0000
        89         0.0000      0.0000      0.0000      0.0000      0.0000
        90        -0.0000     -0.0000     -0.2581      0.0666      0.0352
        91         0.0000     -0.0000     -0.0000      0.0000      0.0000
        92         0.0000      0.0000      0.0000      0.0000      0.0000
        93         0.0000      0.0000      0.0000      0.0000      0.0000
        94         0.0000      0.0000      0.0793      0.0063      0.0032
        95        -0.0248      0.0556     -0.0000      0.0037      0.0019
        96         0.0556      0.0248     -0.0000      0.0037      0.0019
        97         0.0000     -0.0000      0.0000      0.0000      0.0000
        98        -0.0000      0.0000      0.0000      0.0000      0.0000
        99         0.2144      0.2219     -0.0000      0.0952      0.0480
       100         0.2219     -0.2144     -0.0000      0.0952      0.0480
       101        -0.0000      0.0000     -0.0000      0.0000      0.0000
       102        -0.0000      0.0000      0.0000      0.0000      0.0000
       103        -0.0000     -0.0000     -0.0000      0.0000      0.0000
       104        -0.0000      0.0000     -0.3588      0.1288      0.0627
       105         0.0000     -0.0000      0.0000      0.0000      0.0000
       106         0.0000     -0.0000     -0.0386      0.0015      0.0007
       107         0.0336      0.0068      0.0000      0.0012      0.0005
       108        -0.0068      0.0336     -0.0000      0.0012      0.0005
       109        -0.0000      0.0000      0.0000      0.0000      0.0000
       110         0.0000      0.0000      0.0000      0.0000      0.0000
       111        -0.0000     -0.0000     -0.0000      0.0000      0.0000
       112        -0.0000      0.0000     -0.0000      0.0000      0.0000
       113         0.0000      0.0000     -0.0000      0.0000      0.0000
       114        -0.0000      0.0000     -0.0000      0.0000      0.0000
       115        -0.0000     -0.0000     -0.0000      0.0000      0.0000
       116        -0.0000     -0.0000      0.0000      0.0000      0.0000
       117         0.0000     -0.0000     -0.0000      0.0000      0.0000
       118        -0.0000      0.0000     -0.0000      0.0000      0.0000
       119         0.0000     -0.0000     -0.0000      0.0000      0.0000
       120         0.0000      0.0000      0.0000      0.0000      0.0000
       121        -0.0000     -0.0000     -0.0000      0.0000      0.0000
       122         0.0000      0.0000      0.0000      0.0000      0.0000
       123         0.0000      0.0000      0.2747      0.0754      0.0283
       124        -0.2881      0.0117      0.0000      0.0831      0.0311
       125        -0.0117     -0.2881     -0.0000      0.0831      0.0311
       126        -0.0000     -0.0000      0.0000      0.0000      0.0000
       127        -0.0000     -0.0000      0.0000      0.0000      0.0000
       128         0.0000      0.0000      0.0000      0.0000      0.0000
       129        -0.0000      0.0000     -0.2937      0.0863      0.0315
       130         0.0000      0.0000     -0.0000      0.0000      0.0000
       131        -0.0000      0.0000     -0.0000      0.0000      0.0000
       132         0.0000      0.0000     -0.0000      0.0000      0.0000
       133        -0.0000     -0.0000      0.0000      0.0000      0.0000
       134        -0.0000     -0.0000      0.2077      0.0431      0.0154
       135         0.2148     -0.0067      0.0000      0.0462      0.0164
       136         0.0067      0.2148      0.0000      0.0462      0.0164
       137        -0.0000      0.0000     -0.0000      0.0000      0.0000
       138        -0.6825     -0.0032      0.0000      0.4658      0.1589
       139         0.0032     -0.6825      0.0000      0.4658      0.1589
       140        -0.4347     -0.0139     -0.0000      0.1891      0.0630
       141         0.0139     -0.4347     -0.0000      0.1891      0.0630
       142         0.0000     -0.0000     -0.0000      0.0000      0.0000
       143        -0.0000     -0.0000     -0.0000      0.0000      0.0000
       144        -0.0000     -0.0000      0.0000      0.0000      0.0000
       145         0.0000      0.0000     -0.0000      0.0000      0.0000
       146         0.0000     -0.0000     -0.0000      0.0000      0.0000
       147         0.0000      0.0000     -0.0000      0.0000      0.0000
       148         0.0000      0.0000     -0.0000      0.0000      0.0000
       149        -0.0000      0.0000     -0.0000      0.0000      0.0000
       150        -0.0552      0.0001     -0.0000      0.0030      0.0010
       151        -0.0001     -0.0552      0.0000      0.0030      0.0010
       152        -0.0000      0.0000      0.1216      0.0148      0.0047
       153        -0.0000     -0.0000      0.0000      0.0000      0.0000
       154         0.0000      0.0000      0.0000      0.0000      0.0000
       155        -0.0000     -0.0000      0.0000      0.0000      0.0000
       156         0.0000     -0.0000      0.0000      0.0000      0.0000
       157         0.0000      0.0000     -0.0000      0.0000      0.0000
       158        -0.0000      0.0000      0.0000      0.0000      0.0000
       159         0.0000     -0.0000      0.0000      0.0000      0.0000
       160         0.0000      0.0000     -0.0000      0.0000      0.0000
       161         0.0000     -0.0000      0.0000      0.0000      0.0000
       162         0.2489      0.0163     -0.0000      0.0622      0.0188
       163        -0.0163      0.2489      0.0000      0.0622      0.0188
       164         0.0000      0.0000      0.3844      0.1478      0.0444
       165         0.0000      0.0000      0.0000      0.0000      0.0000
       166        -0.0000     -0.0000      0.0000      0.0000      0.0000
       167         0.0000     -0.0000     -0.0000      0.0000      0.0000
       168         0.0000     -0.0000     -0.0000      0.0000      0.0000
       169        -0.0000     -0.0000      0.2366      0.0560      0.0157
       170        -0.0000     -0.0000     -0.0000      0.0000      0.0000
       171         0.1140     -0.6090      0.0000      0.3839      0.1012
       172        -0.6090     -0.1140     -0.0000      0.3839      0.1012
       173         0.0034      1.0295     -0.0000      1.0599      0.2722
       174         1.0295     -0.0034      0.0000      1.0599      0.2722
       175        -0.0000     -0.0000     -0.0081      0.0001      0.0000
       176         0.0000     -0.0000     -0.0000      0.0000      0.0000
       177         0.0000     -0.0000     -0.0000      0.0000      0.0000
       178         0.0000      0.0000      1.1207      1.2560      0.3084
       179         0.0033      0.5821      0.0000      0.3388      0.0815
       180         0.5821     -0.0033      0.0000      0.3388      0.0815
       181         0.0000     -0.0000     -0.0000      0.0000      0.0000
       182         0.0000     -0.0000      0.3393      0.1151      0.0273
       183        -0.0000      0.0000     -0.0000      0.0000      0.0000
       184        -0.0000     -0.0000     -0.0000      0.0000      0.0000
       185         0.0000      0.0000     -0.0000      0.0000      0.0000
       186        -0.0000      0.0000     -0.3807      0.1449      0.0315
       187        -0.0000     -0.0000      0.0000      0.0000      0.0000
       188         0.0000     -0.0000     -0.0000      0.0000      0.0000
       189        -0.0000     -0.0000      0.0000      0.0000      0.0000
       190        -0.0000     -0.0000     -0.0000      0.0000      0.0000
       191         0.0000     -0.0000      0.0000      0.0000      0.0000
       192         0.0000      0.0000      0.0000      0.0000      0.0000
       193         0.0000      0.0000     -0.0000      0.0000      0.0000
       194        -0.1112      0.1609     -0.0000      0.0383      0.0077
       195         0.1609      0.1112     -0.0000      0.0383      0.0077
       196        -0.0000     -0.0000     -0.0000      0.0000      0.0000
       197        -0.0000      0.0000      0.0000      0.0000      0.0000
       198         0.0000      0.0000     -1.9111      3.6522      0.7095
       199        -0.0000      0.0000     -0.0000      0.0000      0.0000
       200         0.0000     -0.0000      0.0000      0.0000      0.0000
       201         0.0000     -0.0000      0.0000      0.0000      0.0000
       202        -0.0000     -0.0000      0.0000      0.0000      0.0000
       203         0.0000     -0.0000     -0.4008      0.1606      0.0303
       204         0.0249     -0.0009     -0.0000      0.0006      0.0001
       205         0.0009      0.0249      0.0000      0.0006      0.0001
       206        -0.0001     -0.0001      0.0000      0.0000      0.0000
       207         0.0001     -0.0001     -0.0000      0.0000      0.0000
       208         0.0000      0.0000      0.0000      0.0000      0.0000
       209         0.0000     -0.0000      0.0000      0.0000      0.0000
       210         0.0000     -0.0000      0.0000      0.0000      0.0000
       211        -0.0000      0.0000     -0.0000      0.0000      0.0000
       212        -0.0000     -0.0000     -0.0000      0.0000      0.0000
       213        -0.4203     -0.6248     -0.0000      0.5670      0.1015
       214        -0.6248      0.4203      0.0000      0.5670      0.1015
       215         0.0006     -0.0003     -0.0000      0.0000      0.0000
       216        -0.0003     -0.0006      0.0000      0.0000      0.0000
       217         0.0000      0.0000      0.0000      0.0000      0.0000
       218         0.0000     -0.0000     -0.0000      0.0000      0.0000
       219        -0.0000      0.0000      0.0000      0.0000      0.0000
       220         0.0000      0.0000      0.0000      0.0000      0.0000
       221        -0.0000      0.0000     -0.0000      0.0000      0.0000
       222         0.0000      0.0000      0.0000      0.0000      0.0000
       223         0.0000     -0.0000      0.0000      0.0000      0.0000
       224         0.0000      0.0000      0.0000      0.0000      0.0000
       225         0.0000     -0.0000     -0.0000      0.0000      0.0000
       226         1.0969      2.7662      0.0000      8.8550      1.5193
       227        -2.7662      1.0969     -0.0000      8.8550      1.5193
       228         0.0000     -0.0000     -0.1444      0.0209      0.0036
       229         0.0000     -0.0000      0.0000      0.0000      0.0000
       230        -0.0000      0.0000     -0.0000      0.0000      0.0000
       231         0.0000     -0.0000     -0.0000      0.0000      0.0000
       232        -0.0000      0.0000     -0.0000      0.0000      0.0000
       233         0.0000      0.0000     -1.7667      3.1214      0.5150
       234         0.0000      0.0000     -0.0000      0.0000      0.0000
       235        -0.0000      0.0000      0.0000      0.0000      0.0000
       236        -0.0000      0.0000     -0.0000      0.0000      0.0000
       237        -0.0000      0.0000      0.0000      0.0000      0.0000
       238        -0.0000      0.0000      0.0000      0.0000      0.0000
       239        -0.0000     -0.0000     -0.0000      0.0000      0.0000
       240        -0.0000      0.0000      0.0000      0.0000      0.0000
       241        -0.0000     -0.0000      0.0000      0.0000      0.0000
       242        -0.0000      0.0000     -0.0000      0.0000      0.0000
       243         0.0223     -0.4969     -0.0000      0.2474      0.0378
       244        -0.4969     -0.0223     -0.0000      0.2474      0.0378
       245        -0.0881      0.1639     -0.0000      0.0346      0.0051
       246         0.1639      0.0881     -0.0000      0.0346      0.0051
       247        -0.0000      0.0000      0.0000      0.0000      0.0000
       248         0.0000     -0.0000      0.0000      0.0000      0.0000
       249        -0.0000      0.0000      0.0000      0.0000      0.0000
       250        -0.0000      0.0000      0.0000      0.0000      0.0000
       251        -0.0000      0.0000     -0.0000      0.0000      0.0000
       252        -0.0000     -0.0000     -0.0000      0.0000      0.0000
       253         0.7571      0.1970     -0.0000      0.6120      0.0848
       254        -0.1970      0.7571      0.0000      0.6120      0.0848
       255        -0.0000     -0.0000      0.0000      0.0000      0.0000
       256         0.0000      0.0000     -0.0000      0.0000      0.0000
       257        -0.0000     -0.0000     -1.3398      1.7952      0.2374
       258         0.0000      0.0000      0.0000      0.0000      0.0000
       259        -0.0000      0.0000     -0.3749      0.1405      0.0162
 Ground to excited state transition magnetic dipole moments (Au):
       state          X           Y           Z
         1         0.0000     -0.0000      0.0000
         2        -0.0000     -0.0000      0.0000
         3         1.0043      0.1795     -0.0000
         4         0.1795     -1.0043     -0.0000
         5         0.4929     -0.3799      0.0000
         6        -0.3799     -0.4929     -0.0000
         7        -0.0000     -0.0000      0.0000
         8         0.0000      0.0000     -0.0000
         9         0.0000      0.0000      0.0000
        10        -0.0000      0.0000      0.0000
        11        -0.0000     -0.0000     -0.0000
        12        -0.0000      0.0000     -0.0000
        13        -0.0017      0.5119     -0.0000
        14        -0.5119     -0.0017     -0.0000
        15        -0.0000      0.0000     -0.0000
        16         0.0000     -0.0000     -0.0000
        17         0.0000      0.0000      0.0000
        18         0.0000     -0.0000     -0.0000
        19        -0.0000     -0.0000      0.0000
        20         0.0000      0.0000     -0.0000
        21         0.0000     -0.0000      0.0000
        22         0.0058      0.2364      0.0000
        23        -0.2364      0.0058     -0.0000
        24         0.0000     -0.0000     -0.0000
        25        -0.0000     -0.0000      0.0000
        26         0.0000      0.0000      0.0000
        27         0.0000     -0.0000     -0.0000
        28        -0.0000     -0.0000     -0.0000
        29         0.0000      0.0000     -0.0000
        30        -0.0000     -0.0000     -0.0000
        31         0.0000     -0.0000      0.0000
        32         0.0000     -0.0000      0.0000
        33         0.0000      0.0000      0.0000
        34         0.0000      0.0000      0.0000
[...]
      8   0.000000D+00  0.000000D+00 -0.162448D+00 -0.437130D+00  0.000000D+00
      9   0.000000D+00  0.000000D+00  0.437130D+00 -0.162448D+00  0.000000D+00
     10   0.000000D+00  0.000000D+00  0.000000D+00  0.000000D+00  0.000000D+00
     11   0.000000D+00 -0.958612D+00  0.000000D+00  0.000000D+00  0.107107D+01
     12   0.000000D+00 -0.958612D+00  0.000000D+00  0.000000D+00  0.107107D+01
     13   0.000000D+00  0.896045D+00  0.000000D+00  0.000000D+00 -0.175890D+01
     14   0.000000D+00  0.000000D+00  0.000000D+00  0.000000D+00  0.000000D+00
     15   0.000000D+00  0.000000D+00  0.283419D+00 -0.105326D+00  0.000000D+00
     16   0.000000D+00  0.000000D+00  0.105326D+00  0.283419D+00  0.000000D+00
               191           192           193           194           195 
      1  -0.195998D+03 -0.195970D+03 -0.195970D+03 -0.195964D+03 -0.195964D+03
      2   0.000000D+00  0.000000D+00  0.000000D+00  0.441087D-01 -0.637994D-01
      3   0.000000D+00  0.000000D+00  0.000000D+00 -0.637994D-01 -0.441087D-01
      4   0.000000D+00  0.000000D+00  0.000000D+00  0.000000D+00  0.000000D+00
      5   0.000000D+00  0.000000D+00  0.000000D+00 -0.111246D+00  0.160907D+00
      6   0.000000D+00  0.000000D+00  0.000000D+00  0.160907D+00  0.111246D+00
      7   0.000000D+00  0.000000D+00  0.000000D+00  0.000000D+00  0.000000D+00
      8   0.000000D+00  0.000000D+00  0.000000D+00  0.000000D+00  0.000000D+00
      9   0.000000D+00  0.000000D+00  0.000000D+00  0.000000D+00  0.000000D+00
     10   0.000000D+00  0.000000D+00  0.000000D+00  0.000000D+00  0.000000D+00
     11   0.000000D+00  0.000000D+00  0.000000D+00  0.000000D+00  0.000000D+00
     12   0.000000D+00  0.000000D+00  0.000000D+00  0.000000D+00  0.000000D+00
     13   0.000000D+00  0.000000D+00  0.000000D+00  0.000000D+00  0.000000D+00
     14   0.000000D+00  0.000000D+00  0.000000D+00  0.000000D+00  0.000000D+00
     15   0.000000D+00  0.000000D+00  0.000000D+00  0.000000D+00  0.000000D+00
     16   0.000000D+00  0.000000D+00  0.000000D+00  0.000000D+00  0.000000D+00
               196           197           198           199           200 
      1  -0.195877D+03 -0.195861D+03 -0.195852D+03 -0.195825D+03 -0.195825D+03
      2   0.000000D+00  0.000000D+00  0.000000D+00  0.000000D+00  0.000000D+00
      3   0.000000D+00  0.000000D+00  0.000000D+00  0.000000D+00  0.000000D+00
      4   0.000000D+00  0.000000D+00  0.638510D+00  0.000000D+00  0.000000D+00
      5   0.000000D+00  0.000000D+00  0.000000D+00  0.000000D+00  0.000000D+00
      6   0.000000D+00  0.000000D+00  0.000000D+00  0.000000D+00  0.000000D+00
      7   0.000000D+00  0.000000D+00 -0.191108D+01  0.000000D+00  0.000000D+00
      8   0.000000D+00  0.000000D+00  0.000000D+00  0.000000D+00  0.000000D+00
      9   0.000000D+00  0.000000D+00  0.000000D+00  0.000000D+00  0.000000D+00
     10   0.000000D+00  0.000000D+00  0.000000D+00  0.000000D+00  0.000000D+00
     11   0.693926D-01  0.000000D+00  0.000000D+00  0.000000D+00 -0.102832D+00
     12   0.693926D-01  0.000000D+00  0.000000D+00  0.000000D+00  0.102832D+00
     13  -0.113831D+01  0.000000D+00  0.000000D+00  0.000000D+00  0.000000D+00
     14   0.000000D+00  0.000000D+00  0.000000D+00 -0.102767D+00  0.000000D+00
     15   0.000000D+00  0.000000D+00  0.000000D+00  0.000000D+00  0.000000D+00
     16   0.000000D+00  0.000000D+00  0.000000D+00  0.000000D+00  0.000000D+00
               201           202           203           204           205 
      1  -0.195783D+03 -0.195783D+03 -0.195752D+03 -0.195752D+03 -0.195752D+03
      2   0.000000D+00  0.000000D+00  0.000000D+00  0.929626D-02  0.325837D-03
      3   0.000000D+00  0.000000D+00  0.000000D+00 -0.325837D-03  0.929626D-02
      4   0.000000D+00  0.000000D+00  0.888853D-01  0.000000D+00  0.000000D+00
      5   0.000000D+00  0.000000D+00  0.000000D+00  0.249009D-01  0.872787D-03
      6   0.000000D+00  0.000000D+00  0.000000D+00 -0.872787D-03  0.249009D-01
      7   0.000000D+00  0.000000D+00 -0.400787D+00  0.000000D+00  0.000000D+00
      8   0.341622D-03 -0.900257D-04  0.000000D+00  0.000000D+00  0.000000D+00
      9  -0.900257D-04 -0.341622D-03  0.000000D+00  0.000000D+00  0.000000D+00
     10   0.000000D+00  0.000000D+00  0.000000D+00  0.000000D+00  0.000000D+00
     11   0.000000D+00  0.000000D+00  0.000000D+00  0.000000D+00  0.000000D+00
     12   0.000000D+00  0.000000D+00  0.000000D+00  0.000000D+00  0.000000D+00
     13   0.000000D+00  0.000000D+00  0.000000D+00  0.000000D+00  0.000000D+00
     14   0.000000D+00  0.000000D+00  0.000000D+00  0.000000D+00  0.000000D+00
     15  -0.755929D-04 -0.286853D-03  0.000000D+00  0.000000D+00  0.000000D+00
     16  -0.286853D-03  0.755929D-04  0.000000D+00  0.000000D+00  0.000000D+00
               206           207           208           209           210 
      1  -0.195744D+03 -0.195744D+03 -0.195655D+03 -0.195647D+03 -0.195647D+03
      2   0.325084D-04 -0.286650D-04  0.000000D+00  0.000000D+00  0.000000D+00
      3   0.286650D-04  0.325084D-04  0.000000D+00  0.000000D+00  0.000000D+00
      4   0.000000D+00  0.000000D+00  0.000000D+00  0.000000D+00  0.000000D+00
      5  -0.116111D-03  0.102383D-03  0.000000D+00  0.000000D+00  0.000000D+00
      6  -0.102383D-03 -0.116111D-03  0.000000D+00  0.000000D+00  0.000000D+00
      7   0.000000D+00  0.000000D+00  0.000000D+00  0.000000D+00  0.000000D+00
      8   0.000000D+00  0.000000D+00  0.000000D+00 -0.199979D+01  0.919059D+00
      9   0.000000D+00  0.000000D+00  0.000000D+00 -0.919059D+00 -0.199979D+01
     10   0.000000D+00  0.000000D+00  0.000000D+00  0.000000D+00  0.000000D+00
     11   0.000000D+00  0.000000D+00 -0.406516D+00  0.000000D+00  0.000000D+00
     12   0.000000D+00  0.000000D+00 -0.406516D+00  0.000000D+00  0.000000D+00
     13   0.000000D+00  0.000000D+00 -0.388559D+01  0.000000D+00  0.000000D+00
     14   0.000000D+00  0.000000D+00  0.000000D+00  0.000000D+00  0.000000D+00
     15   0.000000D+00  0.000000D+00  0.000000D+00 -0.824170D+00 -0.179332D+01
     16   0.000000D+00  0.000000D+00  0.000000D+00  0.179332D+01 -0.824170D+00
               211           212           213           214           215 
      1  -0.195579D+03 -0.195579D+03 -0.195560D+03 -0.195560D+03 -0.195546D+03
      2   0.000000D+00  0.000000D+00  0.121794D+00  0.181027D+00 -0.164060D-03
      3   0.000000D+00  0.000000D+00  0.181027D+00 -0.121794D+00  0.998193D-04
      4   0.000000D+00  0.000000D+00  0.000000D+00  0.000000D+00  0.000000D+00
      5   0.000000D+00  0.000000D+00 -0.420330D+00 -0.624753D+00  0.565990D-03
      6   0.000000D+00  0.000000D+00 -0.624753D+00  0.420330D+00 -0.344365D-03
      7   0.000000D+00  0.000000D+00  0.000000D+00  0.000000D+00  0.000000D+00
      8   0.000000D+00  0.000000D+00  0.000000D+00  0.000000D+00  0.000000D+00
      9   0.000000D+00  0.000000D+00  0.000000D+00  0.000000D+00  0.000000D+00
     10   0.000000D+00  0.000000D+00  0.000000D+00  0.000000D+00  0.000000D+00
     11   0.000000D+00 -0.263338D+00  0.000000D+00  0.000000D+00  0.000000D+00
     12   0.000000D+00  0.263338D+00  0.000000D+00  0.000000D+00  0.000000D+00
     13   0.000000D+00  0.000000D+00  0.000000D+00  0.000000D+00  0.000000D+00
     14  -0.263291D+00  0.000000D+00  0.000000D+00  0.000000D+00  0.000000D+00
     15   0.000000D+00  0.000000D+00  0.000000D+00  0.000000D+00  0.000000D+00
     16   0.000000D+00  0.000000D+00  0.000000D+00  0.000000D+00  0.000000D+00
               216           217           218           219           220 
      1  -0.195546D+03 -0.195519D+03 -0.195519D+03 -0.195506D+03 -0.195506D+03
      2   0.998193D-04  0.000000D+00  0.000000D+00  0.000000D+00  0.000000D+00
      3   0.164060D-03  0.000000D+00  0.000000D+00  0.000000D+00  0.000000D+00
      4   0.000000D+00  0.000000D+00  0.000000D+00  0.000000D+00  0.000000D+00
      5  -0.344365D-03  0.000000D+00  0.000000D+00  0.000000D+00  0.000000D+00
      6  -0.565990D-03  0.000000D+00  0.000000D+00  0.000000D+00  0.000000D+00
      7   0.000000D+00  0.000000D+00  0.000000D+00  0.000000D+00  0.000000D+00
      8   0.000000D+00  0.000000D+00  0.000000D+00  0.378830D-03 -0.739161D-04
      9   0.000000D+00  0.000000D+00  0.000000D+00 -0.739161D-04 -0.378830D-03
     10   0.000000D+00  0.000000D+00  0.000000D+00  0.000000D+00  0.000000D+00
     11   0.000000D+00  0.000000D+00  0.000000D+00  0.000000D+00  0.000000D+00
     12   0.000000D+00  0.000000D+00  0.000000D+00  0.000000D+00  0.000000D+00
     13   0.000000D+00  0.000000D+00  0.000000D+00  0.000000D+00  0.000000D+00
     14   0.000000D+00  0.000000D+00  0.000000D+00  0.000000D+00  0.000000D+00
     15   0.000000D+00  0.000000D+00  0.000000D+00 -0.617653D-04 -0.316556D-03
     16   0.000000D+00  0.000000D+00  0.000000D+00 -0.316556D-03  0.617653D-04
               221           222           223           224           225 
      1  -0.195492D+03 -0.195479D+03 -0.195479D+03 -0.195460D+03 -0.195460D+03
      2   0.000000D+00  0.000000D+00  0.000000D+00  0.000000D+00  0.000000D+00
      3   0.000000D+00  0.000000D+00  0.000000D+00  0.000000D+00  0.000000D+00
      4   0.000000D+00  0.000000D+00  0.000000D+00  0.000000D+00  0.000000D+00
      5   0.000000D+00  0.000000D+00  0.000000D+00  0.000000D+00  0.000000D+00
      6   0.000000D+00  0.000000D+00  0.000000D+00  0.000000D+00  0.000000D+00
      7   0.000000D+00  0.000000D+00  0.000000D+00  0.000000D+00  0.000000D+00
      8   0.000000D+00  0.000000D+00  0.000000D+00 -0.868763D+00 -0.131982D+01
      9   0.000000D+00  0.000000D+00  0.000000D+00 -0.131982D+01  0.868763D+00
     10   0.000000D+00  0.000000D+00  0.000000D+00  0.000000D+00  0.000000D+00
     11   0.000000D+00  0.000000D+00 -0.992438D-01  0.000000D+00  0.000000D+00
     12   0.000000D+00  0.000000D+00  0.992438D-01  0.000000D+00  0.000000D+00
     13   0.000000D+00  0.000000D+00  0.000000D+00  0.000000D+00  0.000000D+00
     14   0.000000D+00  0.993067D-01  0.000000D+00  0.000000D+00  0.000000D+00
     15   0.000000D+00  0.000000D+00  0.000000D+00 -0.111942D+01  0.736850D+00
     16   0.000000D+00  0.000000D+00  0.000000D+00  0.736850D+00  0.111942D+01
               226           227           228           229           230 
      1  -0.195399D+03 -0.195399D+03 -0.195373D+03 -0.195354D+03 -0.195337D+03
      2  -0.319552D+00  0.805891D+00  0.000000D+00  0.000000D+00  0.000000D+00
      3  -0.805891D+00 -0.319552D+00  0.000000D+00  0.000000D+00  0.000000D+00
      4   0.000000D+00  0.000000D+00  0.501465D-01  0.000000D+00  0.000000D+00
      5   0.109686D+01 -0.276620D+01  0.000000D+00  0.000000D+00  0.000000D+00
      6   0.276620D+01  0.109686D+01  0.000000D+00  0.000000D+00  0.000000D+00
      7   0.000000D+00  0.000000D+00 -0.144410D+00  0.000000D+00  0.000000D+00
      8   0.000000D+00  0.000000D+00  0.000000D+00  0.000000D+00  0.000000D+00
      9   0.000000D+00  0.000000D+00  0.000000D+00  0.000000D+00  0.000000D+00
     10   0.000000D+00  0.000000D+00  0.000000D+00  0.000000D+00  0.000000D+00
     11   0.000000D+00  0.000000D+00  0.000000D+00  0.000000D+00  0.000000D+00
     12   0.000000D+00  0.000000D+00  0.000000D+00  0.000000D+00  0.000000D+00
     13   0.000000D+00  0.000000D+00  0.000000D+00  0.000000D+00  0.000000D+00
     14   0.000000D+00  0.000000D+00  0.000000D+00  0.000000D+00  0.000000D+00
     15   0.000000D+00  0.000000D+00  0.000000D+00  0.000000D+00  0.000000D+00
     16   0.000000D+00  0.000000D+00  0.000000D+00  0.000000D+00  0.000000D+00
               231           232           233           234           235 
      1  -0.195337D+03 -0.195321D+03 -0.195244D+03 -0.195231D+03 -0.195231D+03
      2   0.000000D+00  0.000000D+00  0.000000D+00  0.000000D+00  0.000000D+00
      3   0.000000D+00  0.000000D+00  0.000000D+00  0.000000D+00  0.000000D+00
      4   0.000000D+00  0.000000D+00  0.451149D+00  0.000000D+00  0.000000D+00
      5   0.000000D+00  0.000000D+00  0.000000D+00  0.000000D+00  0.000000D+00
      6   0.000000D+00  0.000000D+00  0.000000D+00  0.000000D+00  0.000000D+00
      7   0.000000D+00  0.000000D+00 -0.176675D+01  0.000000D+00  0.000000D+00
      8   0.000000D+00  0.000000D+00  0.000000D+00  0.273985D+00 -0.187191D+01
      9   0.000000D+00  0.000000D+00  0.000000D+00  0.187191D+01  0.273985D+00
     10   0.000000D+00  0.000000D+00  0.000000D+00  0.000000D+00  0.000000D+00
     11   0.000000D+00  0.222559D+00  0.000000D+00  0.000000D+00  0.000000D+00
     12   0.000000D+00  0.222559D+00  0.000000D+00  0.000000D+00  0.000000D+00
     13   0.000000D+00 -0.727432D+01  0.000000D+00  0.000000D+00  0.000000D+00
     14   0.000000D+00  0.000000D+00  0.000000D+00  0.000000D+00  0.000000D+00
     15   0.000000D+00  0.000000D+00  0.000000D+00  0.287028D+01  0.420113D+00
     16   0.000000D+00  0.000000D+00  0.000000D+00 -0.420113D+00  0.287028D+01
               236           237           238           239           240 
      1  -0.195193D+03 -0.195193D+03 -0.195075D+03 -0.195020D+03 -0.195020D+03
      2   0.000000D+00  0.000000D+00  0.000000D+00  0.000000D+00  0.000000D+00
      3   0.000000D+00  0.000000D+00  0.000000D+00  0.000000D+00  0.000000D+00
      4   0.000000D+00  0.000000D+00  0.000000D+00  0.000000D+00  0.000000D+00
      5   0.000000D+00  0.000000D+00  0.000000D+00  0.000000D+00  0.000000D+00
      6   0.000000D+00  0.000000D+00  0.000000D+00  0.000000D+00  0.000000D+00
      7   0.000000D+00  0.000000D+00  0.000000D+00  0.000000D+00  0.000000D+00
      8   0.214443D+00  0.196539D+01  0.000000D+00  0.000000D+00  0.000000D+00
      9  -0.196539D+01  0.214443D+00  0.000000D+00  0.000000D+00  0.000000D+00
     10   0.000000D+00  0.000000D+00  0.000000D+00  0.000000D+00  0.000000D+00
     11   0.000000D+00  0.000000D+00 -0.436464D+00  0.000000D+00  0.000000D+00
     12   0.000000D+00  0.000000D+00 -0.436464D+00  0.000000D+00  0.000000D+00
     13   0.000000D+00  0.000000D+00 -0.101635D+01  0.000000D+00  0.000000D+00
     14   0.000000D+00  0.000000D+00  0.000000D+00  0.000000D+00  0.000000D+00
     15  -0.188542D+01  0.205718D+00  0.000000D+00  0.000000D+00  0.000000D+00
     16  -0.205718D+00 -0.188542D+01  0.000000D+00  0.000000D+00  0.000000D+00
               241           242           243           244           245 
      1  -0.194961D+03 -0.194961D+03 -0.194925D+03 -0.194925D+03 -0.194747D+03
      2   0.000000D+00  0.000000D+00 -0.609099D-02  0.135831D+00  0.219363D-01
      3   0.000000D+00  0.000000D+00  0.135831D+00  0.609099D-02 -0.408031D-01
      4   0.000000D+00  0.000000D+00  0.000000D+00  0.000000D+00  0.000000D+00
      5   0.000000D+00  0.000000D+00  0.222817D-01 -0.496890D+00 -0.881165D-01
      6   0.000000D+00  0.000000D+00 -0.496890D+00 -0.222817D-01  0.163903D+00
      7   0.000000D+00  0.000000D+00  0.000000D+00  0.000000D+00  0.000000D+00
      8   0.000000D+00  0.000000D+00  0.000000D+00  0.000000D+00  0.000000D+00
      9   0.000000D+00  0.000000D+00  0.000000D+00  0.000000D+00  0.000000D+00
     10   0.000000D+00  0.000000D+00  0.000000D+00  0.000000D+00  0.000000D+00
     11   0.000000D+00  0.101885D+01  0.000000D+00  0.000000D+00  0.000000D+00
     12   0.000000D+00 -0.101885D+01  0.000000D+00  0.000000D+00  0.000000D+00
     13   0.000000D+00  0.000000D+00  0.000000D+00  0.000000D+00  0.000000D+00
     14   0.101887D+01  0.000000D+00  0.000000D+00  0.000000D+00  0.000000D+00
     15   0.000000D+00  0.000000D+00  0.000000D+00  0.000000D+00  0.000000D+00
     16   0.000000D+00  0.000000D+00  0.000000D+00  0.000000D+00  0.000000D+00
               246           247           248           249           250 
      1  -0.194747D+03 -0.194730D+03 -0.194730D+03 -0.194675D+03 -0.194675D+03
      2  -0.408031D-01  0.000000D+00  0.000000D+00  0.000000D+00  0.000000D+00
      3  -0.219363D-01  0.000000D+00  0.000000D+00  0.000000D+00  0.000000D+00
      4   0.000000D+00  0.000000D+00  0.000000D+00  0.000000D+00  0.000000D+00
      5   0.163903D+00  0.000000D+00  0.000000D+00  0.000000D+00  0.000000D+00
      6   0.881165D-01  0.000000D+00  0.000000D+00  0.000000D+00  0.000000D+00
      7   0.000000D+00  0.000000D+00  0.000000D+00  0.000000D+00  0.000000D+00
      8   0.000000D+00  0.000000D+00  0.000000D+00  0.000000D+00  0.000000D+00
      9   0.000000D+00  0.000000D+00  0.000000D+00  0.000000D+00  0.000000D+00
     10   0.000000D+00  0.000000D+00  0.000000D+00  0.000000D+00  0.000000D+00
     11   0.000000D+00  0.000000D+00  0.587400D+00  0.000000D+00  0.000000D+00
     12   0.000000D+00  0.000000D+00 -0.587400D+00  0.000000D+00  0.000000D+00
     13   0.000000D+00  0.000000D+00  0.000000D+00  0.000000D+00  0.000000D+00
     14   0.000000D+00  0.587383D+00  0.000000D+00  0.000000D+00  0.000000D+00
     15   0.000000D+00  0.000000D+00  0.000000D+00  0.000000D+00  0.000000D+00
     16   0.000000D+00  0.000000D+00  0.000000D+00  0.000000D+00  0.000000D+00
               251           252           253           254           255 
      1  -0.194481D+03 -0.194481D+03 -0.194471D+03 -0.194471D+03 -0.194331D+03
      2   0.000000D+00  0.000000D+00 -0.176398D+00  0.458987D-01  0.000000D+00
      3   0.000000D+00  0.000000D+00 -0.458987D-01 -0.176398D+00  0.000000D+00
      4   0.000000D+00  0.000000D+00  0.000000D+00  0.000000D+00  0.000000D+00
      5   0.000000D+00  0.000000D+00  0.757099D+00 -0.196997D+00  0.000000D+00
      6   0.000000D+00  0.000000D+00  0.196997D+00  0.757099D+00  0.000000D+00
      7   0.000000D+00  0.000000D+00  0.000000D+00  0.000000D+00  0.000000D+00
      8   0.316017D+00 -0.197313D+00  0.000000D+00  0.000000D+00 -0.768384D+00
      9  -0.197313D+00 -0.316017D+00  0.000000D+00  0.000000D+00  0.211390D+00
     10   0.000000D+00  0.000000D+00  0.000000D+00  0.000000D+00  0.000000D+00
     11   0.000000D+00  0.000000D+00  0.000000D+00  0.000000D+00  0.000000D+00
     12   0.000000D+00  0.000000D+00  0.000000D+00  0.000000D+00  0.000000D+00
     13   0.000000D+00  0.000000D+00  0.000000D+00  0.000000D+00  0.000000D+00
     14   0.000000D+00  0.000000D+00  0.000000D+00  0.000000D+00  0.000000D+00
     15   0.896402D-01  0.143567D+00  0.000000D+00  0.000000D+00  0.305808D+00
     16   0.143567D+00 -0.896402D-01  0.000000D+00  0.000000D+00  0.111158D+01
               256           257           258           259 
      1  -0.194331D+03 -0.194243D+03 -0.193746D+03 -0.193492D+03
      2   0.000000D+00  0.000000D+00  0.000000D+00  0.000000D+00
      3   0.000000D+00  0.000000D+00  0.000000D+00  0.000000D+00
      4   0.000000D+00  0.246658D+00  0.000000D+00  0.421852D-01
      5   0.000000D+00  0.000000D+00  0.000000D+00  0.000000D+00
      6   0.000000D+00  0.000000D+00  0.000000D+00  0.000000D+00
      7   0.000000D+00 -0.133984D+01  0.000000D+00 -0.374881D+00
      8   0.211390D+00  0.000000D+00  0.000000D+00  0.000000D+00
      9   0.768384D+00  0.000000D+00  0.000000D+00  0.000000D+00
     10   0.000000D+00  0.000000D+00  0.000000D+00  0.000000D+00
     11   0.000000D+00  0.000000D+00 -0.153006D+00  0.000000D+00
     12   0.000000D+00  0.000000D+00 -0.153006D+00  0.000000D+00
     13   0.000000D+00  0.000000D+00  0.620201D+00  0.000000D+00
     14   0.000000D+00  0.000000D+00  0.000000D+00  0.000000D+00
     15   0.111158D+01  0.000000D+00  0.000000D+00  0.000000D+00
     16  -0.305808D+00  0.000000D+00  0.000000D+00  0.000000D+00
 Unable to Open any file for archive entry.
 1\1\GINC-HEL22\SP\RM062X TD-FC\Gen\F2\SABYASACHI\21-Mar-2022\0\\#P TD(
 Nstates=10000) m062x/Gen SCF(maxcycles=100) Int(Grid=ultrafine)\\xGDB7
 _00001_tier4.com\\0,1\F,0,0.,0.,0.688193\F,0,0.,0.,-0.688193\\Version=
 EM64L-G16RevC.01\State=1-SGG\HF=-199.2840829\RMSD=3.931e-09\PG=D*H [C*
 (F1.F1)]\\@
 The archive entry for this job was punched.


 TO DRY ONE'S EYES AND LAUGH AT A FALL
 AND BAFFLED, GET UP AND BEGIN AGAIN.
           R. BROWNING
 Job cpu time:       0 days  0 hours  0 minutes 27.2 seconds.
 Elapsed time:       0 days  0 hours  0 minutes  3.7 seconds.
 File lengths (MBytes):  RWF=     87 Int=      0 D2E=      0 Chk=     16 Scr=      1
 Normal termination of Gaussian 16 at Mon Mar 21 20:10:18 2022.
