 Entering Gaussian System, Link 0=g16
 Input=000015.com
 Output=000015.log
 Initial command:
 /home/sabyasachi/g16/l1.exe "/scratch/sabyasachi/PBS_7976116.helios/Gau-106161.inp" -scrdir="/scratch/sabyasachi/PBS_7976116.helios/"
 Entering Link 1 = /home/sabyasachi/g16/l1.exe PID=    106162.
  
 Copyright (c) 1988-2019, Gaussian, Inc.  All Rights Reserved.
  
 This is part of the Gaussian(R) 16 program.  It is based on
 the Gaussian(R) 09 system (copyright 2009, Gaussian, Inc.),
 the Gaussian(R) 03 system (copyright 2003, Gaussian, Inc.),
 the Gaussian(R) 98 system (copyright 1998, Gaussian, Inc.),
 the Gaussian(R) 94 system (copyright 1995, Gaussian, Inc.),
 the Gaussian 92(TM) system (copyright 1992, Gaussian, Inc.),
 the Gaussian 90(TM) system (copyright 1990, Gaussian, Inc.),
 the Gaussian 88(TM) system (copyright 1988, Gaussian, Inc.),
 the Gaussian 86(TM) system (copyright 1986, Carnegie Mellon
 University), and the Gaussian 82(TM) system (copyright 1983,
 Carnegie Mellon University). Gaussian is a federally registered
 trademark of Gaussian, Inc.
  
 This software contains proprietary and confidential information,
 including trade secrets, belonging to Gaussian, Inc.
  
 This software is provided under written license and may be
 used, copied, transmitted, or stored only in accord with that
 written license.
  
 The following legend is applicable only to US Government
 contracts under FAR:
  
                    RESTRICTED RIGHTS LEGEND
  
 Use, reproduction and disclosure by the US Government is
 subject to restrictions as set forth in subparagraphs (a)
 and (c) of the Commercial Computer Software - Restricted
 Rights clause in FAR 52.227-19.
  
 Gaussian, Inc.
 340 Quinnipiac St., Bldg. 40, Wallingford CT 06492
  
  
 ---------------------------------------------------------------
 Warning -- This program may not be used in any manner that
 competes with the business of Gaussian, Inc. or will provide
 assistance to any competitor of Gaussian, Inc.  The licensee
 of this program is prohibited from giving any competitor of
 Gaussian, Inc. access to this program.  By using this program,
 the user acknowledges that Gaussian, Inc. is engaged in the
 business of creating and licensing software in the field of
 computational chemistry and represents and warrants to the
 licensee that it is not a competitor of Gaussian, Inc. and that
 it will not use this program in any manner prohibited above.
 ---------------------------------------------------------------
  

 Cite this work as:
 Gaussian 16, Revision C.01,
 M. J. Frisch, G. W. Trucks, H. B. Schlegel, G. E. Scuseria, 
 M. A. Robb, J. R. Cheeseman, G. Scalmani, V. Barone, 
 G. A. Petersson, H. Nakatsuji, X. Li, M. Caricato, A. V. Marenich, 
 J. Bloino, B. G. Janesko, R. Gomperts, B. Mennucci, H. P. Hratchian, 
 J. V. Ortiz, A. F. Izmaylov, J. L. Sonnenberg, D. Williams-Young, 
 F. Ding, F. Lipparini, F. Egidi, J. Goings, B. Peng, A. Petrone, 
 T. Henderson, D. Ranasinghe, V. G. Zakrzewski, J. Gao, N. Rega, 
 G. Zheng, W. Liang, M. Hada, M. Ehara, K. Toyota, R. Fukuda, 
 J. Hasegawa, M. Ishida, T. Nakajima, Y. Honda, O. Kitao, H. Nakai, 
 T. Vreven, K. Throssell, J. A. Montgomery, Jr., J. E. Peralta, 
 F. Ogliaro, M. J. Bearpark, J. J. Heyd, E. N. Brothers, K. N. Kudin, 
 V. N. Staroverov, T. A. Keith, R. Kobayashi, J. Normand, 
 K. Raghavachari, A. P. Rendell, J. C. Burant, S. S. Iyengar, 
 J. Tomasi, M. Cossi, J. M. Millam, M. Klene, C. Adamo, R. Cammi, 
 J. W. Ochterski, R. L. Martin, K. Morokuma, O. Farkas, 
 J. B. Foresman, and D. J. Fox, Gaussian, Inc., Wallingford CT, 2019.
 
 ******************************************
 Gaussian 16:  EM64L-G16RevC.01  3-Jul-2019
                21-Mar-2022 
 ******************************************
 %mem=64gb
 %nproc=8
 Will use up to    8 processors via shared memory.
 ---------------------------------------------------------------------
 #P TD(Nstates=10000) m062x/Gen SCF(maxcycles=100) Int(Grid=ultrafine)
 ---------------------------------------------------------------------
 1/38=1,172=1/1;
 2/12=2,17=6,18=5,40=1/2;
 3/5=7,11=9,25=1,30=1,74=-55,75=-5/1,2,3,8;
 4//1;
 5/5=2,7=100,38=5/2;
 8/6=1,10=1,108=10000/1;
 9/41=10000,42=1,70=2/14;
 6/7=2,8=2,9=2,10=2/1;
 99/5=1,9=1/99;
 Leave Link    1 at Mon Mar 21 04:04:39 2022, MaxMem=  8589934592 cpu:               0.4 elap:               0.1
 (Enter /home/sabyasachi/g16/l101.exe)
 ---------------------
 xGDB7_00001_tier4.com
 ---------------------
 Symbolic Z-matrix:
 Charge =  0 Multiplicity = 1
 6                    -1.24079  -0.23762  -0.02753 
 6                     0.04895   0.55921   0.05371 
 7                     1.20234  -0.31761  -0.1167 
 1                    -2.10982   0.41583   0.0647 
 1                    -1.29293  -0.97621   0.77681 
 1                    -1.30033  -0.76988  -0.97775 
 1                     0.06631   1.12282   0.99797 
 1                     0.06996   1.29657  -0.75259 
 1                     1.23641  -1.00308   0.62716 
 1                     2.06508   0.20771  -0.07648 
 
 ITRead=  0  0  0  0  0  0  0  0  0  0
 MicOpt= -1 -1 -1 -1 -1 -1 -1 -1 -1 -1
 NAtoms=     10 NQM=       10 NQMF=       0 NMMI=      0 NMMIF=      0
                NMic=       0 NMicF=      0.
                    Isotopes and Nuclear Properties:
 (Nuclear quadrupole moments (NQMom) in fm**2, nuclear magnetic moments (NMagM)
  in nuclear magnetons)

  Atom         1           2           3           4           5           6           7           8           9          10
 IAtWgt=          12          12          14           1           1           1           1           1           1           1
 AtmWgt=  12.0000000  12.0000000  14.0030740   1.0078250   1.0078250   1.0078250   1.0078250   1.0078250   1.0078250   1.0078250
 NucSpn=           0           0           2           1           1           1           1           1           1           1
 AtZEff=  -0.0000000  -0.0000000  -0.0000000  -0.0000000  -0.0000000  -0.0000000  -0.0000000  -0.0000000  -0.0000000  -0.0000000
 NQMom=    0.0000000   0.0000000   2.0440000   0.0000000   0.0000000   0.0000000   0.0000000   0.0000000   0.0000000   0.0000000
 NMagM=    0.0000000   0.0000000   0.4037610   2.7928460   2.7928460   2.7928460   2.7928460   2.7928460   2.7928460   2.7928460
 AtZNuc=   6.0000000   6.0000000   7.0000000   1.0000000   1.0000000   1.0000000   1.0000000   1.0000000   1.0000000   1.0000000
 Leave Link  101 at Mon Mar 21 04:04:40 2022, MaxMem=  8589934592 cpu:               0.7 elap:               0.1
 (Enter /home/sabyasachi/g16/l202.exe)
                          Input orientation:                          
 ---------------------------------------------------------------------
 Center     Atomic      Atomic             Coordinates (Angstroms)
 Number     Number       Type             X           Y           Z
 ---------------------------------------------------------------------
      1          6           0       -1.240791   -0.237624   -0.027525
      2          6           0        0.048946    0.559205    0.053709
      3          7           0        1.202342   -0.317606   -0.116703
      4          1           0       -2.109817    0.415828    0.064703
      5          1           0       -1.292929   -0.976209    0.776809
      6          1           0       -1.300329   -0.769884   -0.977746
      7          1           0        0.066306    1.122818    0.997967
      8          1           0        0.069957    1.296574   -0.752592
      9          1           0        1.236408   -1.003082    0.627159
     10          1           0        2.065080    0.207710   -0.076483
 ---------------------------------------------------------------------
                    Distance matrix (angstroms):
                    1          2          3          4          5
     1  C    0.000000
     2  C    1.518208   0.000000
     3  N    2.446068   1.458821   0.000000
     4  H    1.091197   2.163547   3.397239   0.000000
     5  H    1.093243   2.163561   2.731025   1.764134   0.000000
     6  H    1.090764   2.156599   2.685016   1.774228   1.766660
     7  H    2.147310   1.099811   2.146599   2.471099   2.510447
     8  H    2.144189   1.092829   2.071769   2.488996   3.059750
     9  H    2.674145   2.044420   1.012111   3.677891   2.533903
    10  H    3.336091   2.050682   1.010886   4.182465   3.661420
                    6          7          8          9         10
     6  H    0.000000
     7  H    3.058342   0.000000
     8  H    2.489704   1.759165   0.000000
     9  H    3.010836   2.454809   2.924507   0.000000
    10  H    3.618555   2.446827   2.371342   1.627214   0.000000
 Stoichiometry    C2H7N
 Framework group  C1[X(C2H7N)]
 Deg. of freedom    24
 Full point group                 C1      NOp   1
 Largest Abelian subgroup         C1      NOp   1
 Largest concise Abelian subgroup C1      NOp   1
                         Standard orientation:                         
 ---------------------------------------------------------------------
 Center     Atomic      Atomic             Coordinates (Angstroms)
 Number     Number       Type             X           Y           Z
 ---------------------------------------------------------------------
      1          6           0       -1.240791   -0.237624   -0.027525
      2          6           0        0.048946    0.559205    0.053709
      3          7           0        1.202342   -0.317606   -0.116703
      4          1           0       -2.109817    0.415828    0.064703
      5          1           0       -1.292929   -0.976209    0.776809
      6          1           0       -1.300329   -0.769884   -0.977746
      7          1           0        0.066306    1.122818    0.997967
      8          1           0        0.069957    1.296574   -0.752592
      9          1           0        1.236408   -1.003082    0.627159
     10          1           0        2.065080    0.207710   -0.076483
 ---------------------------------------------------------------------
 Rotational constants (GHZ):          32.9271088           8.9927821           7.8881896
 Leave Link  202 at Mon Mar 21 04:04:40 2022, MaxMem=  8589934592 cpu:               0.1 elap:               0.0
 (Enter /home/sabyasachi/g16/l301.exe)
 General basis read from cards:  (5D, 7F)
 Centers:       4      5      6      7      8      9     10
 S 3 1.00
     Exponent=  1.3010701000D+01 Coefficients=  1.9682158000D-02
     Exponent=  1.9622572000D+00 Coefficients=  1.3796524000D-01
     Exponent=  4.4453796000D-01 Coefficients=  4.7831935000D-01
 S 1 1.00
     Exponent=  1.2194962000D-01 Coefficients=  1.0000000000D+00
 P 1 1.00
     Exponent=  8.0000000000D-01 Coefficients=  1.0000000000D+00
 P 1 1.00
     Exponent=  1.1704099050D-01 Coefficients=  1.0000000000D+00
 ****
 Centers:       1      2
 S 5 1.00
     Exponent=  1.2384016938D+03 Coefficients=  5.4568832082D-03
     Exponent=  1.8629004992D+02 Coefficients=  4.0638409211D-02
     Exponent=  4.2251176346D+01 Coefficients=  1.8025593888D-01
     Exponent=  1.1676557932D+01 Coefficients=  4.6315121755D-01
     Exponent=  3.5930506482D+00 Coefficients=  4.4087173314D-01
 S 1 1.00
     Exponent=  4.0245147363D-01 Coefficients=  1.0000000000D+00
 S 1 1.00
     Exponent=  1.3090182668D-01 Coefficients=  1.0000000000D+00
 S 1 1.00
     Exponent=  6.7053540256D-02 Coefficients=  1.0000000000D+00
 P 3 1.00
     Exponent=  9.4680970621D+00 Coefficients=  3.8387871728D-02
     Exponent=  2.0103545142D+00 Coefficients=  2.1117025112D-01
     Exponent=  5.4771004707D-01 Coefficients=  5.1328172114D-01
 P 1 1.00
     Exponent=  1.5268613795D-01 Coefficients=  1.0000000000D+00
 D 1 1.00
     Exponent=  8.0000000000D-01 Coefficients=  1.0000000000D+00
 D 1 1.00
     Exponent=  1.1713185140D-01 Coefficients=  1.0000000000D+00
 ****
 Centers:       3
 S 5 1.00
     Exponent=  1.7128415853D+03 Coefficients= -5.3934125305D-03
     Exponent=  2.5764812677D+02 Coefficients= -4.0221581118D-02
     Exponent=  5.8458245853D+01 Coefficients= -1.7931144990D-01
     Exponent=  1.6198367905D+01 Coefficients= -4.6376317823D-01
     Exponent=  5.0052600809D+00 Coefficients= -4.4171422662D-01
 S 1 1.00
     Exponent=  5.8731856571D-01 Coefficients=  1.0000000000D+00
 S 1 1.00
     Exponent=  1.8764592253D-01 Coefficients=  1.0000000000D+00
 S 1 1.00
     Exponent=  9.6171241529D-02 Coefficients=  1.0000000000D+00
 P 3 1.00
     Exponent=  1.3571470233D+01 Coefficients= -4.0072398852D-02
     Exponent=  2.9257372874D+00 Coefficients= -2.1807045028D-01
     Exponent=  7.9927750754D-01 Coefficients= -5.1294466049D-01
 P 1 1.00
     Exponent=  2.1954348034D-01 Coefficients=  1.0000000000D+00
 D 1 1.00
     Exponent=  1.0000000000D+00 Coefficients=  1.0000000000D+00
 D 1 1.00
     Exponent=  1.6697708112D-01 Coefficients=  1.0000000000D+00
 ****
 Ernie: Thresh=  0.10000D-02 Tol=  0.10000D-05 Strict=F.
 There are   122 symmetry adapted cartesian basis functions of A   symmetry.
 There are   116 symmetry adapted basis functions of A   symmetry.
   116 basis functions,   166 primitive gaussians,   122 cartesian basis functions
    13 alpha electrons       13 beta electrons
       nuclear repulsion energy        83.1592446738 Hartrees.
 IExCor= 4336 DFT=T Ex+Corr=M062X ExCW=0 ScaHFX=  0.540000
 ScaDFX=  1.000000  1.000000  1.000000  1.000000 ScalE2=  1.000000  1.000000
 IRadAn=      5 IRanWt=     -1 IRanGd=            0 ICorTp=0 IEmpDi=  4
 NAtoms=   10 NActive=   10 NUniq=   10 SFac= 1.00D+00 NAtFMM=   60 NAOKFM=F Big=F
 Integral buffers will be    131072 words long.
 Regular integral format.
 Two-electron integral symmetry is turned on.
 Leave Link  301 at Mon Mar 21 04:04:40 2022, MaxMem=  8589934592 cpu:               0.5 elap:               0.1
 (Enter /home/sabyasachi/g16/l302.exe)
 NPDir=0 NMtPBC=     1 NCelOv=     1 NCel=       1 NClECP=     1 NCelD=      1
         NCelK=      1 NCelE2=     1 NClLst=     1 CellRange=     0.0.
 One-electron integrals computed using PRISM.
 One-electron integral symmetry used in STVInt
 NBasis=   116 RedAO= T EigKep=  2.68D-04  NBF=   116
 NBsUse=   116 1.00D-06 EigRej= -1.00D+00 NBFU=   116
 Precomputing XC quadrature grid using
 IXCGrd= 4 IRadAn=           5 IRanWt=          -1 IRanGd=           0 AccXCQ= 0.00D+00.
 Generated NRdTot=       0 NPtTot=           0 NUsed=           0 NTot=          32
 NSgBfM=   122   122   122   122   122 MxSgAt=    10 MxSgA2=    10.
 Leave Link  302 at Mon Mar 21 04:04:40 2022, MaxMem=  8589934592 cpu:               1.1 elap:               0.2
 (Enter /home/sabyasachi/g16/l303.exe)
 DipDrv:  MaxL=1.
 Leave Link  303 at Mon Mar 21 04:04:40 2022, MaxMem=  8589934592 cpu:               0.2 elap:               0.0
 (Enter /home/sabyasachi/g16/l308.exe)
 Leave Link  308 at Mon Mar 21 04:04:40 2022, MaxMem=  8589934592 cpu:               0.2 elap:               0.1
 (Enter /home/sabyasachi/g16/l401.exe)
 ExpMin= 6.71D-02 ExpMax= 1.71D+03 ExpMxC= 2.58D+02 IAcc=3 IRadAn=         5 AccDes= 0.00D+00
 Harris functional with IExCor= 1009 and IRadAn=       5 diagonalized for initial guess.
 HarFok:  IExCor= 1009 AccDes= 0.00D+00 IRadAn=         5 IDoV= 1 UseB2=F ITyADJ=14
 ICtDFT=  3500011 ScaDFX=  1.000000  1.000000  1.000000  1.000000
 FoFCou: FMM=F IPFlag=           0 FMFlag=      100000 FMFlg1=           0
         NFxFlg=           0 DoJE=T BraDBF=F KetDBF=T FulRan=T
         wScrn=  0.000000 ICntrl=       500 IOpCl=  0 I1Cent=   200000004 NGrid=           0
         NMat0=    1 NMatS0=      1 NMatT0=    0 NMatD0=    1 NMtDS0=    0 NMtDT0=    0
 Petite list used in FoFCou.
 Harris En= -134.992133551823    
 JPrj=0 DoOrth=F DoCkMO=F.
 Leave Link  401 at Mon Mar 21 04:04:41 2022, MaxMem=  8589934592 cpu:               3.8 elap:               0.5
 (Enter /home/sabyasachi/g16/l502.exe)
 Keep R1 ints in memory in canonical form, NReq=30615719.
 FoFCou: FMM=F IPFlag=           0 FMFlag=           0 FMFlg1=           0
         NFxFlg=           0 DoJE=F BraDBF=F KetDBF=F FulRan=T
         wScrn=  0.000000 ICntrl=       600 IOpCl=  0 I1Cent=           0 NGrid=           0
         NMat0=    1 NMatS0=   6786 NMatT0=    0 NMatD0=    1 NMtDS0=    0 NMtDT0=    0
 Symmetry not used in FoFCou.
 Two-electron integral symmetry not used.
 Closed shell SCF:
 Using DIIS extrapolation, IDIIS=  1040.
 NGot=  8589934592 LenX=  8566873951 LenY=  8566858626
 Requested convergence on RMS density matrix=1.00D-08 within 100 cycles.
 Requested convergence on MAX density matrix=1.00D-06.
 Requested convergence on             energy=1.00D-06.
 No special actions if energy rises.
 Integral accuracy reduced to 1.0D-05 until final iterations.

 Cycle   1  Pass 0  IDiag  1:
 E= -134.874634325409    
 DIIS: error= 2.75D-02 at cycle   1 NSaved=   1.
 NSaved= 1 IEnMin= 1 EnMin= -134.874634325409     IErMin= 1 ErrMin= 2.75D-02
 ErrMax= 2.75D-02  0.00D+00 EMaxC= 1.00D-01 BMatC= 1.30D-01 BMatP= 1.30D-01
 IDIUse=3 WtCom= 7.25D-01 WtEn= 2.75D-01
 Coeff-Com:  0.100D+01
 Coeff-En:   0.100D+01
 Coeff:      0.100D+01
 Gap=     0.268 Goal=   None    Shift=    0.000
 GapD=    0.268 DampG=1.000 DampE=0.500 DampFc=0.5000 IDamp=-1.
 Damping current iteration by 5.00D-01
 RMSDP=1.43D-02 MaxDP=8.60D-01              OVMax= 1.57D-01

 Cycle   2  Pass 0  IDiag  1:
 E= -134.939404862251     Delta-E=       -0.064770536842 Rises=F Damp=T
 DIIS: error= 6.65D-03 at cycle   2 NSaved=   2.
 NSaved= 2 IEnMin= 2 EnMin= -134.939404862251     IErMin= 2 ErrMin= 6.65D-03
 ErrMax= 6.65D-03  0.00D+00 EMaxC= 1.00D-01 BMatC= 5.56D-03 BMatP= 1.30D-01
 IDIUse=3 WtCom= 9.33D-01 WtEn= 6.65D-02
 Coeff-Com: -0.341D-01 0.103D+01
 Coeff-En:   0.000D+00 0.100D+01
 Coeff:     -0.319D-01 0.103D+01
 Gap=     0.356 Goal=   None    Shift=    0.000
 RMSDP=2.25D-03 MaxDP=1.08D-01 DE=-6.48D-02 OVMax= 8.72D-02

 Cycle   3  Pass 0  IDiag  1:
 E= -135.003892246755     Delta-E=       -0.064487384504 Rises=F Damp=F
 DIIS: error= 1.87D-03 at cycle   3 NSaved=   3.
 NSaved= 3 IEnMin= 3 EnMin= -135.003892246755     IErMin= 3 ErrMin= 1.87D-03
 ErrMax= 1.87D-03  0.00D+00 EMaxC= 1.00D-01 BMatC= 9.36D-04 BMatP= 5.56D-03
 IDIUse=3 WtCom= 9.81D-01 WtEn= 1.87D-02
 Coeff-Com: -0.363D-01 0.250D+00 0.786D+00
 Coeff-En:   0.000D+00 0.000D+00 0.100D+01
 Coeff:     -0.356D-01 0.245D+00 0.790D+00
 Gap=     0.344 Goal=   None    Shift=    0.000
 RMSDP=7.02D-04 MaxDP=3.72D-02 DE=-6.45D-02 OVMax= 9.79D-03

 Cycle   4  Pass 0  IDiag  1:
 E= -135.004510903221     Delta-E=       -0.000618656466 Rises=F Damp=F
 DIIS: error= 1.08D-03 at cycle   4 NSaved=   4.
 NSaved= 4 IEnMin= 4 EnMin= -135.004510903221     IErMin= 4 ErrMin= 1.08D-03
 ErrMax= 1.08D-03  0.00D+00 EMaxC= 1.00D-01 BMatC= 2.11D-04 BMatP= 9.36D-04
 IDIUse=3 WtCom= 9.89D-01 WtEn= 1.08D-02
 Coeff-Com: -0.116D-01 0.360D-01 0.342D+00 0.633D+00
 Coeff-En:   0.000D+00 0.000D+00 0.116D+00 0.884D+00
 Coeff:     -0.115D-01 0.356D-01 0.340D+00 0.636D+00
 Gap=     0.348 Goal=   None    Shift=    0.000
 RMSDP=2.76D-04 MaxDP=1.66D-02 DE=-6.19D-04 OVMax= 3.48D-03

 Cycle   5  Pass 0  IDiag  1:
 E= -135.004699987671     Delta-E=       -0.000189084450 Rises=F Damp=F
 DIIS: error= 2.00D-04 at cycle   5 NSaved=   5.
 NSaved= 5 IEnMin= 5 EnMin= -135.004699987671     IErMin= 5 ErrMin= 2.00D-04
 ErrMax= 2.00D-04  0.00D+00 EMaxC= 1.00D-01 BMatC= 5.32D-06 BMatP= 2.11D-04
 IDIUse=3 WtCom= 9.98D-01 WtEn= 2.00D-03
 Coeff-Com: -0.106D-02-0.218D-02 0.555D-01 0.192D+00 0.756D+00
 Coeff-En:   0.000D+00 0.000D+00 0.000D+00 0.000D+00 0.100D+01
 Coeff:     -0.106D-02-0.217D-02 0.554D-01 0.191D+00 0.757D+00
 Gap=     0.348 Goal=   None    Shift=    0.000
 RMSDP=3.55D-05 MaxDP=1.20D-03 DE=-1.89D-04 OVMax= 5.36D-04

 Cycle   6  Pass 0  IDiag  1:
 E= -135.004704908496     Delta-E=       -0.000004920825 Rises=F Damp=F
 DIIS: error= 2.53D-05 at cycle   6 NSaved=   6.
 NSaved= 6 IEnMin= 6 EnMin= -135.004704908496     IErMin= 6 ErrMin= 2.53D-05
 ErrMax= 2.53D-05  0.00D+00 EMaxC= 1.00D-01 BMatC= 1.31D-07 BMatP= 5.32D-06
 IDIUse=1 WtCom= 1.00D+00 WtEn= 0.00D+00
 Coeff-Com:  0.366D-03-0.175D-02-0.312D-02 0.143D-01 0.144D+00 0.846D+00
 Coeff:      0.366D-03-0.175D-02-0.312D-02 0.143D-01 0.144D+00 0.846D+00
 Gap=     0.348 Goal=   None    Shift=    0.000
 RMSDP=9.42D-06 MaxDP=4.25D-04 DE=-4.92D-06 OVMax= 1.17D-04

 Initial convergence to 1.0D-05 achieved.  Increase integral accuracy.
 Cycle   7  Pass 1  IDiag  1:
 E= -135.004719386021     Delta-E=       -0.000014477525 Rises=F Damp=F
 DIIS: error= 1.32D-05 at cycle   1 NSaved=   1.
 NSaved= 1 IEnMin= 1 EnMin= -135.004719386021     IErMin= 1 ErrMin= 1.32D-05
 ErrMax= 1.32D-05  0.00D+00 EMaxC= 1.00D-01 BMatC= 6.06D-08 BMatP= 6.06D-08
 IDIUse=1 WtCom= 1.00D+00 WtEn= 0.00D+00
 Coeff-Com:  0.100D+01
 Coeff:      0.100D+01
 Gap=     0.348 Goal=   None    Shift=    0.000
 RMSDP=9.42D-06 MaxDP=4.25D-04 DE=-1.45D-05 OVMax= 7.46D-05

 Cycle   8  Pass 1  IDiag  1:
 E= -135.004719432671     Delta-E=       -0.000000046649 Rises=F Damp=F
 DIIS: error= 8.54D-06 at cycle   2 NSaved=   2.
 NSaved= 2 IEnMin= 2 EnMin= -135.004719432671     IErMin= 2 ErrMin= 8.54D-06
 ErrMax= 8.54D-06  0.00D+00 EMaxC= 1.00D-01 BMatC= 1.60D-08 BMatP= 6.06D-08
 IDIUse=1 WtCom= 1.00D+00 WtEn= 0.00D+00
 Coeff-Com:  0.290D+00 0.710D+00
 Coeff:      0.290D+00 0.710D+00
 Gap=     0.348 Goal=   None    Shift=    0.000
 RMSDP=2.28D-06 MaxDP=6.58D-05 DE=-4.66D-08 OVMax= 3.93D-05

 Cycle   9  Pass 1  IDiag  1:
 E= -135.004719446243     Delta-E=       -0.000000013572 Rises=F Damp=F
 DIIS: error= 2.90D-06 at cycle   3 NSaved=   3.
 NSaved= 3 IEnMin= 3 EnMin= -135.004719446243     IErMin= 3 ErrMin= 2.90D-06
 ErrMax= 2.90D-06  0.00D+00 EMaxC= 1.00D-01 BMatC= 2.19D-09 BMatP= 1.60D-08
 IDIUse=1 WtCom= 1.00D+00 WtEn= 0.00D+00
 Coeff-Com: -0.393D-01 0.243D+00 0.796D+00
 Coeff:     -0.393D-01 0.243D+00 0.796D+00
 Gap=     0.348 Goal=   None    Shift=    0.000
 RMSDP=7.33D-07 MaxDP=2.16D-05 DE=-1.36D-08 OVMax= 1.08D-05

 Cycle  10  Pass 1  IDiag  1:
 E= -135.004719448282     Delta-E=       -0.000000002039 Rises=F Damp=F
 DIIS: error= 3.68D-07 at cycle   4 NSaved=   4.
 NSaved= 4 IEnMin= 4 EnMin= -135.004719448282     IErMin= 4 ErrMin= 3.68D-07
 ErrMax= 3.68D-07  0.00D+00 EMaxC= 1.00D-01 BMatC= 2.98D-11 BMatP= 2.19D-09
 IDIUse=1 WtCom= 1.00D+00 WtEn= 0.00D+00
 Coeff-Com: -0.151D-01 0.660D-01 0.236D+00 0.713D+00
 Coeff:     -0.151D-01 0.660D-01 0.236D+00 0.713D+00
 Gap=     0.348 Goal=   None    Shift=    0.000
 RMSDP=1.74D-07 MaxDP=1.07D-05 DE=-2.04D-09 OVMax= 2.47D-06

 Cycle  11  Pass 1  IDiag  1:
 E= -135.004719448308     Delta-E=       -0.000000000026 Rises=F Damp=F
 DIIS: error= 1.89D-07 at cycle   5 NSaved=   5.
 NSaved= 5 IEnMin= 5 EnMin= -135.004719448308     IErMin= 5 ErrMin= 1.89D-07
 ErrMax= 1.89D-07  0.00D+00 EMaxC= 1.00D-01 BMatC= 6.10D-12 BMatP= 2.98D-11
 IDIUse=1 WtCom= 1.00D+00 WtEn= 0.00D+00
 Coeff-Com:  0.436D-03-0.121D-01-0.358D-01 0.278D+00 0.770D+00
 Coeff:      0.436D-03-0.121D-01-0.358D-01 0.278D+00 0.770D+00
 Gap=     0.348 Goal=   None    Shift=    0.000
 RMSDP=3.90D-08 MaxDP=1.28D-06 DE=-2.65D-11 OVMax= 6.45D-07

 Cycle  12  Pass 1  IDiag  1:
 E= -135.004719448314     Delta-E=       -0.000000000006 Rises=F Damp=F
 DIIS: error= 3.50D-08 at cycle   6 NSaved=   6.
 NSaved= 6 IEnMin= 6 EnMin= -135.004719448314     IErMin= 6 ErrMin= 3.50D-08
 ErrMax= 3.50D-08  0.00D+00 EMaxC= 1.00D-01 BMatC= 2.58D-13 BMatP= 6.10D-12
 IDIUse=1 WtCom= 1.00D+00 WtEn= 0.00D+00
 Coeff-Com:  0.130D-02-0.897D-02-0.300D-01 0.335D-01 0.235D+00 0.769D+00
 Coeff:      0.130D-02-0.897D-02-0.300D-01 0.335D-01 0.235D+00 0.769D+00
 Gap=     0.348 Goal=   None    Shift=    0.000
 RMSDP=1.70D-08 MaxDP=1.06D-06 DE=-6.14D-12 OVMax= 2.40D-07

 Cycle  13  Pass 1  IDiag  1:
 E= -135.004719448315     Delta-E=       -0.000000000000 Rises=F Damp=F
 DIIS: error= 6.98D-09 at cycle   7 NSaved=   7.
 NSaved= 7 IEnMin= 7 EnMin= -135.004719448315     IErMin= 7 ErrMin= 6.98D-09
 ErrMax= 6.98D-09  0.00D+00 EMaxC= 1.00D-01 BMatC= 8.02D-15 BMatP= 2.58D-13
 IDIUse=1 WtCom= 1.00D+00 WtEn= 0.00D+00
 Coeff-Com:  0.276D-03-0.142D-02-0.497D-02-0.422D-02 0.181D-01 0.162D+00
 Coeff-Com:  0.830D+00
 Coeff:      0.276D-03-0.142D-02-0.497D-02-0.422D-02 0.181D-01 0.162D+00
 Coeff:      0.830D+00
 Gap=     0.348 Goal=   None    Shift=    0.000
 RMSDP=1.93D-09 MaxDP=4.22D-08 DE=-4.55D-13 OVMax= 4.40D-08

 SCF Done:  E(RM062X) =  -135.004719448     A.U. after   13 cycles
            NFock= 13  Conv=0.19D-08     -V/T= 2.0114
 KE= 1.334789845358D+02 PE=-4.788480377873D+02 EE= 1.272050891294D+02
 Leave Link  502 at Mon Mar 21 04:04:48 2022, MaxMem=  8589934592 cpu:              59.2 elap:               7.8
 (Enter /home/sabyasachi/g16/l801.exe)
 DoSCS=F DFT=T ScalE2(SS,OS)=  1.000000  1.000000
 ExpMin= 6.71D-02 ExpMax= 1.71D+03 ExpMxC= 2.58D+02 IAcc=3 IRadAn=         5 AccDes= 0.00D+00
 HarFok:  IExCor=  205 AccDes= 0.00D+00 IRadAn=         5 IDoV=-2 UseB2=F ITyADJ=14
 ICtDFT= 12500011 ScaDFX=  1.000000  1.000000  1.000000  1.000000
 Largest valence mixing into a core orbital is  9.47D-05
 Largest core mixing into a valence orbital is  3.32D-05
 Range of M.O.s used for correlation:     4   116
 NBasis=   116 NAE=    13 NBE=    13 NFC=     3 NFV=     0
 NROrb=    113 NOA=    10 NOB=    10 NVA=   103 NVB=   103

 **** Warning!!: The largest alpha MO coefficient is  0.21962386D+02

 Leave Link  801 at Mon Mar 21 04:04:48 2022, MaxMem=  8589934592 cpu:               0.5 elap:               0.1
 (Enter /home/sabyasachi/g16/l914.exe)
 RHF ground state
 Keep R1, R2, and R3 ints in memory in canonical form, NReq=1282352793.
 FoFCou: FMM=F IPFlag=           0 FMFlag=           0 FMFlg1=           0
         NFxFlg=           0 DoJE=F BraDBF=F KetDBF=F FulRan=T
         wScrn=  0.000000 ICntrl=       600 IOpCl=  0 I1Cent=           0 NGrid=           0
         NMat0=    1 NMatS0=   6786 NMatT0=    0 NMatD0=    1 NMtDS0=    0 NMtDT0=    0
 Symmetry not used in FoFCou.
 Two-electron integral symmetry not used.
 MDV=  8589934592 DFT=T DoStab=F Mixed=T DoRPA=T DoScal=F NonHer=T
 Making orbital integer symmetry assigments:
 Orbital symmetries:
       Occupied  (A) (A) (A) (A) (A) (A) (A) (A) (A) (A) (A) (A)
                 (A)
       Virtual   (A) (A) (A) (A) (A) (A) (A) (A) (A) (A) (A) (A)
                 (A) (A) (A) (A) (A) (A) (A) (A) (A) (A) (A) (A)
                 (A) (A) (A) (A) (A) (A) (A) (A) (A) (A) (A) (A)
                 (A) (A) (A) (A) (A) (A) (A) (A) (A) (A) (A) (A)
                 (A) (A) (A) (A) (A) (A) (A) (A) (A) (A) (A) (A)
                 (A) (A) (A) (A) (A) (A) (A) (A) (A) (A) (A) (A)
                 (A) (A) (A) (A) (A) (A) (A) (A) (A) (A) (A) (A)
                 (A) (A) (A) (A) (A) (A) (A) (A) (A) (A) (A) (A)
                 (A) (A) (A) (A) (A) (A) (A)
  1030 initial guesses have been made.
 Convergence on wavefunction:    0.001000000000000
 Davidson Disk Diagonalization:  ConvIn= 1.00D-03 SkipCon=T Conv= 1.00D-03.
 Max sub-space:  6180 roots to seek:  2060 dimension of matrix:         2060
 *** WARNING: Number of orthogonal guesses is         1030
 Iteration     1 Dimension  1030 NMult     0 NNew   1030
 CISAX will form  1030 AO SS matrices at one time.
 NMat=  1030 NSing=  1030 JSym2X= 0.
 New state      6 was old state      7
 New state      7 was old state      6
 New state      9 was old state     10
 New state     10 was old state      9
 New state     13 was old state     17
 New state     14 was old state     13
 New state     15 was old state     14
 New state     16 was old state     15
 New state     17 was old state     18
 New state     18 was old state     16
 New state     19 was old state     22
 New state     20 was old state     19
 New state     22 was old state     20
 New state     23 was old state     25
 New state     25 was old state     26
 New state     26 was old state     27
 New state     27 was old state     23
 New state     29 was old state     30
 New state     30 was old state     29
 New state     32 was old state     36
 New state     34 was old state     35
 New state     35 was old state     34
 New state     36 was old state     37
 New state     37 was old state     32
 New state     38 was old state     40
 New state     39 was old state     41
 New state     40 was old state     38
 New state     41 was old state     44
 New state     42 was old state     39
 New state     43 was old state     45
 New state     44 was old state     43
 New state     45 was old state     42
 New state     47 was old state     48
 New state     48 was old state     52
 New state     49 was old state     51
 New state     50 was old state     54
 New state     51 was old state     50
 New state     52 was old state     53
 New state     53 was old state     47
 New state     54 was old state     58
 New state     55 was old state     49
 New state     56 was old state     60
 New state     57 was old state     61
 New state     58 was old state     55
 New state     59 was old state     57
 New state     60 was old state     56
 New state     61 was old state     59
 New state     62 was old state     63
 New state     63 was old state     66
 New state     64 was old state     68
 New state     66 was old state     64
 New state     67 was old state     73
 New state     68 was old state     62
 New state     69 was old state     71
 New state     70 was old state     74
 New state     71 was old state     70
 New state     73 was old state     77
 New state     74 was old state     79
 New state     75 was old state     80
 New state     76 was old state     75
 New state     77 was old state     78
 New state     78 was old state     83
 New state     79 was old state     76
 New state     80 was old state     81
 New state     81 was old state     82
 New state     82 was old state     87
 New state     83 was old state     93
 New state     84 was old state     88
 New state     85 was old state     86
 New state     86 was old state    102
 New state     87 was old state     84
 New state     88 was old state     90
 New state     89 was old state     85
 New state     90 was old state     92
 New state     91 was old state     96
 New state     92 was old state     89
 New state     93 was old state     91
 New state     94 was old state     95
 New state     95 was old state    100
 New state     96 was old state     98
 New state     97 was old state     94
 New state     98 was old state    101
 New state     99 was old state    103
 New state    100 was old state    106
 New state    101 was old state     97
 New state    102 was old state    105
 New state    103 was old state     99
 New state    104 was old state    110
 New state    105 was old state    104
 New state    106 was old state    107
 New state    107 was old state    114
 New state    109 was old state    115
 New state    110 was old state    118
 New state    112 was old state    116
 New state    114 was old state    121
 New state    115 was old state    109
 New state    116 was old state    117
 New state    117 was old state    124
 New state    118 was old state    112
 New state    119 was old state    120
 New state    120 was old state    126
 New state    121 was old state    122
 New state    122 was old state    125
 New state    123 was old state    119
 New state    124 was old state    128
 New state    125 was old state    127
 New state    126 was old state    130
 New state    127 was old state    131
 New state    128 was old state    132
 New state    129 was old state    123
 New state    130 was old state    129
 New state    131 was old state    135
 New state    132 was old state    134
 New state    133 was old state    137
 New state    134 was old state    138
 New state    135 was old state    136
 New state    136 was old state    144
 New state    137 was old state    140
 New state    138 was old state    139
 New state    139 was old state    142
 New state    140 was old state    145
 New state    141 was old state    133
 New state    142 was old state    141
 New state    144 was old state    151
 New state    145 was old state    146
 New state    146 was old state    152
 New state    147 was old state    150
 New state    148 was old state    156
 New state    149 was old state    147
 New state    150 was old state    160
 New state    151 was old state    149
 New state    152 was old state    153
 New state    153 was old state    159
 New state    154 was old state    148
 New state    155 was old state    165
 New state    156 was old state    170
 New state    157 was old state    154
 New state    158 was old state    166
 New state    159 was old state    155
 New state    160 was old state    157
 New state    161 was old state    168
 New state    163 was old state    158
 New state    164 was old state    167
 New state    165 was old state    163
 New state    166 was old state    161
 New state    167 was old state    164
 New state    168 was old state    177
 New state    169 was old state    171
 New state    170 was old state    172
 New state    171 was old state    184
 New state    172 was old state    169
 New state    173 was old state    174
 New state    174 was old state    176
 New state    175 was old state    179
 New state    176 was old state    182
 New state    177 was old state    173
 New state    179 was old state    180
 New state    180 was old state    193
 New state    181 was old state    185
 New state    182 was old state    181
 New state    183 was old state    196
 New state    184 was old state    175
 New state    185 was old state    188
 New state    186 was old state    183
 New state    187 was old state    189
 New state    188 was old state    187
 New state    189 was old state    191
 New state    190 was old state    194
 New state    191 was old state    186
 New state    193 was old state    198
 New state    194 was old state    190
 New state    195 was old state    207
 New state    196 was old state    203
 New state    197 was old state    200
 New state    198 was old state    199
 New state    199 was old state    195
 New state    200 was old state    197
 New state    201 was old state    210
 New state    202 was old state    206
 New state    203 was old state    205
 New state    204 was old state    201
 New state    205 was old state    202
 New state    206 was old state    209
 New state    207 was old state    218
 New state    208 was old state    204
 New state    209 was old state    211
 New state    210 was old state    213
 New state    211 was old state    214
 New state    212 was old state    216
 New state    213 was old state    215
 New state    214 was old state    208
 New state    215 was old state    212
 New state    216 was old state    226
 New state    217 was old state    224
 New state    218 was old state    225
 New state    220 was old state    221
 New state    221 was old state    223
 New state    223 was old state    227
 New state    224 was old state    234
 New state    225 was old state    217
 New state    226 was old state    229
 New state    227 was old state    230
 New state    228 was old state    233
 New state    229 was old state    237
 New state    230 was old state    232
 New state    231 was old state    239
 New state    232 was old state    228
 New state    233 was old state    220
 New state    234 was old state    235
 New state    235 was old state    238
 New state    236 was old state    240
 New state    237 was old state    243
 New state    238 was old state    248
 New state    239 was old state    242
 New state    240 was old state    236
 New state    241 was old state    231
 New state    242 was old state    247
 New state    243 was old state    241
 New state    245 was old state    252
 New state    246 was old state    249
 New state    247 was old state    255
 New state    248 was old state    245
 New state    249 was old state    250
 New state    250 was old state    246
 New state    251 was old state    256
 New state    252 was old state    253
 New state    253 was old state    267
 New state    254 was old state    261
 New state    255 was old state    262
 New state    256 was old state    254
 New state    257 was old state    271
 New state    258 was old state    251
 New state    259 was old state    258
 New state    260 was old state    259
 New state    261 was old state    268
 New state    262 was old state    260
 New state    263 was old state    290
 New state    264 was old state    265
 New state    265 was old state    266
 New state    266 was old state    274
 New state    267 was old state    269
 New state    268 was old state    263
 New state    269 was old state    264
 New state    270 was old state    281
 New state    271 was old state    272
 New state    272 was old state    278
 New state    273 was old state    270
 New state    274 was old state    273
 New state    278 was old state    282
 New state    280 was old state    287
 New state    281 was old state    284
 New state    282 was old state    285
 New state    283 was old state    280
 New state    284 was old state    302
 New state    285 was old state    289
 New state    286 was old state    283
 New state    287 was old state    291
 New state    288 was old state    286
 New state    289 was old state    295
 New state    290 was old state    294
 New state    291 was old state    288
 New state    292 was old state    298
 New state    293 was old state    296
 New state    294 was old state    299
 New state    295 was old state    297
 New state    296 was old state    292
 New state    297 was old state    293
 New state    298 was old state    301
 New state    299 was old state    317
 New state    300 was old state    303
 New state    301 was old state    305
 New state    302 was old state    300
 New state    303 was old state    306
 New state    304 was old state    309
 New state    305 was old state    304
 New state    306 was old state    308
 New state    307 was old state    311
 New state    308 was old state    313
 New state    309 was old state    310
 New state    310 was old state    307
 New state    311 was old state    312
 New state    312 was old state    316
 New state    313 was old state    318
 New state    314 was old state    328
 New state    315 was old state    319
 New state    316 was old state    338
 New state    317 was old state    314
 New state    318 was old state    323
 New state    319 was old state    315
 New state    320 was old state    321
 New state    321 was old state    326
 New state    322 was old state    329
 New state    323 was old state    330
 New state    324 was old state    327
 New state    325 was old state    324
 New state    326 was old state    339
 New state    327 was old state    322
 New state    328 was old state    332
 New state    329 was old state    333
 New state    330 was old state    334
 New state    331 was old state    335
 New state    332 was old state    320
 New state    333 was old state    340
 New state    334 was old state    331
 New state    335 was old state    337
 New state    336 was old state    343
 New state    337 was old state    341
 New state    338 was old state    336
 New state    339 was old state    344
 New state    340 was old state    350
 New state    341 was old state    345
 New state    342 was old state    346
 New state    343 was old state    342
 New state    344 was old state    347
 New state    345 was old state    348
 New state    346 was old state    351
 New state    347 was old state    349
 New state    348 was old state    353
 New state    349 was old state    352
 New state    350 was old state    360
 New state    351 was old state    358
 New state    352 was old state    357
 New state    353 was old state    355
 New state    354 was old state    363
 New state    355 was old state    361
 New state    357 was old state    365
 New state    358 was old state    359
 New state    359 was old state    364
 New state    360 was old state    354
 New state    361 was old state    370
 New state    363 was old state    368
 New state    364 was old state    375
 New state    365 was old state    369
 New state    368 was old state    373
 New state    369 was old state    371
 No map to state    370
 New state    371 was old state    372
 New state    372 was old state    374
 New state    373 was old state    377
 New state    374 was old state    376
 New state    375 was old state    379
 New state    376 was old state    383
 New state    377 was old state    382
 New state    378 was old state    384
 New state    379 was old state    378
 New state    380 was old state    381
 New state    381 was old state    391
 New state    382 was old state    380
 New state    383 was old state    390
 New state    384 was old state    386
 New state    386 was old state    388
 New state    387 was old state    402
 New state    388 was old state    387
 New state    389 was old state    395
 New state    390 was old state    389
 New state    391 was old state    392
 New state    392 was old state    393
 New state    393 was old state    399
 New state    395 was old state    396
 New state    396 was old state    400
 New state    397 was old state    398
 New state    398 was old state    401
 New state    399 was old state    397
 New state    400 was old state    404
 No map to state    401
 New state    402 was old state    408
 New state    403 was old state    406
 New state    404 was old state    407
 New state    405 was old state    412
 New state    406 was old state    410
 New state    407 was old state    403
 New state    408 was old state    405
 No map to state    410
 New state    411 was old state    414
 New state    412 was old state    413
 New state    413 was old state    417
 New state    414 was old state    411
 New state    415 was old state    418
 New state    416 was old state    422
 New state    417 was old state    415
 New state    418 was old state    416
 New state    421 was old state    423
 New state    422 was old state    421
 New state    423 was old state    427
 New state    424 was old state    425
 New state    425 was old state    432
 New state    427 was old state    424
 New state    428 was old state    431
 New state    429 was old state    443
 New state    430 was old state    435
 New state    431 was old state    433
 New state    432 was old state    428
 New state    433 was old state    430
 New state    434 was old state    441
 New state    435 was old state    440
 New state    436 was old state    429
 New state    437 was old state    436
 New state    438 was old state    434
 New state    439 was old state    437
 New state    440 was old state    438
 New state    441 was old state    445
 New state    442 was old state    463
 New state    443 was old state    439
 New state    445 was old state    447
 New state    446 was old state    442
 New state    447 was old state    450
 New state    448 was old state    446
 New state    449 was old state    457
 New state    450 was old state    448
 New state    451 was old state    459
 New state    452 was old state    449
 New state    453 was old state    451
 New state    454 was old state    464
 New state    455 was old state    470
 New state    457 was old state    455
 New state    458 was old state    465
 New state    459 was old state    452
 New state    460 was old state    458
 New state    461 was old state    466
 New state    462 was old state    472
 New state    463 was old state    453
 New state    464 was old state    461
 New state    465 was old state    468
 New state    466 was old state    462
 New state    467 was old state    475
 New state    468 was old state    460
 New state    469 was old state    477
 New state    470 was old state    471
 New state    471 was old state    467
 New state    472 was old state    480
 New state    473 was old state    454
 New state    474 was old state    469
 New state    475 was old state    486
 New state    476 was old state    479
 New state    477 was old state    487
 New state    478 was old state    474
 New state    479 was old state    481
 New state    480 was old state    482
 New state    481 was old state    476
 New state    482 was old state    493
 New state    483 was old state    473
 New state    484 was old state    488
 New state    485 was old state    484
 New state    486 was old state    497
 New state    487 was old state    494
 New state    488 was old state    478
 New state    489 was old state    503
 New state    490 was old state    495
 New state    491 was old state    489
 New state    492 was old state    490
 New state    493 was old state    483
 New state    494 was old state    506
 New state    495 was old state    492
 New state    496 was old state    504
 New state    497 was old state    499
 New state    498 was old state    501
 New state    499 was old state    491
 New state    500 was old state    515
 New state    501 was old state    496
 New state    502 was old state    509
 New state    503 was old state    498
 New state    504 was old state    508
 New state    505 was old state    500
 New state    506 was old state    507
 New state    507 was old state    517
 New state    508 was old state    513
 New state    509 was old state    502
 New state    510 was old state    511
 New state    511 was old state    514
 New state    512 was old state    510
 New state    513 was old state    523
 New state    514 was old state    505
 New state    515 was old state    512
 New state    516 was old state    524
 New state    517 was old state    519
 New state    518 was old state    520
 New state    519 was old state    516
 New state    520 was old state    529
 New state    522 was old state    526
 New state    523 was old state    522
 New state    524 was old state    527
 New state    525 was old state    531
 New state    526 was old state    518
 New state    527 was old state    533
 New state    529 was old state    535
 New state    530 was old state    539
 New state    531 was old state    541
 New state    532 was old state    525
 New state    533 was old state    534
 New state    534 was old state    537
 New state    535 was old state    536
 New state    536 was old state    545
 New state    537 was old state    540
 New state    538 was old state    530
 New state    539 was old state    538
 New state    540 was old state    532
 New state    541 was old state    546
 New state    542 was old state    544
 New state    543 was old state    542
 New state    544 was old state    543
 New state    545 was old state    550
 New state    546 was old state    553
 New state    549 was old state    556
 New state    550 was old state    549
 New state    552 was old state    554
 New state    553 was old state    552
 New state    554 was old state    555
 New state    555 was old state    557
 New state    556 was old state    560
 New state    557 was old state    558
 New state    558 was old state    559
 New state    559 was old state    562
 No map to state    560
 New state    561 was old state    563
 New state    562 was old state    565
 New state    563 was old state    561
 New state    564 was old state    569
 New state    565 was old state    564
 New state    566 was old state    567
 New state    567 was old state    566
 New state    569 was old state    571
 New state    570 was old state    574
 New state    571 was old state    573
 New state    573 was old state    577
 New state    574 was old state    575
 New state    575 was old state    579
 New state    576 was old state    580
 New state    577 was old state    578
 New state    578 was old state    576
 New state    579 was old state    570
 New state    580 was old state    589
 New state    581 was old state    582
 New state    582 was old state    581
 New state    583 was old state    586
 New state    585 was old state    583
 New state    586 was old state    585
 New state    587 was old state    591
 New state    588 was old state    590
 New state    589 was old state    593
 New state    590 was old state    587
 New state    591 was old state    592
 New state    592 was old state    596
 New state    593 was old state    588
 New state    596 was old state    598
 New state    597 was old state    599
 New state    598 was old state    606
 New state    599 was old state    597
 New state    600 was old state    601
 New state    601 was old state    600
 New state    602 was old state    605
 New state    603 was old state    604
 New state    604 was old state    602
 New state    605 was old state    609
 New state    606 was old state    603
 New state    607 was old state    617
 No map to state    608
 New state    609 was old state    608
 New state    610 was old state    607
 New state    611 was old state    610
 New state    613 was old state    614
 New state    614 was old state    611
 New state    615 was old state    613
 New state    616 was old state    615
 New state    617 was old state    619
 New state    618 was old state    616
 New state    619 was old state    618
 New state    620 was old state    621
 New state    621 was old state    620
 New state    622 was old state    623
 New state    623 was old state    622
 New state    624 was old state    625
 New state    625 was old state    624
 New state    626 was old state    628
 New state    627 was old state    631
 New state    628 was old state    626
 New state    630 was old state    632
 New state    631 was old state    633
 New state    632 was old state    630
 New state    633 was old state    627
 New state    634 was old state    635
 New state    635 was old state    634
 New state    636 was old state    637
 New state    637 was old state    636
 New state    638 was old state    639
 New state    639 was old state    641
 New state    641 was old state    646
 New state    642 was old state    648
 New state    643 was old state    642
 New state    644 was old state    649
 New state    645 was old state    650
 New state    646 was old state    638
 New state    647 was old state    643
 New state    648 was old state    647
 New state    649 was old state    652
 New state    650 was old state    644
 New state    651 was old state    655
 New state    652 was old state    653
 New state    653 was old state    651
 New state    654 was old state    645
 New state    655 was old state    656
 New state    656 was old state    654
 New state    657 was old state    659
 New state    658 was old state    660
 New state    659 was old state    657
 New state    660 was old state    661
 New state    661 was old state    658
 New state    663 was old state    664
 New state    664 was old state    663
 New state    665 was old state    666
 New state    666 was old state    667
 New state    667 was old state    665
 New state    668 was old state    669
 New state    669 was old state    668
 New state    670 was old state    676
 New state    671 was old state    675
 New state    673 was old state    670
 New state    674 was old state    673
 New state    675 was old state    671
 New state    676 was old state    677
 New state    677 was old state    674
 New state    679 was old state    686
 New state    680 was old state    679
 New state    683 was old state    685
 New state    684 was old state    683
 New state    685 was old state    680
 New state    686 was old state    684
 New state    687 was old state    688
 New state    688 was old state    693
 New state    689 was old state    692
 New state    691 was old state    689
 New state    692 was old state    687
 New state    693 was old state    691
 New state    695 was old state    697
 New state    696 was old state    695
 New state    697 was old state    698
 New state    698 was old state    699
 New state    699 was old state    696
 New state    701 was old state    703
 New state    702 was old state    704
 New state    703 was old state    702
 New state    704 was old state    707
 New state    705 was old state    712
 New state    706 was old state    705
 New state    707 was old state    706
 New state    708 was old state    711
 New state    709 was old state    701
 New state    710 was old state    713
 New state    711 was old state    714
 New state    712 was old state    710
 New state    713 was old state    709
 New state    714 was old state    715
 New state    715 was old state    716
 New state    716 was old state    717
 New state    717 was old state    718
 New state    718 was old state    720
 New state    719 was old state    708
 New state    720 was old state    722
 New state    722 was old state    723
 New state    723 was old state    719
 New state    725 was old state    726
 New state    726 was old state    725
 New state    727 was old state    728
 New state    728 was old state    727
 New state    729 was old state    732
 New state    730 was old state    731
 New state    731 was old state    733
 New state    732 was old state    730
 New state    733 was old state    737
 New state    734 was old state    735
 New state    735 was old state    738
 New state    736 was old state    734
 New state    737 was old state    741
 New state    738 was old state    739
 New state    739 was old state    736
 New state    740 was old state    742
 New state    741 was old state    743
 New state    742 was old state    745
 New state    743 was old state    747
 New state    745 was old state    748
 New state    746 was old state    751
 New state    747 was old state    740
 New state    748 was old state    746
 New state    749 was old state    752
 New state    751 was old state    749
 New state    752 was old state    758
 New state    756 was old state    766
 New state    757 was old state    759
 New state    758 was old state    774
 New state    759 was old state    756
 New state    760 was old state    763
 New state    761 was old state    757
 New state    762 was old state    764
 New state    763 was old state    760
 New state    764 was old state    762
 New state    766 was old state    761
 New state    767 was old state    768
 New state    768 was old state    767
 New state    769 was old state    771
 New state    770 was old state    776
 New state    771 was old state    770
 New state    773 was old state    769
 New state    774 was old state    773
 New state    776 was old state    778
 New state    778 was old state    781
 New state    779 was old state    782
 New state    780 was old state    783
 New state    781 was old state    784
 New state    782 was old state    779
 New state    783 was old state    785
 New state    784 was old state    780
 New state    785 was old state    789
 New state    786 was old state    791
 New state    787 was old state    790
 New state    788 was old state    786
 New state    789 was old state    787
 New state    790 was old state    792
 New state    791 was old state    788
 New state    792 was old state    795
 New state    793 was old state    799
 New state    794 was old state    800
 New state    795 was old state    796
 New state    796 was old state    797
 New state    797 was old state    793
 New state    798 was old state    801
 New state    799 was old state    802
 New state    800 was old state    798
 New state    801 was old state    794
 New state    802 was old state    806
 New state    803 was old state    804
 New state    804 was old state    808
 New state    805 was old state    803
 New state    806 was old state    805
 New state    808 was old state    810
 New state    809 was old state    812
 New state    810 was old state    811
 New state    811 was old state    809
 New state    812 was old state    813
 New state    813 was old state    815
 New state    814 was old state    817
 New state    815 was old state    816
 New state    816 was old state    822
 New state    817 was old state    818
 New state    818 was old state    825
 New state    820 was old state    824
 New state    821 was old state    820
 New state    822 was old state    821
 New state    823 was old state    814
 New state    824 was old state    823
 New state    825 was old state    826
 New state    826 was old state    834
 New state    827 was old state    828
 New state    828 was old state    829
 New state    829 was old state    830
 New state    830 was old state    831
 New state    831 was old state    833
 New state    833 was old state    835
 New state    834 was old state    836
 New state    835 was old state    827
 New state    836 was old state    837
 New state    837 was old state    839
 No map to state    839
 New state    840 was old state    844
 New state    841 was old state    840
 New state    842 was old state    843
 New state    843 was old state    841
 New state    844 was old state    842
 New state    846 was old state    848
 New state    847 was old state    846
 New state    848 was old state    847
 New state    849 was old state    850
 New state    850 was old state    851
 New state    851 was old state    852
 New state    852 was old state    849
 New state    853 was old state    856
 New state    854 was old state    853
 New state    856 was old state    857
 New state    857 was old state    861
 New state    860 was old state    862
 New state    861 was old state    860
 New state    862 was old state    864
 New state    863 was old state    868
 New state    864 was old state    865
 New state    865 was old state    863
 New state    866 was old state    867
 New state    867 was old state    869
 New state    868 was old state    870
 New state    869 was old state    871
 New state    870 was old state    866
 New state    871 was old state    873
 New state    872 was old state    875
 New state    873 was old state    874
 New state    874 was old state    872
 New state    875 was old state    878
 New state    876 was old state    886
 New state    877 was old state    879
 New state    878 was old state    876
 New state    879 was old state    883
 New state    880 was old state    882
 New state    881 was old state    880
 New state    882 was old state    881
 New state    883 was old state    891
 New state    884 was old state    877
 New state    886 was old state    890
 New state    889 was old state    892
 New state    890 was old state    894
 New state    891 was old state    884
 New state    892 was old state    889
 New state    893 was old state    897
 New state    894 was old state    898
 New state    895 was old state    893
 New state    897 was old state    895
 New state    898 was old state    902
 New state    900 was old state    904
 New state    901 was old state    900
 New state    902 was old state    903
 New state    903 was old state    901
 New state    904 was old state    905
 New state    905 was old state    908
 New state    906 was old state    915
 New state    907 was old state    906
 New state    908 was old state    907
 New state    909 was old state    916
 New state    910 was old state    911
 New state    911 was old state    910
 New state    912 was old state    909
 New state    913 was old state    921
 New state    914 was old state    913
 New state    915 was old state    912
 New state    916 was old state    918
 New state    918 was old state    914
 New state    921 was old state    922
 New state    922 was old state    923
 New state    923 was old state    926
 New state    924 was old state    925
 New state    925 was old state    929
 New state    926 was old state    928
 New state    928 was old state    931
 New state    929 was old state    930
 New state    930 was old state    924
 New state    931 was old state    933
 New state    933 was old state    935
 New state    935 was old state    938
 New state    938 was old state    941
 No map to state    941
 New state    943 was old state    944
 New state    944 was old state    943
 New state    946 was old state    948
 New state    947 was old state    946
 New state    948 was old state    950
 New state    950 was old state    947
 New state    953 was old state    954
 New state    954 was old state    955
 New state    955 was old state    958
 New state    957 was old state    960
 New state    958 was old state    959
 New state    959 was old state    953
 New state    960 was old state    961
 New state    961 was old state    957
 New state    962 was old state    963
 New state    963 was old state    964
 New state    964 was old state    962
 New state    965 was old state    966
 New state    966 was old state    970
 New state    967 was old state    968
 New state    968 was old state    965
 New state    969 was old state    967
 New state    970 was old state    969
 New state    971 was old state    972
 New state    972 was old state    975
 New state    973 was old state    971
 New state    975 was old state    977
 New state    976 was old state    981
 New state    977 was old state    976
 New state    978 was old state    980
 New state    979 was old state    982
 New state    980 was old state    988
 New state    981 was old state    978
 New state    982 was old state    979
 New state    983 was old state    984
 New state    984 was old state    983
 New state    985 was old state    986
 New state    986 was old state    985
 New state    987 was old state    990
 New state    988 was old state    987
 New state    990 was old state    991
 New state    991 was old state    996
 New state    992 was old state    993
 New state    993 was old state    994
 New state    994 was old state    992
 New state    995 was old state   1003
 New state    996 was old state    997
 New state    997 was old state    995
 New state    999 was old state   1001
 New state   1000 was old state   1004
 New state   1001 was old state    999
 New state   1003 was old state   1000
 New state   1004 was old state   1009
 New state   1006 was old state   1007
 New state   1007 was old state   1006
 New state   1009 was old state   1013
 New state   1013 was old state   1022
 New state   1016 was old state   1017
 New state   1017 was old state   1016
 New state   1018 was old state   1019
 New state   1019 was old state   1018
 New state   1022 was old state   1024
 No map to state   1024
 Excitation Energies [eV] at current iteration:
 Root      1 :     6.467163170886819
 Root      2 :     7.626283765263831
 Root      3 :     7.725399209679097
 Root      4 :     8.520544761185192
 Root      5 :     8.979028423751254
 Root      6 :     9.341796766737755
 Root      7 :     9.463875148559325
 Root      8 :     9.765961500072278
 Root      9 :     9.962589124753217
 Root     10 :    10.064760879857840
 Root     11 :    10.142933296570350
 Root     12 :    10.277728436596710
 Root     13 :    10.488109313384500
 Root     14 :    10.629247784091130
 Root     15 :    10.726360623080020
 Root     16 :    10.820336254863890
 Root     17 :    10.910353854945970
 Root     18 :    10.989842714433320
 Root     19 :    11.171772272314250
 Root     20 :    11.261629751116010
 Root     21 :    11.320078657744560
 Root     22 :    11.434797373245000
 Root     23 :    11.589587738115210
 Root     24 :    11.753801908568840
 Root     25 :    11.839124258091450
 Root     26 :    11.890325660900140
 Root     27 :    11.954697348159600
 Root     28 :    12.000145405198430
 Root     29 :    12.094041327278330
 Root     30 :    12.153882857514030
 Root     31 :    12.226152817435710
 Root     32 :    12.375949315102080
 Root     33 :    12.385554367038950
 Root     34 :    12.495905576005470
 Root     35 :    12.598099966505950
 Root     36 :    12.692199988408920
 Root     37 :    12.764146983243240
 Root     38 :    12.829582006819610
 Root     39 :    12.884473127214370
 Root     40 :    12.962741721390500
 Root     41 :    13.019850314088730
 Root     42 :    13.069643027044420
 Root     43 :    13.074280270894080
 Root     44 :    13.143850651961750
 Root     45 :    13.190357400150590
 Root     46 :    13.294400543412920
 Root     47 :    13.467501049085520
 Root     48 :    13.512920644406960
 Root     49 :    13.639311100661290
 Root     50 :    13.673087967720320
 Root     51 :    13.708148067566090
 Root     52 :    13.713749353107390
 Root     53 :    13.850300433359190
 Root     54 :    13.893651881195930
 Root     55 :    13.925244682305840
 Root     56 :    14.025049182391390
 Root     57 :    14.052439700685460
 Root     58 :    14.093964811053410
 Root     59 :    14.149022370026920
 Root     60 :    14.205384797855580
 Root     61 :    14.271318096294980
 Root     62 :    14.355073474272820
 Root     63 :    14.462706689428320
 Root     64 :    14.503720460974670
 Root     65 :    14.545737226013060
 Root     66 :    14.650709094035310
 Root     67 :    14.688662269801800
 Root     68 :    14.727057118919560
 Root     69 :    14.786797140006490
 Root     70 :    14.820712562516360
 Root     71 :    14.849495290303100
 Root     72 :    14.902039457362490
 Root     73 :    14.965663548749720
 Root     74 :    14.997670930764790
 Root     75 :    15.063087773815850
 Root     76 :    15.087647616428770
 Root     77 :    15.113733413723080
 Root     78 :    15.193992666084460
 Root     79 :    15.316425240639400
 Root     80 :    15.342701533713190
 Root     81 :    15.447501398836700
 Root     82 :    15.551501073397340
 Root     83 :    15.570807066014630
 Root     84 :    15.623008953290830
 Root     85 :    15.663414476425950
 Root     86 :    15.696764852603750
 Root     87 :    15.721572392331010
 Root     88 :    15.756717652789750
 Root     89 :    15.807296354448330
 Root     90 :    15.920433174771280
 Root     91 :    15.979890818002780
 Root     92 :    15.997546056464400
 Root     93 :    16.122182003895090
 Root     94 :    16.163043803030870
 Root     95 :    16.190180373853970
 Root     96 :    16.213651902367840
 Root     97 :    16.229191750253670
 Root     98 :    16.308296374719980
 Root     99 :    16.379428636038440
 Root    100 :    16.421402146502320
 Root    101 :    16.484224588900370
 Root    102 :    16.504173204658150
 Root    103 :    16.540681288538100
 Root    104 :    16.617967909914610
 Root    105 :    16.686153854300770
 Root    106 :    16.736193854915520
 Root    107 :    16.775653391318550
 Root    108 :    16.804201605901900
 Root    109 :    16.824707811055160
 Root    110 :    16.869767799916700
 Root    111 :    16.925233395603510
 Root    112 :    16.981444191712760
 Root    113 :    17.039844971568170
 Root    114 :    17.055271246852670
 Root    115 :    17.121449247469130
 Root    116 :    17.166057674076090
 Root    117 :    17.180133428940130
 Root    118 :    17.250621143060170
 Root    119 :    17.302470191966590
 Root    120 :    17.408102412094080
 Root    121 :    17.461771976494360
 Root    122 :    17.494067386365120
 Root    123 :    17.581801775191210
 Root    124 :    17.602434174939640
 Root    125 :    17.635493050262300
 Root    126 :    17.663479865060700
 Root    127 :    17.706534471002280
 Root    128 :    17.770380797408140
 Root    129 :    17.804094847768170
 Root    130 :    17.853793702495230
 Root    131 :    17.897256504674500
 Root    132 :    17.932585889641530
 Root    133 :    17.975157816044480
 Root    134 :    17.983560134359560
 Root    135 :    17.998994215695010
 Root    136 :    18.018358551485780
 Root    137 :    18.070027931574930
 Root    138 :    18.167534991816310
 Root    139 :    18.195923067311630
 Root    140 :    18.209335702459990
 Root    141 :    18.238909599869060
 Root    142 :    18.292899759164620
 Root    143 :    18.315702467544110
 Root    144 :    18.395045477083830
 Root    145 :    18.485148342632130
 Root    146 :    18.519648067451350
 Root    147 :    18.548807724347830
 Root    148 :    18.565564141313300
 Root    149 :    18.630532245268910
 Root    150 :    18.639115783127590
 Root    151 :    18.675272944935040
 Root    152 :    18.690568772109020
 Root    153 :    18.767502688441920
 Root    154 :    18.775379851285710
 Root    155 :    18.812649983260520
 Root    156 :    18.867110106422340
 Root    157 :    18.906623441262710
 Root    158 :    18.930244905083650
 Root    159 :    19.011775583125130
 Root    160 :    19.026139595035030
 Root    161 :    19.056427025378470
 Root    162 :    19.100958639639970
 Root    163 :    19.117762364803190
 Root    164 :    19.134958265119870
 Root    165 :    19.182914895463820
 Root    166 :    19.217190401802950
 Root    167 :    19.255493090115690
 Root    168 :    19.284613794771370
 Root    169 :    19.332820251426630
 Root    170 :    19.386110785551020
 Root    171 :    19.438564029200100
 Root    172 :    19.469364381024580
 Root    173 :    19.552342437615720
 Root    174 :    19.601334486256000
 Root    175 :    19.615763788275170
 Root    176 :    19.656538743074680
 Root    177 :    19.699049229546400
 Root    178 :    19.742334727506540
 Root    179 :    19.772539678956990
 Root    180 :    19.818070532368040
 Root    181 :    19.871675432639390
 Root    182 :    19.883092943430420
 Root    183 :    19.889421236744080
 Root    184 :    19.988764060013310
 Root    185 :    20.048873663228960
 Root    186 :    20.092417011386830
 Root    187 :    20.126040613622660
 Root    188 :    20.145150426099010
 Root    189 :    20.232413684446270
 Root    190 :    20.274000444013730
 Root    191 :    20.316877688812080
 Root    192 :    20.348995195064990
 Root    193 :    20.380217275688790
 Root    194 :    20.400349632233480
 Root    195 :    20.490311376249050
 Root    196 :    20.539403875412780
 Root    197 :    20.597092216621100
 Root    198 :    20.620360831312050
 Root    199 :    20.635640647764780
 Root    200 :    20.659370826945170
 Root    201 :    20.689213863798550
 Root    202 :    20.707532297532450
 Root    203 :    20.739820731123120
 Root    204 :    20.766341268418220
 Root    205 :    20.774636951562120
 Root    206 :    20.811745054947540
 Root    207 :    20.885362957121970
 Root    208 :    20.898634721689770
 Root    209 :    20.928382500522560
 Root    210 :    20.989983873928320
 Root    211 :    21.028138088117030
 Root    212 :    21.049076269240230
 Root    213 :    21.104775928754140
 Root    214 :    21.152957854046300
 Root    215 :    21.174271988640750
 Root    216 :    21.197809105954270
 Root    217 :    21.216484011784840
 Root    218 :    21.275711847631080
 Root    219 :    21.337808442047840
 Root    220 :    21.386567189706990
 Root    221 :    21.429082116676120
 Root    222 :    21.451027004067060
 Root    223 :    21.505947418122090
 Root    224 :    21.584820073389550
 Root    225 :    21.598969403377240
 Root    226 :    21.627321429297310
 Root    227 :    21.682575118469540
 Root    228 :    21.732503122587010
 Root    229 :    21.798025883434040
 Root    230 :    21.809378300916820
 Root    231 :    21.877906222761620
 Root    232 :    21.905235397308540
 Root    233 :    21.932179387312830
 Root    234 :    21.951873996035590
 Root    235 :    21.971191989732550
 Root    236 :    21.981824984165050
 Root    237 :    22.015930246566440
 Root    238 :    22.053697176701700
 Root    239 :    22.068044277546970
 Root    240 :    22.113351436162130
 Root    241 :    22.125264531115550
 Root    242 :    22.177696947426590
 Root    243 :    22.218174399550680
 Root    244 :    22.262541789564910
 Root    245 :    22.311475364272280
 Root    246 :    22.343035371274260
 Root    247 :    22.408744067650150
 Root    248 :    22.421603258665940
 Root    249 :    22.461568058995520
 Root    250 :    22.505793904688710
 Root    251 :    22.579335225522590
 Root    252 :    22.605704715386230
 Root    253 :    22.611677826752270
 Root    254 :    22.687678885707620
 Root    255 :    22.737644635081760
 Root    256 :    22.776096610078160
 Root    257 :    22.812779380162040
 Root    258 :    22.825704129275930
 Root    259 :    22.869024106621620
 Root    260 :    22.889353312341170
 Root    261 :    22.926209206663770
 Root    262 :    22.979320311348180
 Root    263 :    23.026633011482990
 Root    264 :    23.065517562651990
 Root    265 :    23.100119177948470
 Root    266 :    23.209378794700680
 Root    267 :    23.220743977873250
 Root    268 :    23.258832698199710
 Root    269 :    23.289749965459340
 Root    270 :    23.310199840904730
 Root    271 :    23.320763009754440
 Root    272 :    23.365471414812110
 Root    273 :    23.379355074300450
 Root    274 :    23.400257855485680
 Root    275 :    23.428390003750990
 Root    276 :    23.485676136853840
 Root    277 :    23.529502943643770
 Root    278 :    23.593721188013230
 Root    279 :    23.628279007198510
 Root    280 :    23.656803460769970
 Root    281 :    23.688371639343710
 Root    282 :    23.711512181595240
 Root    283 :    23.749044024376970
 Root    284 :    23.798348855225980
 Root    285 :    23.813420586039500
 Root    286 :    23.854015444130770
 Root    287 :    23.887786778708650
 Root    288 :    23.962434694872440
 Root    289 :    24.041734657682620
 Root    290 :    24.065995166818710
 Root    291 :    24.082269469818190
 Root    292 :    24.145109473668910
 Root    293 :    24.163800461793580
 Root    294 :    24.218689317820160
 Root    295 :    24.229018185357780
 Root    296 :    24.271991389781610
 Root    297 :    24.311165312488920
 Root    298 :    24.343787158687780
 Root    299 :    24.369000850115310
 Root    300 :    24.381199922995560
 Root    301 :    24.487763521894490
 Root    302 :    24.558588315642930
 Root    303 :    24.657761816214360
 Root    304 :    24.673317911497250
 Root    305 :    24.707015446460980
 Root    306 :    24.754481183809680
 Root    307 :    24.845343141107250
 Root    308 :    24.863473198217540
 Root    309 :    24.930905195108410
 Root    310 :    24.951014625353520
 Root    311 :    24.966408523732560
 Root    312 :    25.023121215757610
 Root    313 :    25.063227478384580
 Root    314 :    25.097420025738030
 Root    315 :    25.192614417571750
 Root    316 :    25.203816301478690
 Root    317 :    25.290883677528580
 Root    318 :    25.299192567278220
 Root    319 :    25.379240801579640
 Root    320 :    25.412635762331840
 Root    321 :    25.470252193127230
 Root    322 :    25.503395415628700
 Root    323 :    25.558710145878710
 Root    324 :    25.645759716327300
 Root    325 :    25.672498936332650
 Root    326 :    25.702531773229880
 Root    327 :    25.732235762624560
 Root    328 :    25.789426534693440
 Root    329 :    25.809612462678030
 Root    330 :    25.868702251835820
 Root    331 :    25.885683043135070
 Root    332 :    25.933743974296320
 Root    333 :    25.972220737775110
 Root    334 :    26.017941368261520
 Root    335 :    26.031957286589340
 Root    336 :    26.064396615606970
 Root    337 :    26.110367305796800
 Root    338 :    26.144942911531070
 Root    339 :    26.187618304657000
 Root    340 :    26.276304860246670
 Root    341 :    26.304043961336360
 Root    342 :    26.388040385208800
 Root    343 :    26.421135982510310
 Root    344 :    26.455958750012840
 Root    345 :    26.544046688590150
 Root    346 :    26.573531951033540
 Root    347 :    26.681946810803500
 Root    348 :    26.702858827941300
 Root    349 :    26.753945800308190
 Root    350 :    26.759608062863940
 Root    351 :    26.857174229091270
 Root    352 :    26.925792086296210
 Root    353 :    26.978481063986590
 Root    354 :    27.018206996422080
 Root    355 :    27.138746693405310
 Root    356 :    27.178177358169290
 Root    357 :    27.223606529221640
 Root    358 :    27.251607716024500
 Root    359 :    27.260052123624570
 Root    360 :    27.312411446403840
 Root    361 :    27.364282815743380
 Root    362 :    27.387605783358140
 Root    363 :    27.405269825107380
 Root    364 :    27.470544479535410
 Root    365 :    27.518501044864120
 Root    366 :    27.675825721151730
 Root    367 :    27.726919114296520
 Root    368 :    27.746565084704890
 Root    369 :    27.807716162072730
 Root    370 :    27.904378548829930
 Root    371 :    27.973710657843350
 Root    372 :    28.064627077748260
 Root    373 :    28.122385250724240
 Root    374 :    28.201331867229080
 Root    375 :    28.282971528078670
 Root    376 :    28.329283198226240
 Root    377 :    28.346243049341830
 Root    378 :    28.399131374191130
 Root    379 :    28.507123445028500
 Root    380 :    28.526457350773280
 Root    381 :    28.568801647250080
 Root    382 :    28.660650404695040
 Root    383 :    28.689020321749650
 Root    384 :    28.779460611037790
 Root    385 :    28.824671926530700
 Root    386 :    28.840650428990380
 Root    387 :    28.906572064669270
 Root    388 :    28.930751729894250
 Root    389 :    29.005674929450910
 Root    390 :    29.126076958837880
 Root    391 :    29.169581124579870
 Root    392 :    29.223160087549010
 Root    393 :    29.277417256728630
 Root    394 :    29.288153369948390
 Root    395 :    29.365855891587960
 Root    396 :    29.425426325722550
 Root    397 :    29.453533525194590
 Root    398 :    29.466393677302040
 Root    399 :    29.520655813192680
 Root    400 :    29.599335341099160
 Root    401 :    29.648235472902390
 Root    402 :    29.716769182061230
 Root    403 :    29.815590701250400
 Root    404 :    29.908273488413920
 Root    405 :    29.956998558178400
 Root    406 :    29.992763867877990
 Root    407 :    30.033954748987070
 Root    408 :    30.119339095935540
 Root    409 :    30.148994672889200
 Root    410 :    30.185228626711610
 Root    411 :    30.302926897876730
 Root    412 :    30.388336546833810
 Root    413 :    30.473631156972630
 Root    414 :    30.568473567878400
 Root    415 :    30.572161537985960
 Root    416 :    30.609456192467080
 Root    417 :    30.861888375740030
 Root    418 :    30.899530378375790
 Root    419 :    30.957199068384280
 Root    420 :    30.985970808441980
 Root    421 :    31.043677171090330
 Root    422 :    31.100824275492340
 Root    423 :    31.189072585107560
 Root    424 :    31.255398265391810
 Root    425 :    31.361724958548030
 Root    426 :    31.429209688789540
 Root    427 :    31.460871857388390
 Root    428 :    31.667201671540430
 Root    429 :    31.706782513972890
 Root    430 :    31.754279081117800
 Root    431 :    31.783448813418220
 Root    432 :    31.888000458628740
 Root    433 :    31.943475963692890
 Root    434 :    31.991511165066590
 Root    435 :    32.141013870605610
 Root    436 :    32.242738889088510
 Root    437 :    32.269634799107000
 Root    438 :    32.430801700969360
 Root    439 :    32.462147045722820
 Root    440 :    32.587216985735370
 Root    441 :    32.670086999561280
 Root    442 :    32.694890434590550
 Root    443 :    32.763079415559330
 Root    444 :    32.796371565083140
 Root    445 :    32.864287196150780
 Root    446 :    33.020361259597710
 Root    447 :    33.088909611227240
 Root    448 :    33.146181195865100
 Root    449 :    33.288734293374710
 Root    450 :    33.354266223377220
 Root    451 :    33.433381983163140
 Root    452 :    33.494443032414240
 Root    453 :    33.569036842093470
 Root    454 :    33.622414725830470
 Root    455 :    33.703201235523220
 Root    456 :    33.739456118377980
 Root    457 :    33.770691100517470
 Root    458 :    33.831415535882310
 Root    459 :    33.910513343398120
 Root    460 :    33.936666696018720
 Root    461 :    34.014377046646760
 Root    462 :    34.084174879162810
 Root    463 :    34.115447832316650
 Root    464 :    34.195842878528300
 Root    465 :    34.350886038423330
 Root    466 :    34.394744539242520
 Root    467 :    34.451288855339920
 Root    468 :    34.487715786343180
 Root    469 :    34.632788231415980
 Root    470 :    34.654566389800570
 Root    471 :    34.687493288225160
 Root    472 :    34.738335527880660
 Root    473 :    34.773509931233010
 Root    474 :    34.834909068972410
 Root    475 :    34.994287579827020
 Root    476 :    35.065409042609110
[...]
     16  -0.839154D-01  0.244879D-01  0.130718D+00  0.238688D-01 -0.126072D+00
               961           962           963           964           965 
      1  -0.131655D+03 -0.131648D+03 -0.131636D+03 -0.131634D+03 -0.131628D+03
      2  -0.131962D-01 -0.754815D-01 -0.163867D-01 -0.280426D-01 -0.973778D-01
      3  -0.127629D-01 -0.642787D-02  0.234227D-01  0.894641D-02  0.279525D-01
      4  -0.238636D-02  0.936532D-02 -0.231288D-02 -0.158440D-01 -0.310778D-01
      5   0.537016D-01  0.229879D+00  0.396284D-01  0.946909D-01  0.299031D+00
      6   0.285566D-01  0.188501D-01 -0.784370D-01 -0.273751D-01 -0.934733D-01
      7   0.225607D-02 -0.238114D-01  0.502176D-02  0.453374D-01  0.984922D-01
      8  -0.158014D-01 -0.195453D+00  0.734253D-01  0.449494D-01 -0.720021D-01
      9  -0.202090D+00 -0.686147D-03 -0.167438D+00  0.210040D+00 -0.101128D+00
     10  -0.979648D-01 -0.613570D+00 -0.259158D-01  0.711464D-01  0.353295D+00
     11   0.327750D+00 -0.330360D+00  0.306080D+00  0.502712D+00  0.372484D+00
     12   0.452322D-02  0.842563D-02  0.196916D+00  0.183521D+00 -0.107247D+00
     13  -0.134009D-01 -0.439886D-01  0.730755D-01  0.598367D-01 -0.884615D-01
     14  -0.202083D+00 -0.407011D+00 -0.730929D-01 -0.987711D-01  0.181940D+00
     15   0.908542D-01  0.475608D-03  0.856524D-01 -0.320915D+00  0.439836D-01
     16  -0.493253D-01 -0.102518D+00  0.115234D+00  0.973051D-01 -0.720417D-01
               966           967           968           969           970 
      1  -0.131622D+03 -0.131619D+03 -0.131612D+03 -0.131608D+03 -0.131600D+03
      2   0.421114D-02 -0.824040D-02 -0.381753D-01  0.523405D-01  0.398797D-02
      3  -0.514002D-01 -0.770566D-01 -0.123651D-01 -0.397102D-01  0.254922D-01
      4   0.215325D-01 -0.149956D-01  0.112963D-01  0.319826D-02  0.169482D-01
      5  -0.240288D-01  0.252436D-01  0.119341D+00 -0.148397D+00 -0.215862D-01
      6   0.156140D+00  0.231100D+00  0.324604D-01  0.119113D+00 -0.614451D-01
      7  -0.543996D-01  0.477794D-01 -0.328256D-01 -0.107915D-01 -0.522793D-01
      8   0.246039D-01 -0.936687D-01 -0.432380D-01  0.441781D-01  0.108891D-01
      9  -0.368733D+00 -0.253478D+00 -0.124248D+00  0.108207D+00  0.244244D+00
     10   0.254416D+00 -0.123820D+00  0.839703D-01  0.157087D+00  0.170948D+00
     11  -0.204507D+00  0.153941D+00 -0.454680D+00  0.697580D+00 -0.575905D+00
     12   0.719472D-02  0.281192D+00  0.898145D-01  0.439601D-01  0.151832D-01
     13  -0.165016D+00 -0.127915D+00 -0.504912D-01 -0.119821D-01  0.754986D-01
     14   0.140104D+00  0.327998D-01 -0.248171D+00  0.272856D+00 -0.705731D-01
     15   0.481443D+00  0.270318D+00  0.124238D+00 -0.129122D+00 -0.204519D+00
     16  -0.745993D-01 -0.701666D-01 -0.193734D-01  0.110429D-01  0.100053D+00
               971           972           973           974           975 
      1  -0.131594D+03 -0.131578D+03 -0.131574D+03 -0.131570D+03 -0.131564D+03
      2   0.176723D-01 -0.176117D-01 -0.513249D-02  0.414318D-01  0.179435D-01
      3  -0.170254D-02  0.803571D-01  0.149526D-01 -0.316099D-01  0.388931D-01
      4  -0.209629D-01  0.140544D-01 -0.726169D-02  0.362116D-01 -0.481897D-01
      5  -0.561724D-01  0.623325D-01  0.141480D-01 -0.129505D+00 -0.542828D-01
      6   0.418681D-02 -0.232794D+00 -0.477210D-01  0.946879D-01 -0.126406D+00
      7   0.660151D-01 -0.460062D-01  0.201441D-01 -0.114923D+00  0.155012D+00
      8   0.850177D-01 -0.558027D-01 -0.292817D-02 -0.284891D-01 -0.415654D-01
      9  -0.290128D-01 -0.446905D+00  0.127246D+00 -0.963112D-01  0.676247D-01
     10   0.832932D-02  0.243912D+00 -0.123019D+00 -0.838189D-01  0.702376D-01
     11   0.500481D+00  0.175778D+00 -0.270931D+00  0.404490D+00  0.193935D+00
     12  -0.899589D-01 -0.337378D-02  0.108851D+00 -0.155974D+00 -0.271780D-02
     13   0.496683D-01 -0.917084D-01  0.112347D-01  0.321749D-01 -0.844118D-01
     14  -0.830726D-01  0.281338D+00 -0.168115D+00 -0.878944D-01  0.147440D+00
     15   0.139889D+00  0.457008D+00 -0.148384D-01  0.150809D+00 -0.323059D-01
     16   0.233983D-01 -0.896191D-01  0.112179D+00 -0.317540D-01 -0.735932D-01
               976           977           978           979           980 
      1  -0.131556D+03 -0.131545D+03 -0.131538D+03 -0.131533D+03 -0.131531D+03
      2  -0.153993D-01 -0.145983D-01  0.223625D-02 -0.768842D-02 -0.861692D-01
      3  -0.456997D-03 -0.149367D-01  0.384243D-01  0.422053D-01  0.550472D-01
      4  -0.391826D-01 -0.381614D-01  0.141846D-01 -0.220614D-01  0.177506D-01
      5   0.529906D-01  0.475330D-01 -0.154556D-02  0.339912D-01  0.269067D+00
      6   0.799205D-02  0.465489D-01 -0.120823D+00 -0.140866D+00 -0.177208D+00
      7   0.118299D+00  0.111456D+00 -0.392879D-01  0.640465D-01 -0.528669D-01
      8   0.516071D-01  0.457213D-01 -0.506970D-01  0.122390D+00  0.365595D-03
      9  -0.142585D+00  0.150855D+00 -0.270029D-01  0.223988D+00  0.178787D-01
     10   0.290792D+00 -0.126641D+00  0.217386D+00 -0.623077D-01 -0.228649D+00
     11  -0.370894D+00  0.249819D-01 -0.161994D+00  0.259205D+00  0.138422D+01
     12  -0.135169D+00 -0.920094D-01 -0.314646D+00  0.298766D-01  0.210858D+00
     13  -0.709625D-01  0.123197D+00  0.315952D-01  0.433131D-01  0.303296D-01
     14   0.144703D+00 -0.896351D-01  0.116467D+00  0.137261D-01 -0.605816D+00
     15   0.172482D+00 -0.121146D+00 -0.191746D-01 -0.215509D+00 -0.235848D-01
     16  -0.260228D-01  0.961015D-02 -0.111977D+00  0.170136D+00  0.994091D-01
               981           982           983           984           985 
      1  -0.131525D+03 -0.131519D+03 -0.131510D+03 -0.131505D+03 -0.131496D+03
      2   0.165933D-01  0.585291D-01 -0.451968D-01  0.246951D-01 -0.160542D-01
      3  -0.745956D-02 -0.516744D-01  0.397839D-01 -0.104942D-01  0.100457D-03
      4   0.217598D-01  0.378303D-01  0.314610D-02  0.622065D-02  0.440469D-01
      5  -0.560235D-01 -0.188019D+00  0.153647D+00 -0.750512D-01  0.490868D-01
      6   0.355747D-01  0.162011D+00 -0.136653D+00  0.453655D-01 -0.124184D-01
      7  -0.647787D-01 -0.110496D+00 -0.274147D-01 -0.245697D-01 -0.123799D+00
      8  -0.327592D-02 -0.342047D-01  0.353795D-02  0.874599D-01  0.566489D-02
      9   0.746219D-01 -0.165094D-01 -0.113945D+00  0.337431D-01  0.522176D-01
     10   0.637541D-01  0.370612D+00 -0.219823D+00  0.140347D+00 -0.146882D+00
     11  -0.281611D-01 -0.377044D+00  0.288383D+00 -0.521433D+00 -0.466714D+00
     12  -0.166460D-02 -0.902929D-01  0.123084D+00  0.336939D-01  0.795680D-01
     13  -0.465751D-01 -0.885935D-01  0.484398D-01  0.677363D-01  0.129100D+00
     14   0.220832D+00  0.496826D+00 -0.297610D+00  0.251549D+00 -0.126663D+00
     15  -0.502065D-01  0.305386D-01  0.102756D+00 -0.363936D-01 -0.450649D-01
     16   0.763627D-02 -0.149387D+00  0.811760D-01  0.129966D+00  0.622056D-01
               986           987           988           989           990 
      1  -0.131491D+03 -0.131483D+03 -0.131470D+03 -0.131461D+03 -0.131452D+03
      2   0.331977D-01  0.554261D-01 -0.200021D-01 -0.255661D-01  0.148604D-02
      3  -0.357507D-03  0.111100D-02  0.169047D-01  0.469072D-02 -0.147850D-01
      4  -0.253776D-01  0.627264D-02  0.136767D-01  0.558600D-03 -0.635692D-02
      5  -0.981760D-01 -0.163690D+00  0.474428D-01  0.678596D-01  0.427379D-02
      6   0.665102D-02  0.674433D-02 -0.471095D-01 -0.111704D-01  0.440415D-01
      7   0.724716D-01 -0.176621D-01 -0.394753D-01  0.116311D-02  0.126528D-01
      8   0.133537D-01 -0.358088D-01  0.608853D-01 -0.120379D+00  0.806598D-01
      9   0.707706D-01  0.171351D+00  0.128449D+00  0.121520D+00 -0.663328D-01
     10  -0.212747D-01 -0.941877D-01  0.741159D-01  0.123783D+00 -0.282479D+00
     11   0.777267D-01  0.136346D+00 -0.551795D+00 -0.351575D+00 -0.257675D+00
     12  -0.663738D-01 -0.516578D-01 -0.121392D+00  0.256719D-01 -0.232629D+00
     13  -0.184261D-01 -0.275432D-01 -0.407081D-02 -0.110724D-01  0.637524D-01
     14   0.162761D+00  0.102028D+00  0.210715D+00  0.173917D+00 -0.550259D+00
     15  -0.461418D-01 -0.119296D+00 -0.103529D+00 -0.114747D+00  0.238048D-01
     16   0.125036D-01  0.135580D-01  0.122653D+00 -0.180712D+00  0.349934D-02
               991           992           993           994           995 
      1  -0.131444D+03 -0.131425D+03 -0.131423D+03 -0.131415D+03 -0.131407D+03
      2   0.969646D-02  0.230855D-01 -0.144260D-01  0.617597D-03  0.687157D-02
      3  -0.101345D-01 -0.127719D-01  0.107932D-01 -0.276182D-02  0.389129D-01
      4   0.452851D-01 -0.640243D-02 -0.399990D-01 -0.133951D-01  0.281595D-01
      5  -0.383809D-01 -0.794284D-01  0.476584D-01 -0.220843D-01 -0.117137D-02
      6   0.350283D-01  0.465935D-01 -0.359670D-01  0.102727D-01 -0.124748D+00
      7  -0.143027D+00  0.245426D-01  0.117226D+00  0.441689D-01 -0.775046D-01
      8   0.156977D-01  0.644692D-01 -0.466417D-01 -0.284143D-01 -0.138702D+00
      9  -0.605380D-01  0.134585D+00  0.309780D+00 -0.147837D+00 -0.641876D-01
     10   0.173513D+00  0.189745D+00  0.106610D-02 -0.122030D+00 -0.756897D-01
     11  -0.258332D+00 -0.500539D+00 -0.478285D-01 -0.417621D+00  0.312012D-01
     12   0.122675D+00  0.873506D-01 -0.104901D+00  0.971630D-01 -0.150120D+00
     13  -0.107826D+00  0.113114D+00 -0.646843D-03 -0.392456D-01  0.637434D-01
     14   0.784437D-01  0.598092D-01 -0.272573D+00  0.616871D-01 -0.156440D+00
     15   0.282133D-01 -0.108132D+00 -0.330232D+00  0.170708D+00  0.428293D-01
     16  -0.655679D-01  0.865216D-01 -0.737272D-01  0.977733D-02 -0.900987D-01
               996           997           998           999          1000 
      1  -0.131388D+03 -0.131376D+03 -0.131366D+03 -0.131353D+03 -0.131340D+03
      2   0.271494D-01 -0.127272D-02 -0.336109D-01 -0.148211D-01 -0.694487D-01
      3  -0.542948D-02  0.220237D-01 -0.457882D-01 -0.118627D-02  0.828494D-01
      4  -0.261235D-01 -0.183156D-01  0.368651D-01  0.411819D-01  0.471397D-01
      5  -0.810920D-01  0.118436D-01  0.111539D+00  0.520213D-01  0.260782D+00
      6   0.949679D-02 -0.710648D-01  0.143767D+00 -0.165649D-01 -0.285625D+00
      7   0.763462D-01  0.502120D-01 -0.122805D+00 -0.125218D+00 -0.148737D+00
      8  -0.260199D-01  0.124355D+00  0.261933D-01  0.276916D-01 -0.558586D-01
      9   0.153912D+00  0.482120D-01  0.164102D+00 -0.147913D-02  0.221038D+00
     10  -0.197519D-01 -0.176940D+00  0.153557D+00 -0.599559D+00 -0.303086D+00
     11   0.262266D+00  0.909946D-01  0.396119D+00  0.378030D+00  0.903881D+00
     12   0.264178D+00 -0.135176D+00 -0.585427D-01 -0.752748D-01  0.334579D+00
     13  -0.516802D-01  0.643893D-01  0.143076D+00  0.140155D+00  0.372722D-02
     14   0.966500D-01 -0.154180D+00  0.984792D-01 -0.370113D+00 -0.482881D+00
     15  -0.660683D-01 -0.982445D-01 -0.223996D+00  0.175533D-01 -0.326806D+00
     16   0.495336D-01  0.164117D+00 -0.310865D-04  0.107483D-01  0.154185D+00
              1001          1002          1003          1004          1005 
      1  -0.131337D+03 -0.131326D+03 -0.131324D+03 -0.131319D+03 -0.131316D+03
      2   0.381867D-01 -0.219050D-01  0.158305D-01  0.599062D-01  0.308511D-01
      3  -0.565611D-01  0.154150D-01 -0.526077D-01  0.940388D-01 -0.291282D-01
      4  -0.321933D-01  0.834049D-02 -0.147318D-01 -0.491065D-01  0.126906D-01
      5  -0.135760D+00  0.860925D-01 -0.671648D-01 -0.202381D+00 -0.975788D-01
      6   0.179814D+00 -0.547582D-01  0.175172D+00 -0.307171D+00  0.102408D+00
      7   0.110885D+00 -0.183128D-01  0.424488D-01  0.161910D+00 -0.349212D-01
      8  -0.629387D-01 -0.588133D-01 -0.181265D+00 -0.127003D+00  0.470668D-01
      9  -0.139299D+00  0.355122D+00  0.153559D+00 -0.288800D+00 -0.316821D+00
     10   0.721166D-01 -0.255143D+00  0.193991D+00 -0.725665D+00  0.857021D-01
     11  -0.623315D+00  0.427755D+00 -0.109494D+00 -0.607524D+00 -0.690846D-01
     12  -0.229407D+00  0.126125D+00 -0.237640D+00  0.481349D-01 -0.122556D+00
     13   0.160392D-01  0.126692D-01  0.180488D-01 -0.462681D-01  0.340548D-01
     14   0.219289D+00 -0.129916D+00  0.186862D+00 -0.470345D+00  0.136404D+00
     15   0.144761D+00 -0.432260D+00 -0.540958D-01  0.292676D+00  0.370204D+00
     16  -0.768218D-01  0.194151D-01 -0.834066D-01  0.550251D-02 -0.511650D-01
              1006          1007          1008          1009          1010 
      1  -0.131298D+03 -0.131281D+03 -0.131266D+03 -0.131252D+03 -0.131235D+03
      2   0.197452D-01 -0.735281D-01  0.543023D-02 -0.117722D-01 -0.189755D-01
      3   0.168954D-01 -0.342821D-01  0.174424D-01 -0.674708D-02  0.500695D-01
      4   0.108604D-01  0.534712D-01  0.624641D-02  0.330258D-01 -0.985399D-02
      5  -0.507403D-01  0.248174D+00 -0.275526D-02  0.277370D-01  0.798710D-01
      6  -0.410608D-01  0.111416D+00 -0.509351D-01  0.148451D-01 -0.172517D+00
      7  -0.367894D-01 -0.174653D+00 -0.119800D-01 -0.104460D+00  0.289506D-01
      8   0.981354D-01  0.134221D+00 -0.884611D-01  0.558907D-01 -0.343608D-01
      9  -0.704120D-01  0.311181D+00 -0.198443D+00 -0.109910D+00 -0.686378D-01
     10   0.471397D-01  0.466744D+00  0.145815D-01  0.204548D-01 -0.262525D+00
     11   0.191283D+00  0.106874D+01  0.268551D+00 -0.233991D+00  0.892279D-01
     12  -0.463185D-02 -0.321662D+00 -0.116210D-01  0.112831D+00  0.337450D+00
     13  -0.652095D-02  0.174071D+00 -0.159928D-01 -0.596566D-01 -0.787094D-01
     14   0.163816D+00  0.189726D+00  0.378808D-01 -0.158736D+00 -0.300883D+00
     15   0.928913D-01 -0.455441D+00  0.267589D+00  0.147101D+00  0.246451D-01
     16  -0.610012D-03  0.170303D-01 -0.382835D-01  0.105665D-01  0.101417D+00
              1011          1012          1013          1014          1015 
      1  -0.131225D+03 -0.131219D+03 -0.131187D+03 -0.131147D+03 -0.131133D+03
      2   0.119647D-01 -0.720583D-02  0.262023D-01  0.120002D-01  0.577583D-02
      3   0.199888D-01  0.952875D-02 -0.451328D-01 -0.664762D-02 -0.652710D-01
      4  -0.346246D-02  0.349791D-01 -0.361637D-01  0.485786D-01  0.729802D-01
      5  -0.388322D-01  0.200776D-01 -0.767215D-01 -0.346028D-01 -0.275219D-01
      6  -0.624111D-01 -0.371089D-01  0.135396D+00  0.153445D-01  0.222393D+00
      7   0.154490D-01 -0.115280D+00  0.108888D+00 -0.149010D+00 -0.261558D+00
      8  -0.114919D+00  0.325132D-01  0.248479D-01 -0.442204D-01  0.139087D+00
      9  -0.105445D+00  0.239297D+00  0.707523D-01 -0.317717D+00  0.485144D+00
     10  -0.210037D+00 -0.547650D+00 -0.199598D+00 -0.168930D+00  0.388637D+00
     11  -0.245464D+00  0.375797D+00  0.281921D+00  0.124588D+00 -0.823554D-01
     12   0.198619D+00  0.134101D+00 -0.395353D-01  0.559702D-01 -0.229683D+00
     13  -0.693274D-01 -0.253451D-01  0.108674D+00 -0.220837D-01  0.200449D+00
     14  -0.211826D+00 -0.406559D+00 -0.243980D+00 -0.183498D+00  0.416606D+00
     15   0.185827D+00 -0.272863D+00 -0.367275D-01  0.303718D+00 -0.469914D+00
     16  -0.338121D-01 -0.557664D-02  0.382330D-01 -0.464153D-01 -0.537592D-01
              1016          1017          1018          1019          1020 
      1  -0.131129D+03 -0.131119D+03 -0.131096D+03 -0.131087D+03 -0.131084D+03
      2   0.806657D-01  0.273876D-01 -0.116737D-01 -0.111790D-01 -0.915320D-03
      3   0.481864D-01  0.184177D-01 -0.196037D-01 -0.422367D-01  0.461874D-02
      4   0.196700D-01  0.144630D-01 -0.306994D-01  0.335800D-01 -0.183530D-01
      5  -0.297355D+00 -0.874646D-01  0.478062D-01  0.317508D-01 -0.129307D-01
      6  -0.166853D+00 -0.477972D-01  0.558147D-01  0.146159D+00 -0.937333D-02
      7  -0.726621D-01 -0.552634D-01  0.105058D+00 -0.118298D+00  0.601444D-01
      8   0.103135D-01  0.100111D+00  0.810063D-01  0.884073D-01 -0.300061D-01
      9   0.248151D+00  0.198534D+00 -0.101406D+00  0.309887D+00 -0.142237D+00
     10  -0.528310D+00  0.827977D-01  0.657089D-01  0.351974D+00 -0.105536D+00
     11  -0.119237D+01 -0.278759D+00  0.108007D+00  0.956039D-01 -0.580074D+00
     12   0.257584D+00 -0.270853D+00  0.665570D-01 -0.288487D+00 -0.161147D+00
     13  -0.756055D-01  0.101521D+00 -0.768637D-03  0.105874D+00 -0.391651D-01
     14  -0.963512D-01  0.160774D+00  0.381418D-01  0.389136D+00  0.373122D+00
     15  -0.336490D-01 -0.164163D+00  0.824467D-01 -0.287095D+00  0.282257D+00
     16   0.692718D-01 -0.433654D-01  0.135408D-01 -0.201946D-01 -0.834130D-01
              1021          1022          1023          1024          1025 
      1  -0.131049D+03 -0.131005D+03 -0.130999D+03 -0.130988D+03 -0.130973D+03
      2   0.508590D-01  0.971961D-02 -0.438302D-01  0.160607D-01  0.276976D-02
      3  -0.944760D-02 -0.149925D-01 -0.240818D-01 -0.141344D-01 -0.112462D-01
      4   0.563060D-01 -0.273345D-01 -0.209062D-01  0.404717D-01  0.240188D-01
      5  -0.187730D+00 -0.217644D-01  0.155020D+00 -0.598647D-01 -0.793763D-02
      6   0.475131D-01  0.452824D-01  0.903955D-01  0.508924D-01  0.348380D-01
      7  -0.202214D+00  0.959272D-01  0.675823D-01 -0.135247D+00 -0.747566D-01
      8   0.133957D+00 -0.611121D-03 -0.219014D-01  0.802763D-01 -0.102073D+00
      9   0.492005D+00 -0.104872D+00 -0.173654D+00  0.269903D+00 -0.129996D+00
     10  -0.272719D-01 -0.579874D-01  0.287382D+00  0.128402D+00 -0.503776D-02
     11  -0.884699D+00  0.952375D-01  0.855016D+00 -0.257613D+00  0.195562D-01
     12  -0.561451D-01 -0.376962D-01 -0.144042D+00 -0.104489D+00  0.484938D-02
     13   0.151956D+00  0.193603D-01 -0.371955D-01  0.977185D-01 -0.127288D-01
     14   0.242558D+00 -0.247386D-01  0.551934D-01  0.213693D+00 -0.970719D-02
     15  -0.378497D+00  0.110730D+00  0.656668D-01 -0.232825D+00  0.150826D+00
     16   0.712459D-01  0.248310D-01 -0.560287D-01  0.579033D-01 -0.475723D-01
              1026          1027          1028          1029          1030 
      1  -0.130945D+03 -0.130855D+03 -0.130852D+03 -0.130721D+03 -0.130624D+03
      2   0.101690D-01  0.107990D-01 -0.394759D-01 -0.150085D-01  0.264924D-01
      3  -0.373036D-03 -0.107746D-01  0.157586D-01 -0.274149D-01  0.372566D-01
      4   0.186768D-01  0.815528D-02 -0.272501D-01  0.177699D-01 -0.214952D-01
      5  -0.319389D-01 -0.271395D-01  0.105551D+00  0.533839D-01 -0.894229D-01
      6  -0.497294D-02  0.196176D-01 -0.363727D-01  0.965229D-01 -0.134797D+00
      7  -0.704976D-01 -0.304584D-01  0.995924D-01 -0.626793D-01  0.759903D-01
      8   0.469865D-01  0.183396D-01 -0.348108D-01  0.551578D-01 -0.462134D-01
      9   0.140175D+00  0.718011D-01 -0.233919D+00  0.135869D+00 -0.140554D+00
     10   0.867569D-02  0.452909D-01  0.436245D-01  0.255674D+00 -0.313660D+00
     11  -0.420700D+00 -0.358907D-01  0.276867D+00  0.166839D+00 -0.325913D+00
     12  -0.193631D+00  0.371963D-01 -0.866222D-01 -0.886683D-01  0.143880D+00
     13   0.468200D-01 -0.120777D-02  0.990044D-02  0.114152D+00 -0.112555D+00
     14   0.271216D+00 -0.369032D-01 -0.479540D-01  0.148134D+00 -0.168062D+00
     15  -0.535898D-01 -0.593525D-01  0.187827D+00 -0.161859D+00  0.186367D+00
     16  -0.489465D-01 -0.330478D-01  0.868010D-03 -0.428748D-01  0.665958D-01
 Unable to Open any file for archive entry.
 1\1\GINC-HEL13\SP\RM062X TD-FC\Gen\C2H7N1\SABYASACHI\21-Mar-2022\0\\#P
  TD(Nstates=10000) m062x/Gen SCF(maxcycles=100) Int(Grid=ultrafine)\\x
 GDB7_00001_tier4.com\\0,1\C,0,-1.240791,-0.237624,-0.027525\C,0,0.0489
 46,0.559205,0.053709\N,0,1.202342,-0.317606,-0.116703\H,0,-2.109817,0.
 415828,0.064703\H,0,-1.292929,-0.976209,0.776809\H,0,-1.300329,-0.7698
 84,-0.977746\H,0,0.066306,1.122818,0.997967\H,0,0.069957,1.296574,-0.7
 52592\H,0,1.236408,-1.003082,0.627159\H,0,2.06508,0.20771,-0.076483\\V
 ersion=EM64L-G16RevC.01\State=1-A\HF=-135.0047194\RMSD=1.932e-09\PG=C0
 1 [X(C2H7N1)]\\@
 The archive entry for this job was punched.


 WHEN YOU REACH FOR THE STARS, YOU MAY NOT QUITE GET ONE,
 BUT YOU WON'T COME UP WITH A HANDFUL OF MUD, EITHER.

                                         -- LEO BURNETT (AD AGENCY HEAD)
 Job cpu time:       0 days  1 hours  7 minutes 26.5 seconds.
 Elapsed time:       0 days  0 hours  8 minutes 26.1 seconds.
 File lengths (MBytes):  RWF=   1370 Int=      0 D2E=      0 Chk=    332 Scr=      1
 Normal termination of Gaussian 16 at Mon Mar 21 04:13:06 2022.
