 Entering Gaussian System, Link 0=g16
 Input=000028.com
 Output=000028.log
 Initial command:
 /home/sabyasachi/g16/l1.exe "/scratch/sabyasachi/PBS_7976129.helios/Gau-155764.inp" -scrdir="/scratch/sabyasachi/PBS_7976129.helios/"
 Entering Link 1 = /home/sabyasachi/g16/l1.exe PID=    155765.
  
 Copyright (c) 1988-2019, Gaussian, Inc.  All Rights Reserved.
  
 This is part of the Gaussian(R) 16 program.  It is based on
 the Gaussian(R) 09 system (copyright 2009, Gaussian, Inc.),
 the Gaussian(R) 03 system (copyright 2003, Gaussian, Inc.),
 the Gaussian(R) 98 system (copyright 1998, Gaussian, Inc.),
 the Gaussian(R) 94 system (copyright 1995, Gaussian, Inc.),
 the Gaussian 92(TM) system (copyright 1992, Gaussian, Inc.),
 the Gaussian 90(TM) system (copyright 1990, Gaussian, Inc.),
 the Gaussian 88(TM) system (copyright 1988, Gaussian, Inc.),
 the Gaussian 86(TM) system (copyright 1986, Carnegie Mellon
 University), and the Gaussian 82(TM) system (copyright 1983,
 Carnegie Mellon University). Gaussian is a federally registered
 trademark of Gaussian, Inc.
  
 This software contains proprietary and confidential information,
 including trade secrets, belonging to Gaussian, Inc.
  
 This software is provided under written license and may be
 used, copied, transmitted, or stored only in accord with that
 written license.
  
 The following legend is applicable only to US Government
 contracts under FAR:
  
                    RESTRICTED RIGHTS LEGEND
  
 Use, reproduction and disclosure by the US Government is
 subject to restrictions as set forth in subparagraphs (a)
 and (c) of the Commercial Computer Software - Restricted
 Rights clause in FAR 52.227-19.
  
 Gaussian, Inc.
 340 Quinnipiac St., Bldg. 40, Wallingford CT 06492
  
  
 ---------------------------------------------------------------
 Warning -- This program may not be used in any manner that
 competes with the business of Gaussian, Inc. or will provide
 assistance to any competitor of Gaussian, Inc.  The licensee
 of this program is prohibited from giving any competitor of
 Gaussian, Inc. access to this program.  By using this program,
 the user acknowledges that Gaussian, Inc. is engaged in the
 business of creating and licensing software in the field of
 computational chemistry and represents and warrants to the
 licensee that it is not a competitor of Gaussian, Inc. and that
 it will not use this program in any manner prohibited above.
 ---------------------------------------------------------------
  

 Cite this work as:
 Gaussian 16, Revision C.01,
 M. J. Frisch, G. W. Trucks, H. B. Schlegel, G. E. Scuseria, 
 M. A. Robb, J. R. Cheeseman, G. Scalmani, V. Barone, 
 G. A. Petersson, H. Nakatsuji, X. Li, M. Caricato, A. V. Marenich, 
 J. Bloino, B. G. Janesko, R. Gomperts, B. Mennucci, H. P. Hratchian, 
 J. V. Ortiz, A. F. Izmaylov, J. L. Sonnenberg, D. Williams-Young, 
 F. Ding, F. Lipparini, F. Egidi, J. Goings, B. Peng, A. Petrone, 
 T. Henderson, D. Ranasinghe, V. G. Zakrzewski, J. Gao, N. Rega, 
 G. Zheng, W. Liang, M. Hada, M. Ehara, K. Toyota, R. Fukuda, 
 J. Hasegawa, M. Ishida, T. Nakajima, Y. Honda, O. Kitao, H. Nakai, 
 T. Vreven, K. Throssell, J. A. Montgomery, Jr., J. E. Peralta, 
 F. Ogliaro, M. J. Bearpark, J. J. Heyd, E. N. Brothers, K. N. Kudin, 
 V. N. Staroverov, T. A. Keith, R. Kobayashi, J. Normand, 
 K. Raghavachari, A. P. Rendell, J. C. Burant, S. S. Iyengar, 
 J. Tomasi, M. Cossi, J. M. Millam, M. Klene, C. Adamo, R. Cammi, 
 J. W. Ochterski, R. L. Martin, K. Morokuma, O. Farkas, 
 J. B. Foresman, and D. J. Fox, Gaussian, Inc., Wallingford CT, 2019.
 
 ******************************************
 Gaussian 16:  EM64L-G16RevC.01  3-Jul-2019
                21-Mar-2022 
 ******************************************
 %mem=64gb
 %nproc=8
 Will use up to    8 processors via shared memory.
 ---------------------------------------------------------------------
 #P TD(Nstates=10000) m062x/Gen SCF(maxcycles=100) Int(Grid=ultrafine)
 ---------------------------------------------------------------------
 1/38=1,172=1/1;
 2/12=2,17=6,18=5,40=1/2;
 3/5=7,11=9,25=1,30=1,74=-55,75=-5/1,2,3,8;
 4//1;
 5/5=2,7=100,38=5/2;
 8/6=1,10=1,108=10000/1;
 9/41=10000,42=1,70=2/14;
 6/7=2,8=2,9=2,10=2/1;
 99/5=1,9=1/99;
 Leave Link    1 at Mon Mar 21 20:11:27 2022, MaxMem=  8589934592 cpu:               0.4 elap:               0.1
 (Enter /home/sabyasachi/g16/l101.exe)
 ---------------------
 xGDB7_00001_tier4.com
 ---------------------
 Symbolic Z-matrix:
 Charge =  0 Multiplicity = 1
 7                     1.10644   0.14251  -0.09098 
 7                    -0.08075  -0.51252   0.00607 
 6                    -1.1487    0.16746   0.00817 
 1                     1.85475  -0.40992   0.29153 
 1                     1.10968   1.10045   0.24271 
 1                    -2.08985  -0.3662    0.03525 
 1                    -1.16221   1.26097  -0.02408 
 
 ITRead=  0  0  0  0  0  0  0
 MicOpt= -1 -1 -1 -1 -1 -1 -1
 NAtoms=      7 NQM=        7 NQMF=       0 NMMI=      0 NMMIF=      0
                NMic=       0 NMicF=      0.
                    Isotopes and Nuclear Properties:
 (Nuclear quadrupole moments (NQMom) in fm**2, nuclear magnetic moments (NMagM)
  in nuclear magnetons)

  Atom         1           2           3           4           5           6           7
 IAtWgt=          14          14          12           1           1           1           1
 AtmWgt=  14.0030740  14.0030740  12.0000000   1.0078250   1.0078250   1.0078250   1.0078250
 NucSpn=           2           2           0           1           1           1           1
 AtZEff=  -0.0000000  -0.0000000  -0.0000000  -0.0000000  -0.0000000  -0.0000000  -0.0000000
 NQMom=    2.0440000   2.0440000   0.0000000   0.0000000   0.0000000   0.0000000   0.0000000
 NMagM=    0.4037610   0.4037610   0.0000000   2.7928460   2.7928460   2.7928460   2.7928460
 AtZNuc=   7.0000000   7.0000000   6.0000000   1.0000000   1.0000000   1.0000000   1.0000000
 Leave Link  101 at Mon Mar 21 20:11:27 2022, MaxMem=  8589934592 cpu:               0.6 elap:               0.1
 (Enter /home/sabyasachi/g16/l202.exe)
                          Input orientation:                          
 ---------------------------------------------------------------------
 Center     Atomic      Atomic             Coordinates (Angstroms)
 Number     Number       Type             X           Y           Z
 ---------------------------------------------------------------------
      1          7           0        1.106441    0.142513   -0.090982
      2          7           0       -0.080753   -0.512520    0.006066
      3          6           0       -1.148696    0.167456    0.008166
      4          1           0        1.854749   -0.409916    0.291533
      5          1           0        1.109677    1.100453    0.242713
      6          1           0       -2.089851   -0.366199    0.035249
      7          1           0       -1.162208    1.260974   -0.024080
 ---------------------------------------------------------------------
                    Distance matrix (angstroms):
                    1          2          3          4          5
     1  N    0.000000
     2  N    1.359381   0.000000
     3  C    2.257453   1.266047   0.000000
     4  H    1.005714   1.959129   3.071537   0.000000
     5  H    1.014402   2.018615   2.454739   1.684853   0.000000
     6  H    3.238982   2.014631   1.082263   3.953158   3.525775
     7  H    2.530257   2.077435   1.094077   3.463165   2.293122
                    6          7
     6  H    0.000000
     7  H    1.873962   0.000000
 Stoichiometry    CH4N2
 Framework group  C1[X(CH4N2)]
 Deg. of freedom    15
 Full point group                 C1      NOp   1
 Largest Abelian subgroup         C1      NOp   1
 Largest concise Abelian subgroup C1      NOp   1
                         Standard orientation:                         
 ---------------------------------------------------------------------
 Center     Atomic      Atomic             Coordinates (Angstroms)
 Number     Number       Type             X           Y           Z
 ---------------------------------------------------------------------
      1          7           0        1.106441    0.142513   -0.090982
      2          7           0       -0.080753   -0.512520    0.006066
      3          6           0       -1.148696    0.167456    0.008166
      4          1           0        1.854749   -0.409916    0.291533
      5          1           0        1.109676    1.100453    0.242713
      6          1           0       -2.089851   -0.366199    0.035249
      7          1           0       -1.162209    1.260974   -0.024080
 ---------------------------------------------------------------------
 Rotational constants (GHZ):          66.3844039          11.5398193           9.9244358
 Leave Link  202 at Mon Mar 21 20:11:27 2022, MaxMem=  8589934592 cpu:               0.1 elap:               0.0
 (Enter /home/sabyasachi/g16/l301.exe)
 General basis read from cards:  (5D, 7F)
 Centers:       4      5      6      7
 S 3 1.00
     Exponent=  1.3010701000D+01 Coefficients=  1.9682158000D-02
     Exponent=  1.9622572000D+00 Coefficients=  1.3796524000D-01
     Exponent=  4.4453796000D-01 Coefficients=  4.7831935000D-01
 S 1 1.00
     Exponent=  1.2194962000D-01 Coefficients=  1.0000000000D+00
 P 1 1.00
     Exponent=  8.0000000000D-01 Coefficients=  1.0000000000D+00
 P 1 1.00
     Exponent=  1.1704099050D-01 Coefficients=  1.0000000000D+00
 ****
 Centers:       3
 S 5 1.00
     Exponent=  1.2384016938D+03 Coefficients=  5.4568832082D-03
     Exponent=  1.8629004992D+02 Coefficients=  4.0638409211D-02
     Exponent=  4.2251176346D+01 Coefficients=  1.8025593888D-01
     Exponent=  1.1676557932D+01 Coefficients=  4.6315121755D-01
     Exponent=  3.5930506482D+00 Coefficients=  4.4087173314D-01
 S 1 1.00
     Exponent=  4.0245147363D-01 Coefficients=  1.0000000000D+00
 S 1 1.00
     Exponent=  1.3090182668D-01 Coefficients=  1.0000000000D+00
 S 1 1.00
     Exponent=  6.7053540256D-02 Coefficients=  1.0000000000D+00
 P 3 1.00
     Exponent=  9.4680970621D+00 Coefficients=  3.8387871728D-02
     Exponent=  2.0103545142D+00 Coefficients=  2.1117025112D-01
     Exponent=  5.4771004707D-01 Coefficients=  5.1328172114D-01
 P 1 1.00
     Exponent=  1.5268613795D-01 Coefficients=  1.0000000000D+00
 D 1 1.00
     Exponent=  8.0000000000D-01 Coefficients=  1.0000000000D+00
 D 1 1.00
     Exponent=  1.1713185140D-01 Coefficients=  1.0000000000D+00
 ****
 Centers:       1      2
 S 5 1.00
     Exponent=  1.7128415853D+03 Coefficients= -5.3934125305D-03
     Exponent=  2.5764812677D+02 Coefficients= -4.0221581118D-02
     Exponent=  5.8458245853D+01 Coefficients= -1.7931144990D-01
     Exponent=  1.6198367905D+01 Coefficients= -4.6376317823D-01
     Exponent=  5.0052600809D+00 Coefficients= -4.4171422662D-01
 S 1 1.00
     Exponent=  5.8731856571D-01 Coefficients=  1.0000000000D+00
 S 1 1.00
     Exponent=  1.8764592253D-01 Coefficients=  1.0000000000D+00
 S 1 1.00
     Exponent=  9.6171241529D-02 Coefficients=  1.0000000000D+00
 P 3 1.00
     Exponent=  1.3571470233D+01 Coefficients= -4.0072398852D-02
     Exponent=  2.9257372874D+00 Coefficients= -2.1807045028D-01
     Exponent=  7.9927750754D-01 Coefficients= -5.1294466049D-01
 P 1 1.00
     Exponent=  2.1954348034D-01 Coefficients=  1.0000000000D+00
 D 1 1.00
     Exponent=  1.0000000000D+00 Coefficients=  1.0000000000D+00
 D 1 1.00
     Exponent=  1.6697708112D-01 Coefficients=  1.0000000000D+00
 ****
 Ernie: Thresh=  0.10000D-02 Tol=  0.10000D-05 Strict=F.
 There are    98 symmetry adapted cartesian basis functions of A   symmetry.
 There are    92 symmetry adapted basis functions of A   symmetry.
    92 basis functions,   136 primitive gaussians,    98 cartesian basis functions
    12 alpha electrons       12 beta electrons
       nuclear repulsion energy        73.1919062595 Hartrees.
 IExCor= 4336 DFT=T Ex+Corr=M062X ExCW=0 ScaHFX=  0.540000
 ScaDFX=  1.000000  1.000000  1.000000  1.000000 ScalE2=  1.000000  1.000000
 IRadAn=      5 IRanWt=     -1 IRanGd=            0 ICorTp=0 IEmpDi=  4
 NAtoms=    7 NActive=    7 NUniq=    7 SFac= 1.00D+00 NAtFMM=   60 NAOKFM=F Big=F
 Integral buffers will be    131072 words long.
 Regular integral format.
 Two-electron integral symmetry is turned on.
 Leave Link  301 at Mon Mar 21 20:11:27 2022, MaxMem=  8589934592 cpu:               0.5 elap:               0.1
 (Enter /home/sabyasachi/g16/l302.exe)
 NPDir=0 NMtPBC=     1 NCelOv=     1 NCel=       1 NClECP=     1 NCelD=      1
         NCelK=      1 NCelE2=     1 NClLst=     1 CellRange=     0.0.
 One-electron integrals computed using PRISM.
 One-electron integral symmetry used in STVInt
 NBasis=    92 RedAO= T EigKep=  3.91D-04  NBF=    92
 NBsUse=    92 1.00D-06 EigRej= -1.00D+00 NBFU=    92
 Precomputing XC quadrature grid using
 IXCGrd= 4 IRadAn=           5 IRanWt=          -1 IRanGd=           0 AccXCQ= 0.00D+00.
 Generated NRdTot=       0 NPtTot=           0 NUsed=           0 NTot=          32
 NSgBfM=    98    98    98    98    98 MxSgAt=     7 MxSgA2=     7.
 Leave Link  302 at Mon Mar 21 20:11:27 2022, MaxMem=  8589934592 cpu:               1.0 elap:               0.1
 (Enter /home/sabyasachi/g16/l303.exe)
 DipDrv:  MaxL=1.
 Leave Link  303 at Mon Mar 21 20:11:27 2022, MaxMem=  8589934592 cpu:               0.2 elap:               0.0
 (Enter /home/sabyasachi/g16/l308.exe)
 Leave Link  308 at Mon Mar 21 20:11:27 2022, MaxMem=  8589934592 cpu:               0.2 elap:               0.1
 (Enter /home/sabyasachi/g16/l401.exe)
 ExpMin= 6.71D-02 ExpMax= 1.71D+03 ExpMxC= 2.58D+02 IAcc=3 IRadAn=         5 AccDes= 0.00D+00
 Harris functional with IExCor= 1009 and IRadAn=       5 diagonalized for initial guess.
 HarFok:  IExCor= 1009 AccDes= 0.00D+00 IRadAn=         5 IDoV= 1 UseB2=F ITyADJ=14
 ICtDFT=  3500011 ScaDFX=  1.000000  1.000000  1.000000  1.000000
 FoFCou: FMM=F IPFlag=           0 FMFlag=      100000 FMFlg1=           0
         NFxFlg=           0 DoJE=T BraDBF=F KetDBF=T FulRan=T
         wScrn=  0.000000 ICntrl=       500 IOpCl=  0 I1Cent=   200000004 NGrid=           0
         NMat0=    1 NMatS0=      1 NMatT0=    0 NMatD0=    1 NMtDS0=    0 NMtDT0=    0
 Petite list used in FoFCou.
 Harris En= -149.713609139303    
 JPrj=0 DoOrth=F DoCkMO=F.
 Leave Link  401 at Mon Mar 21 20:11:28 2022, MaxMem=  8589934592 cpu:               2.6 elap:               0.3
 (Enter /home/sabyasachi/g16/l502.exe)
 Keep R1 ints in memory in canonical form, NReq=16540191.
 FoFCou: FMM=F IPFlag=           0 FMFlag=           0 FMFlg1=           0
         NFxFlg=           0 DoJE=F BraDBF=F KetDBF=F FulRan=T
         wScrn=  0.000000 ICntrl=       600 IOpCl=  0 I1Cent=           0 NGrid=           0
         NMat0=    1 NMatS0=   4278 NMatT0=    0 NMatD0=    1 NMtDS0=    0 NMtDT0=    0
 Symmetry not used in FoFCou.
 Two-electron integral symmetry not used.
 Closed shell SCF:
 Using DIIS extrapolation, IDIIS=  1040.
 NGot=  8589934592 LenX=  8580760569 LenY=  8580750524
 Requested convergence on RMS density matrix=1.00D-08 within 100 cycles.
 Requested convergence on MAX density matrix=1.00D-06.
 Requested convergence on             energy=1.00D-06.
 No special actions if energy rises.
 Integral accuracy reduced to 1.0D-05 until final iterations.

 Cycle   1  Pass 0  IDiag  1:
 E= -149.726764441023    
 DIIS: error= 1.94D-02 at cycle   1 NSaved=   1.
 NSaved= 1 IEnMin= 1 EnMin= -149.726764441023     IErMin= 1 ErrMin= 1.94D-02
 ErrMax= 1.94D-02  0.00D+00 EMaxC= 1.00D-01 BMatC= 6.54D-02 BMatP= 6.54D-02
 IDIUse=3 WtCom= 8.06D-01 WtEn= 1.94D-01
 Coeff-Com:  0.100D+01
 Coeff-En:   0.100D+01
 Coeff:      0.100D+01
 Gap=     0.341 Goal=   None    Shift=    0.000
 GapD=    0.341 DampG=1.000 DampE=0.500 DampFc=0.5000 IDamp=-1.
 Damping current iteration by 5.00D-01
 RMSDP=8.05D-03 MaxDP=2.20D-01              OVMax= 1.28D-01

 Cycle   2  Pass 0  IDiag  1:
 E= -149.759179134070     Delta-E=       -0.032414693047 Rises=F Damp=T
 DIIS: error= 4.53D-03 at cycle   2 NSaved=   2.
 NSaved= 2 IEnMin= 2 EnMin= -149.759179134070     IErMin= 2 ErrMin= 4.53D-03
 ErrMax= 4.53D-03  0.00D+00 EMaxC= 1.00D-01 BMatC= 5.07D-03 BMatP= 6.54D-02
 IDIUse=3 WtCom= 9.55D-01 WtEn= 4.53D-02
 Coeff-Com: -0.177D+00 0.118D+01
 Coeff-En:   0.000D+00 0.100D+01
 Coeff:     -0.169D+00 0.117D+01
 Gap=     0.347 Goal=   None    Shift=    0.000
 RMSDP=1.82D-03 MaxDP=3.41D-02 DE=-3.24D-02 OVMax= 5.70D-02

 Cycle   3  Pass 0  IDiag  1:
 E= -149.787086380308     Delta-E=       -0.027907246238 Rises=F Damp=F
 DIIS: error= 2.25D-03 at cycle   3 NSaved=   3.
 NSaved= 3 IEnMin= 3 EnMin= -149.787086380308     IErMin= 3 ErrMin= 2.25D-03
 ErrMax= 2.25D-03  0.00D+00 EMaxC= 1.00D-01 BMatC= 6.74D-04 BMatP= 5.07D-03
 IDIUse=3 WtCom= 9.78D-01 WtEn= 2.25D-02
 Coeff-Com: -0.810D-01 0.295D+00 0.786D+00
 Coeff-En:   0.000D+00 0.000D+00 0.100D+01
 Coeff:     -0.791D-01 0.288D+00 0.791D+00
 Gap=     0.333 Goal=   None    Shift=    0.000
 RMSDP=5.77D-04 MaxDP=1.59D-02 DE=-2.79D-02 OVMax= 1.43D-02

 Cycle   4  Pass 0  IDiag  1:
 E= -149.787386003926     Delta-E=       -0.000299623618 Rises=F Damp=F
 DIIS: error= 2.05D-03 at cycle   4 NSaved=   4.
 NSaved= 4 IEnMin= 4 EnMin= -149.787386003926     IErMin= 4 ErrMin= 2.05D-03
 ErrMax= 2.05D-03  0.00D+00 EMaxC= 1.00D-01 BMatC= 3.51D-04 BMatP= 6.74D-04
 IDIUse=3 WtCom= 9.80D-01 WtEn= 2.05D-02
 Coeff-Com: -0.271D-01 0.646D-01 0.447D+00 0.515D+00
 Coeff-En:   0.000D+00 0.000D+00 0.331D+00 0.669D+00
 Coeff:     -0.265D-01 0.633D-01 0.445D+00 0.518D+00
 Gap=     0.334 Goal=   None    Shift=    0.000
 RMSDP=2.68D-04 MaxDP=7.31D-03 DE=-3.00D-04 OVMax= 6.21D-03

 Cycle   5  Pass 0  IDiag  1:
 E= -149.787682829802     Delta-E=       -0.000296825876 Rises=F Damp=F
 DIIS: error= 3.44D-04 at cycle   5 NSaved=   5.
 NSaved= 5 IEnMin= 5 EnMin= -149.787682829802     IErMin= 5 ErrMin= 3.44D-04
 ErrMax= 3.44D-04  0.00D+00 EMaxC= 1.00D-01 BMatC= 5.96D-06 BMatP= 3.51D-04
 IDIUse=3 WtCom= 9.97D-01 WtEn= 3.44D-03
 Coeff-Com: -0.376D-02 0.313D-02 0.111D+00 0.178D+00 0.712D+00
 Coeff-En:   0.000D+00 0.000D+00 0.000D+00 0.000D+00 0.100D+01
 Coeff:     -0.374D-02 0.311D-02 0.110D+00 0.178D+00 0.713D+00
 Gap=     0.334 Goal=   None    Shift=    0.000
 RMSDP=4.02D-05 MaxDP=7.06D-04 DE=-2.97D-04 OVMax= 1.63D-03

 Cycle   6  Pass 0  IDiag  1:
 E= -149.787688638025     Delta-E=       -0.000005808222 Rises=F Damp=F
 DIIS: error= 9.26D-05 at cycle   6 NSaved=   6.
 NSaved= 6 IEnMin= 6 EnMin= -149.787688638025     IErMin= 6 ErrMin= 9.26D-05
 ErrMax= 9.26D-05  0.00D+00 EMaxC= 1.00D-01 BMatC= 8.69D-07 BMatP= 5.96D-06
 IDIUse=1 WtCom= 1.00D+00 WtEn= 0.00D+00
 Coeff-Com:  0.220D-03-0.319D-02 0.202D-01 0.399D-01 0.311D+00 0.632D+00
 Coeff:      0.220D-03-0.319D-02 0.202D-01 0.399D-01 0.311D+00 0.632D+00
 Gap=     0.334 Goal=   None    Shift=    0.000
 RMSDP=1.60D-05 MaxDP=4.84D-04 DE=-5.81D-06 OVMax= 2.28D-04

 Cycle   7  Pass 0  IDiag  1:
 E= -149.787689499940     Delta-E=       -0.000000861916 Rises=F Damp=F
 DIIS: error= 3.04D-05 at cycle   7 NSaved=   7.
 NSaved= 7 IEnMin= 7 EnMin= -149.787689499940     IErMin= 7 ErrMin= 3.04D-05
 ErrMax= 3.04D-05  0.00D+00 EMaxC= 1.00D-01 BMatC= 6.56D-08 BMatP= 8.69D-07
 IDIUse=1 WtCom= 1.00D+00 WtEn= 0.00D+00
 Coeff-Com:  0.110D-02-0.193D-02-0.199D-01-0.335D-01-0.693D-01 0.164D+00
 Coeff-Com:  0.959D+00
 Coeff:      0.110D-02-0.193D-02-0.199D-01-0.335D-01-0.693D-01 0.164D+00
 Coeff:      0.959D+00
 Gap=     0.334 Goal=   None    Shift=    0.000
 RMSDP=7.05D-06 MaxDP=1.23D-04 DE=-8.62D-07 OVMax= 3.26D-04

 Initial convergence to 1.0D-05 achieved.  Increase integral accuracy.
 Cycle   8  Pass 1  IDiag  1:
 E= -149.787691678702     Delta-E=       -0.000002178761 Rises=F Damp=F
 DIIS: error= 8.13D-06 at cycle   1 NSaved=   1.
 NSaved= 1 IEnMin= 1 EnMin= -149.787691678702     IErMin= 1 ErrMin= 8.13D-06
 ErrMax= 8.13D-06  0.00D+00 EMaxC= 1.00D-01 BMatC= 2.72D-08 BMatP= 2.72D-08
 IDIUse=1 WtCom= 1.00D+00 WtEn= 0.00D+00
 Coeff-Com:  0.100D+01
 Coeff:      0.100D+01
 Gap=     0.334 Goal=   None    Shift=    0.000
 RMSDP=7.05D-06 MaxDP=1.23D-04 DE=-2.18D-06 OVMax= 6.35D-05

 Cycle   9  Pass 1  IDiag  1:
 E= -149.787691707377     Delta-E=       -0.000000028675 Rises=F Damp=F
 DIIS: error= 5.37D-06 at cycle   2 NSaved=   2.
 NSaved= 2 IEnMin= 2 EnMin= -149.787691707377     IErMin= 2 ErrMin= 5.37D-06
 ErrMax= 5.37D-06  0.00D+00 EMaxC= 1.00D-01 BMatC= 2.75D-09 BMatP= 2.72D-08
 IDIUse=1 WtCom= 1.00D+00 WtEn= 0.00D+00
 Coeff-Com:  0.103D+00 0.897D+00
 Coeff:      0.103D+00 0.897D+00
 Gap=     0.334 Goal=   None    Shift=    0.000
 RMSDP=1.88D-06 MaxDP=4.07D-05 DE=-2.87D-08 OVMax= 5.60D-05

 Cycle  10  Pass 1  IDiag  1:
 E= -149.787691707247     Delta-E=        0.000000000130 Rises=F Damp=F
 DIIS: error= 5.64D-06 at cycle   3 NSaved=   3.
 NSaved= 3 IEnMin= 2 EnMin= -149.787691707377     IErMin= 2 ErrMin= 5.37D-06
 ErrMax= 5.64D-06  0.00D+00 EMaxC= 1.00D-01 BMatC= 3.81D-09 BMatP= 2.75D-09
 IDIUse=1 WtCom= 1.00D+00 WtEn= 0.00D+00
 Coeff-Com: -0.439D-01 0.554D+00 0.490D+00
 Coeff:     -0.439D-01 0.554D+00 0.490D+00
 Gap=     0.334 Goal=   None    Shift=    0.000
 RMSDP=8.43D-07 MaxDP=2.42D-05 DE= 1.30D-10 OVMax= 2.18D-05

 Cycle  11  Pass 1  IDiag  1:
 E= -149.787691710641     Delta-E=       -0.000000003393 Rises=F Damp=F
 DIIS: error= 4.22D-07 at cycle   4 NSaved=   4.
 NSaved= 4 IEnMin= 4 EnMin= -149.787691710641     IErMin= 4 ErrMin= 4.22D-07
 ErrMax= 4.22D-07  0.00D+00 EMaxC= 1.00D-01 BMatC= 2.87D-11 BMatP= 2.75D-09
 IDIUse=1 WtCom= 1.00D+00 WtEn= 0.00D+00
 Coeff-Com: -0.143D-01 0.118D+00 0.979D-01 0.798D+00
 Coeff:     -0.143D-01 0.118D+00 0.979D-01 0.798D+00
 Gap=     0.334 Goal=   None    Shift=    0.000
 RMSDP=1.44D-07 MaxDP=3.34D-06 DE=-3.39D-09 OVMax= 3.11D-06

 Cycle  12  Pass 1  IDiag  1:
 E= -149.787691710666     Delta-E=       -0.000000000025 Rises=F Damp=F
 DIIS: error= 4.59D-07 at cycle   5 NSaved=   5.
 NSaved= 5 IEnMin= 5 EnMin= -149.787691710666     IErMin= 4 ErrMin= 4.22D-07
 ErrMax= 4.59D-07  0.00D+00 EMaxC= 1.00D-01 BMatC= 1.60D-11 BMatP= 2.87D-11
 IDIUse=1 WtCom= 1.00D+00 WtEn= 0.00D+00
 Coeff-Com:  0.139D-02-0.448D-01-0.566D-01 0.406D+00 0.694D+00
 Coeff:      0.139D-02-0.448D-01-0.566D-01 0.406D+00 0.694D+00
 Gap=     0.334 Goal=   None    Shift=    0.000
 RMSDP=6.38D-08 MaxDP=1.35D-06 DE=-2.55D-11 OVMax= 1.52D-06

 Cycle  13  Pass 1  IDiag  1:
 E= -149.787691710681     Delta-E=       -0.000000000015 Rises=F Damp=F
 DIIS: error= 6.74D-08 at cycle   6 NSaved=   6.
 NSaved= 6 IEnMin= 6 EnMin= -149.787691710681     IErMin= 6 ErrMin= 6.74D-08
 ErrMax= 6.74D-08  0.00D+00 EMaxC= 1.00D-01 BMatC= 6.22D-13 BMatP= 1.60D-11
 IDIUse=1 WtCom= 1.00D+00 WtEn= 0.00D+00
 Coeff-Com:  0.177D-02-0.237D-01-0.299D-01 0.420D-01 0.192D+00 0.817D+00
 Coeff:      0.177D-02-0.237D-01-0.299D-01 0.420D-01 0.192D+00 0.817D+00
 Gap=     0.334 Goal=   None    Shift=    0.000
 RMSDP=1.84D-08 MaxDP=4.21D-07 DE=-1.49D-11 OVMax= 4.50D-07

 Cycle  14  Pass 1  IDiag  1:
 E= -149.787691710683     Delta-E=       -0.000000000002 Rises=F Damp=F
 DIIS: error= 1.25D-08 at cycle   7 NSaved=   7.
 NSaved= 7 IEnMin= 7 EnMin= -149.787691710683     IErMin= 7 ErrMin= 1.25D-08
 ErrMax= 1.25D-08  0.00D+00 EMaxC= 1.00D-01 BMatC= 2.45D-14 BMatP= 6.22D-13
 IDIUse=1 WtCom= 1.00D+00 WtEn= 0.00D+00
 Coeff-Com:  0.644D-04 0.139D-02 0.352D-03-0.197D-01-0.397D-01 0.274D-01
 Coeff-Com:  0.103D+01
 Coeff:      0.644D-04 0.139D-02 0.352D-03-0.197D-01-0.397D-01 0.274D-01
 Coeff:      0.103D+01
 Gap=     0.334 Goal=   None    Shift=    0.000
 RMSDP=7.58D-09 MaxDP=2.19D-07 DE=-2.05D-12 OVMax= 1.45D-07

 SCF Done:  E(RM062X) =  -149.787691711     A.U. after   14 cycles
            NFock= 14  Conv=0.76D-08     -V/T= 2.0096
 KE= 1.483626949643D+02 PE=-4.948814108595D+02 EE= 1.235391179250D+02
 Leave Link  502 at Mon Mar 21 20:11:32 2022, MaxMem=  8589934592 cpu:              32.0 elap:               4.2
 (Enter /home/sabyasachi/g16/l801.exe)
 DoSCS=F DFT=T ScalE2(SS,OS)=  1.000000  1.000000
 ExpMin= 6.71D-02 ExpMax= 1.71D+03 ExpMxC= 2.58D+02 IAcc=3 IRadAn=         5 AccDes= 0.00D+00
 HarFok:  IExCor=  205 AccDes= 0.00D+00 IRadAn=         5 IDoV=-2 UseB2=F ITyADJ=14
 ICtDFT= 12500011 ScaDFX=  1.000000  1.000000  1.000000  1.000000
 Largest valence mixing into a core orbital is  9.34D-05
 Largest core mixing into a valence orbital is  3.10D-05
 Range of M.O.s used for correlation:     4    92
 NBasis=    92 NAE=    12 NBE=    12 NFC=     3 NFV=     0
 NROrb=     89 NOA=     9 NOB=     9 NVA=    80 NVB=    80

 **** Warning!!: The largest alpha MO coefficient is  0.14928627D+02

 Leave Link  801 at Mon Mar 21 20:11:32 2022, MaxMem=  8589934592 cpu:               0.5 elap:               0.1
 (Enter /home/sabyasachi/g16/l914.exe)
 RHF ground state
 Keep R1, R2, and R3 ints in memory in canonical form, NReq=601491845.
 FoFCou: FMM=F IPFlag=           0 FMFlag=           0 FMFlg1=           0
         NFxFlg=           0 DoJE=F BraDBF=F KetDBF=F FulRan=T
         wScrn=  0.000000 ICntrl=       600 IOpCl=  0 I1Cent=           0 NGrid=           0
         NMat0=    1 NMatS0=   4278 NMatT0=    0 NMatD0=    1 NMtDS0=    0 NMtDT0=    0
 Symmetry not used in FoFCou.
 Two-electron integral symmetry not used.
 MDV=  8589934592 DFT=T DoStab=F Mixed=T DoRPA=T DoScal=F NonHer=T
 Making orbital integer symmetry assigments:
 Orbital symmetries:
       Occupied  (A) (A) (A) (A) (A) (A) (A) (A) (A) (A) (A) (A)
       Virtual   (A) (A) (A) (A) (A) (A) (A) (A) (A) (A) (A) (A)
                 (A) (A) (A) (A) (A) (A) (A) (A) (A) (A) (A) (A)
                 (A) (A) (A) (A) (A) (A) (A) (A) (A) (A) (A) (A)
                 (A) (A) (A) (A) (A) (A) (A) (A) (A) (A) (A) (A)
                 (A) (A) (A) (A) (A) (A) (A) (A) (A) (A) (A) (A)
                 (A) (A) (A) (A) (A) (A) (A) (A) (A) (A) (A) (A)
                 (A) (A) (A) (A) (A) (A) (A) (A)
   720 initial guesses have been made.
 Convergence on wavefunction:    0.001000000000000
 Davidson Disk Diagonalization:  ConvIn= 1.00D-03 SkipCon=T Conv= 1.00D-03.
 Max sub-space:  4320 roots to seek:  1440 dimension of matrix:         1440
 *** WARNING: Number of orthogonal guesses is          720
 Iteration     1 Dimension   720 NMult     0 NNew    720
 CISAX will form   720 AO SS matrices at one time.
 NMat=   720 NSing=   720 JSym2X= 0.
 New state      1 was old state      4
 New state      2 was old state      1
 New state      3 was old state      2
 New state      4 was old state      3
 New state      7 was old state      8
 New state      8 was old state      7
 New state     10 was old state     20
 New state     11 was old state     10
 New state     12 was old state     11
 New state     13 was old state     12
 New state     14 was old state     13
 New state     15 was old state     14
 New state     17 was old state     15
 New state     18 was old state     17
 New state     20 was old state     18
 New state     22 was old state     25
 New state     23 was old state     22
 New state     24 was old state     36
 New state     25 was old state     26
 New state     26 was old state     24
 New state     27 was old state     23
 New state     28 was old state     27
 New state     31 was old state     28
 New state     32 was old state     35
 New state     33 was old state     32
 New state     34 was old state     31
 New state     35 was old state     33
 New state     36 was old state     37
 New state     37 was old state     34
 New state     38 was old state     45
 New state     39 was old state     38
 New state     40 was old state     39
 New state     42 was old state     40
 New state     44 was old state     42
 New state     45 was old state     49
 New state     46 was old state     44
 New state     48 was old state     46
 New state     49 was old state     52
 New state     50 was old state     51
 New state     51 was old state     50
 New state     52 was old state     53
 New state     53 was old state     48
 New state     57 was old state     61
 New state     58 was old state     64
 New state     60 was old state     58
 New state     61 was old state     62
 New state     62 was old state     60
 New state     63 was old state     73
 New state     64 was old state     63
 New state     65 was old state     57
 New state     66 was old state     67
 New state     67 was old state     69
 New state     68 was old state     77
 New state     69 was old state     66
 New state     70 was old state     71
 New state     71 was old state     68
 New state     72 was old state     74
 New state     73 was old state     80
 New state     74 was old state     72
 New state     75 was old state     76
 New state     76 was old state     75
 New state     77 was old state     70
 New state     79 was old state     82
 New state     80 was old state     83
 New state     81 was old state     79
 New state     82 was old state     84
 New state     83 was old state     93
 New state     84 was old state     81
 New state     85 was old state     87
 New state     87 was old state     85
 New state     88 was old state     95
 New state     89 was old state     94
 New state     90 was old state     92
 New state     91 was old state     96
 New state     92 was old state     91
 New state     93 was old state     88
 New state     94 was old state     98
 New state     95 was old state     89
 New state     96 was old state     90
 New state     97 was old state    100
 New state     98 was old state     97
 New state     99 was old state    101
 New state    100 was old state     99
 New state    101 was old state    105
 New state    102 was old state    103
 New state    103 was old state    102
 New state    104 was old state    106
 New state    105 was old state    108
 New state    106 was old state    104
 New state    107 was old state    110
 New state    108 was old state    109
 New state    109 was old state    107
 New state    110 was old state    112
 New state    111 was old state    113
 New state    112 was old state    111
 New state    113 was old state    114
 New state    114 was old state    116
 New state    115 was old state    119
 New state    116 was old state    115
 New state    117 was old state    121
 New state    119 was old state    125
 New state    120 was old state    127
 New state    121 was old state    117
 New state    122 was old state    120
 New state    123 was old state    126
 New state    125 was old state    130
 New state    126 was old state    135
 New state    127 was old state    123
 New state    128 was old state    122
 New state    130 was old state    134
 New state    131 was old state    128
 New state    132 was old state    131
 New state    133 was old state    132
 New state    134 was old state    133
 New state    135 was old state    143
 New state    136 was old state    141
 New state    138 was old state    153
 New state    139 was old state    140
 New state    140 was old state    136
 New state    141 was old state    139
 New state    142 was old state    147
 New state    143 was old state    144
 New state    144 was old state    138
 New state    145 was old state    149
 New state    146 was old state    148
 New state    147 was old state    142
 New state    148 was old state    146
 New state    149 was old state    145
 New state    150 was old state    151
 New state    151 was old state    156
 New state    152 was old state    150
 New state    153 was old state    152
 New state    155 was old state    160
 New state    156 was old state    155
 New state    157 was old state    159
 New state    158 was old state    161
 New state    159 was old state    172
 New state    160 was old state    163
 New state    161 was old state    157
 New state    162 was old state    158
 New state    163 was old state    164
 New state    164 was old state    166
 New state    165 was old state    162
 New state    166 was old state    165
 New state    167 was old state    168
 New state    168 was old state    169
 New state    169 was old state    175
 New state    170 was old state    167
 New state    171 was old state    177
 New state    172 was old state    173
 New state    173 was old state    171
 New state    175 was old state    178
 New state    176 was old state    170
 New state    177 was old state    179
 New state    178 was old state    185
 New state    179 was old state    176
 New state    180 was old state    183
 New state    181 was old state    182
 New state    182 was old state    186
 New state    183 was old state    188
 New state    185 was old state    180
 New state    186 was old state    187
 New state    187 was old state    202
 New state    188 was old state    189
 New state    189 was old state    191
 New state    190 was old state    193
 New state    191 was old state    200
 New state    192 was old state    190
 New state    193 was old state    194
 New state    194 was old state    195
 New state    195 was old state    192
 New state    196 was old state    197
 New state    197 was old state    201
 New state    200 was old state    196
 New state    201 was old state    203
 New state    202 was old state    206
 New state    203 was old state    207
 New state    205 was old state    215
 New state    206 was old state    210
 New state    207 was old state    205
 New state    208 was old state    220
 New state    210 was old state    208
 New state    211 was old state    216
 New state    212 was old state    214
 New state    213 was old state    211
 New state    214 was old state    229
 New state    215 was old state    221
 New state    216 was old state    213
 New state    217 was old state    218
 New state    218 was old state    222
 New state    219 was old state    224
 New state    220 was old state    217
 New state    221 was old state    219
 New state    222 was old state    223
 New state    223 was old state    225
 New state    224 was old state    227
 New state    225 was old state    237
 New state    226 was old state    228
 New state    227 was old state    226
 New state    228 was old state    230
 New state    229 was old state    232
 New state    230 was old state    235
 New state    231 was old state    233
 New state    232 was old state    236
 New state    233 was old state    231
 New state    235 was old state    244
 New state    236 was old state    243
 New state    237 was old state    238
 New state    238 was old state    240
 No map to state    239
 New state    240 was old state    242
 New state    241 was old state    239
 New state    242 was old state    255
 New state    243 was old state    241
 New state    244 was old state    245
 New state    245 was old state    256
 New state    248 was old state    249
 New state    249 was old state    248
 New state    251 was old state    261
 New state    252 was old state    251
 New state    253 was old state    258
 New state    254 was old state    253
 New state    255 was old state    252
 New state    256 was old state    254
 New state    257 was old state    271
 New state    258 was old state    257
 New state    260 was old state    264
 New state    261 was old state    262
 New state    262 was old state    270
 New state    263 was old state    265
 New state    264 was old state    260
 New state    265 was old state    266
 New state    266 was old state    263
 New state    267 was old state    268
 New state    268 was old state    267
 New state    269 was old state    273
 New state    270 was old state    269
 New state    271 was old state    274
 New state    272 was old state    278
 New state    273 was old state    276
 New state    274 was old state    272
 No map to state    275
 New state    276 was old state    280
 New state    277 was old state    275
 New state    278 was old state    289
 New state    279 was old state    281
 New state    280 was old state    282
 New state    281 was old state    279
 New state    282 was old state    283
 New state    283 was old state    286
 New state    284 was old state    277
 New state    285 was old state    292
 New state    286 was old state    293
 New state    287 was old state    284
 New state    288 was old state    285
 New state    289 was old state    288
 New state    291 was old state    287
 New state    292 was old state    291
 New state    293 was old state    294
 New state    294 was old state    302
 New state    295 was old state    307
 New state    296 was old state    295
 New state    299 was old state    296
 New state    300 was old state    299
 New state    301 was old state    304
 New state    302 was old state    308
 New state    303 was old state    301
 New state    304 was old state    303
 New state    305 was old state    300
 New state    306 was old state    310
 New state    307 was old state    305
 New state    308 was old state    314
 New state    309 was old state    306
 New state    310 was old state    316
 New state    311 was old state    312
 New state    312 was old state    309
 New state    313 was old state    311
 New state    314 was old state    313
 New state    315 was old state    321
 New state    316 was old state    317
 New state    317 was old state    315
 New state    318 was old state    319
 New state    319 was old state    322
 New state    321 was old state    333
 New state    322 was old state    323
 New state    323 was old state    325
 New state    324 was old state    318
 New state    325 was old state    328
 New state    326 was old state    324
 New state    327 was old state    326
 New state    328 was old state    335
 New state    329 was old state    327
 New state    330 was old state    338
 New state    331 was old state    330
 New state    332 was old state    331
 New state    333 was old state    334
 New state    334 was old state    329
 New state    335 was old state    332
 New state    338 was old state    342
 New state    339 was old state    340
 New state    340 was old state    347
 New state    341 was old state    349
 New state    342 was old state    343
 New state    343 was old state    339
 New state    344 was old state    346
 New state    345 was old state    341
 New state    346 was old state    344
 New state    347 was old state    351
 New state    348 was old state    350
 New state    349 was old state    345
 New state    350 was old state    348
 New state    351 was old state    360
 New state    352 was old state    353
 New state    353 was old state    352
 New state    355 was old state    358
 New state    356 was old state    357
 New state    357 was old state    361
 New state    358 was old state    355
 New state    359 was old state    364
 New state    360 was old state    356
 New state    361 was old state    363
 New state    362 was old state    359
 New state    363 was old state    367
 New state    364 was old state    362
 New state    365 was old state    368
 New state    366 was old state    365
 New state    367 was old state    370
 New state    368 was old state    371
 New state    369 was old state    366
 New state    370 was old state    374
 New state    371 was old state    375
 New state    373 was old state    388
 New state    374 was old state    369
 New state    375 was old state    373
 New state    376 was old state    377
 New state    377 was old state    379
 New state    378 was old state    381
 New state    379 was old state    378
 New state    381 was old state    386
 New state    382 was old state    376
 New state    384 was old state    392
 New state    385 was old state    389
 New state    386 was old state    387
 New state    387 was old state    385
 New state    388 was old state    382
 New state    389 was old state    395
 New state    391 was old state    384
 New state    392 was old state    391
 New state    393 was old state    394
 New state    394 was old state    393
 New state    395 was old state    396
 New state    396 was old state    397
 New state    397 was old state    402
 New state    399 was old state    407
 New state    400 was old state    401
 New state    401 was old state    399
 New state    402 was old state    410
 New state    403 was old state    400
 New state    404 was old state    403
 New state    405 was old state    404
 New state    406 was old state    405
 New state    407 was old state    416
 New state    408 was old state    406
 New state    409 was old state    408
 New state    410 was old state    409
 New state    412 was old state    414
 New state    413 was old state    415
 New state    414 was old state    412
 New state    415 was old state    413
 New state    416 was old state    417
 New state    417 was old state    443
 New state    418 was old state    419
 New state    419 was old state    421
 New state    420 was old state    418
 New state    421 was old state    420
 New state    423 was old state    426
 New state    424 was old state    423
 New state    425 was old state    424
 New state    426 was old state    427
 New state    427 was old state    429
 New state    428 was old state    425
 New state    429 was old state    428
 New state    430 was old state    433
 New state    431 was old state    432
 New state    432 was old state    431
 New state    433 was old state    434
 New state    434 was old state    435
 New state    435 was old state    437
 New state    436 was old state    439
 New state    437 was old state    436
 New state    438 was old state    441
 New state    439 was old state    440
 New state    440 was old state    445
 New state    441 was old state    438
 New state    442 was old state    451
 New state    443 was old state    442
 New state    445 was old state    448
 New state    448 was old state    449
 New state    449 was old state    450
 New state    450 was old state    459
 No map to state    451
 New state    453 was old state    458
 New state    454 was old state    453
 New state    455 was old state    456
 New state    456 was old state    455
 New state    457 was old state    454
 New state    458 was old state    463
 New state    459 was old state    461
 New state    461 was old state    457
 New state    463 was old state    464
 New state    464 was old state    467
 New state    465 was old state    466
 New state    466 was old state    465
 New state    467 was old state    469
 New state    469 was old state    476
 New state    471 was old state    473
 New state    472 was old state    471
 New state    473 was old state    475
 New state    474 was old state    472
 New state    475 was old state    481
 New state    476 was old state    479
 New state    478 was old state    480
 New state    479 was old state    478
 New state    480 was old state    482
 New state    481 was old state    484
 New state    482 was old state    474
 New state    483 was old state    485
 New state    484 was old state    486
 New state    485 was old state    496
 New state    486 was old state    489
 New state    487 was old state    490
 New state    488 was old state    491
 New state    489 was old state    487
 New state    490 was old state    488
 New state    491 was old state    493
 New state    493 was old state    502
 New state    494 was old state    495
 New state    495 was old state    497
 New state    496 was old state    494
 New state    497 was old state    498
 New state    498 was old state    499
 No map to state    499
 New state    501 was old state    505
 New state    502 was old state    503
 New state    503 was old state    509
 New state    505 was old state    506
 New state    506 was old state    501
 New state    509 was old state    517
 New state    511 was old state    513
 New state    512 was old state    515
 New state    513 was old state    511
 New state    514 was old state    512
 New state    515 was old state    514
 New state    517 was old state    519
 New state    518 was old state    521
 New state    519 was old state    520
 New state    520 was old state    522
 New state    521 was old state    518
 New state    522 was old state    523
 New state    523 was old state    524
 New state    524 was old state    531
 New state    525 was old state    529
 New state    526 was old state    525
 New state    527 was old state    526
 New state    529 was old state    527
 New state    530 was old state    532
 New state    531 was old state    534
 New state    532 was old state    530
 New state    534 was old state    536
 New state    536 was old state    537
 New state    537 was old state    540
 New state    540 was old state    542
 New state    541 was old state    543
 New state    542 was old state    541
 New state    543 was old state    547
 New state    544 was old state    546
 New state    545 was old state    544
 New state    546 was old state    545
 New state    547 was old state    549
 New state    548 was old state    550
 New state    549 was old state    551
 New state    550 was old state    548
 New state    551 was old state    553
 New state    552 was old state    556
 New state    553 was old state    554
 New state    554 was old state    555
 New state    555 was old state    552
 New state    556 was old state    559
 New state    558 was old state    560
 New state    559 was old state    558
 New state    560 was old state    565
 New state    562 was old state    564
 New state    563 was old state    562
 New state    564 was old state    563
 New state    565 was old state    566
 New state    566 was old state    567
 New state    567 was old state    570
 New state    568 was old state    569
 New state    569 was old state    573
 New state    570 was old state    574
 New state    571 was old state    568
 New state    572 was old state    575
 New state    573 was old state    576
 New state    574 was old state    571
 New state    575 was old state    572
 New state    576 was old state    582
 New state    580 was old state    581
 New state    581 was old state    580
 New state    582 was old state    583
 New state    583 was old state    584
 New state    584 was old state    586
 New state    585 was old state    588
 New state    586 was old state    587
 New state    587 was old state    590
 New state    588 was old state    589
 New state    589 was old state    585
 New state    590 was old state    593
 New state    591 was old state    594
 New state    592 was old state    595
 New state    593 was old state    591
 New state    594 was old state    592
 New state    595 was old state    596
 New state    596 was old state    599
 New state    599 was old state    601
 New state    600 was old state    602
 New state    601 was old state    600
 New state    602 was old state    611
 New state    607 was old state    610
 New state    608 was old state    607
 New state    609 was old state    608
 New state    610 was old state    609
 New state    611 was old state    612
 New state    612 was old state    615
 No map to state    614
 New state    615 was old state    614
 New state    622 was old state    623
 New state    623 was old state    624
 New state    624 was old state    622
 New state    626 was old state    628
 New state    628 was old state    630
 New state    629 was old state    626
 New state    630 was old state    629
 New state    634 was old state    635
 New state    635 was old state    634
 New state    639 was old state    640
 New state    640 was old state    639
 New state    641 was old state    642
 New state    642 was old state    643
 New state    643 was old state    641
 New state    647 was old state    648
 New state    648 was old state    647
 New state    650 was old state    652
 New state    651 was old state    650
 New state    652 was old state    651
 New state    653 was old state    654
 New state    654 was old state    653
 New state    655 was old state    656
 New state    656 was old state    655
 New state    659 was old state    661
 New state    661 was old state    659
 New state    664 was old state    665
 New state    665 was old state    666
 New state    666 was old state    664
 New state    667 was old state    668
 New state    668 was old state    669
 New state    669 was old state    670
 New state    670 was old state    671
 New state    671 was old state    667
 New state    674 was old state    676
 New state    675 was old state    674
 New state    676 was old state    675
 New state    682 was old state    683
 New state    683 was old state    682
 New state    684 was old state    685
 New state    685 was old state    684
 New state    686 was old state    688
 New state    687 was old state    686
 New state    688 was old state    687
 New state    691 was old state    694
 New state    693 was old state    691
 New state    694 was old state    695
 New state    695 was old state    693
 New state    698 was old state    699
 New state    699 was old state    698
 New state    700 was old state    702
 New state    702 was old state    700
 New state    704 was old state    705
 New state    705 was old state    704
 New state    709 was old state    710
 New state    710 was old state    709
 New state    712 was old state    713
 New state    713 was old state    712
 Excitation Energies [eV] at current iteration:
 Root      1 :     5.566234915357077
 Root      2 :     6.225555794728535
 Root      3 :     6.583213612763431
 Root      4 :     7.483116989810908
 Root      5 :     8.022123663461558
 Root      6 :     8.054987216934377
 Root      7 :     8.733184955886003
 Root      8 :     8.841283443967713
 Root      9 :     9.285359952882956
 Root     10 :     9.568349680116267
 Root     11 :     9.645252514511554
 Root     12 :     9.805563509508989
 Root     13 :    10.077614465084120
 Root     14 :    10.556628279467930
 Root     15 :    10.636136170514710
 Root     16 :    10.728554960938700
 Root     17 :    10.767005472860890
 Root     18 :    10.929983892537600
 Root     19 :    11.105867901484340
 Root     20 :    11.194791377641790
 Root     21 :    11.743124408604140
 Root     22 :    11.780835364892450
 Root     23 :    11.803993787880050
 Root     24 :    11.944666498784320
 Root     25 :    11.996760763465640
 Root     26 :    12.089232628299260
 Root     27 :    12.131511716723070
 Root     28 :    12.386671199403850
 Root     29 :    12.481377746723910
 Root     30 :    12.518784711987200
 Root     31 :    12.718964135670060
 Root     32 :    12.820583211728520
 Root     33 :    12.902598615608590
 Root     34 :    13.094927234479290
 Root     35 :    13.315380797341690
 Root     36 :    13.380207467393240
 Root     37 :    13.493086367999550
 Root     38 :    13.604465382646010
 Root     39 :    13.690442237521930
 Root     40 :    13.938396851064570
 Root     41 :    13.962750712584010
 Root     42 :    14.148285417013510
 Root     43 :    14.263048864900160
 Root     44 :    14.350841534792770
 Root     45 :    14.372937109774340
 Root     46 :    14.403443250299630
 Root     47 :    14.540092158373620
 Root     48 :    14.609686054325260
 Root     49 :    14.875657809566160
 Root     50 :    14.895653990981680
 Root     51 :    14.950101038339140
 Root     52 :    15.068714383876510
 Root     53 :    15.255003033600940
 Root     54 :    15.280054843507460
 Root     55 :    15.400523396686650
 Root     56 :    15.477097894212120
 Root     57 :    15.604401766916490
 Root     58 :    15.630639280346590
 Root     59 :    15.740837214811780
 Root     60 :    15.756206847627510
 Root     61 :    15.780807717552480
 Root     62 :    15.972190871175550
 Root     63 :    15.983582205705690
 Root     64 :    16.062107415689120
 Root     65 :    16.086136349713930
 Root     66 :    16.237395853198350
 Root     67 :    16.275404890352420
 Root     68 :    16.302099137198480
 Root     69 :    16.349238346871240
 Root     70 :    16.505456283785860
 Root     71 :    16.541515013398240
 Root     72 :    16.598813574286860
 Root     73 :    16.728653106795840
 Root     74 :    16.782410242438900
 Root     75 :    16.794769934360830
 Root     76 :    16.829752857811150
 Root     77 :    16.853459779593010
 Root     78 :    16.994709312624720
 Root     79 :    17.019193819499210
 Root     80 :    17.069385954039180
 Root     81 :    17.155685535329860
 Root     82 :    17.198802312127630
 Root     83 :    17.269843920429280
 Root     84 :    17.419606441268780
 Root     85 :    17.468245875999130
 Root     86 :    17.589962329872660
 Root     87 :    17.681809641291210
 Root     88 :    17.697391949372160
 Root     89 :    17.768761721181310
 Root     90 :    17.830999657734720
 Root     91 :    17.934996385724120
 Root     92 :    18.028300943548830
 Root     93 :    18.044138280983140
 Root     94 :    18.140193748391040
 Root     95 :    18.216699678927640
 Root     96 :    18.323306337984120
 Root     97 :    18.395685802825880
 Root     98 :    18.451946921757030
 Root     99 :    18.583690286737720
 Root    100 :    18.677968637558180
 Root    101 :    18.749942752736820
 Root    102 :    18.796157734910530
 Root    103 :    18.900120698284480
 Root    104 :    19.019812965661210
 Root    105 :    19.034119002044100
 Root    106 :    19.166710646872560
 Root    107 :    19.225138535108240
 Root    108 :    19.232960337902330
 Root    109 :    19.294613896492400
 Root    110 :    19.381125756236690
 Root    111 :    19.465032379175340
 Root    112 :    19.544843105290290
 Root    113 :    19.589226272140450
 Root    114 :    19.652147043229830
 Root    115 :    19.694071411520780
 Root    116 :    19.766923685740080
 Root    117 :    19.866941602993890
 Root    118 :    19.996514538776680
 Root    119 :    20.030439725935570
 Root    120 :    20.070878888340800
 Root    121 :    20.169231207769220
 Root    122 :    20.222543031692280
 Root    123 :    20.248665490285170
 Root    124 :    20.303957555074110
 Root    125 :    20.360808513298500
 Root    126 :    20.425412242608260
 Root    127 :    20.484533584104060
 Root    128 :    20.545455560093120
 Root    129 :    20.573813582420880
 Root    130 :    20.631599133703740
 Root    131 :    20.704352039903470
 Root    132 :    20.839367502440660
 Root    133 :    20.872457431350920
 Root    134 :    20.946648847554010
 Root    135 :    21.032294593432370
 Root    136 :    21.073898043245430
 Root    137 :    21.118790935368670
 Root    138 :    21.249686788007520
 Root    139 :    21.264975957243300
 Root    140 :    21.304842683376190
 Root    141 :    21.408392701925140
 Root    142 :    21.447641047443180
 Root    143 :    21.481294462704130
 Root    144 :    21.527557599204230
 Root    145 :    21.622138267157600
 Root    146 :    21.697452459799580
 Root    147 :    21.773168158223560
 Root    148 :    21.829843309927940
 Root    149 :    21.918917379468660
 Root    150 :    22.003008169891060
 Root    151 :    22.061204627271050
 Root    152 :    22.091868275757690
 Root    153 :    22.193224688781710
 Root    154 :    22.444150587033360
 Root    155 :    22.455861135901830
 Root    156 :    22.524716937687390
 Root    157 :    22.605359039046880
 Root    158 :    22.688785733212900
 Root    159 :    22.729862152851910
 Root    160 :    22.805347266636580
 Root    161 :    22.853643532520010
 Root    162 :    22.948316311924210
 Root    163 :    22.980803507663440
 Root    164 :    23.017095478292600
 Root    165 :    23.064934661596730
 Root    166 :    23.114353237461300
 Root    167 :    23.201239784774340
 Root    168 :    23.305238577117530
 Root    169 :    23.364200170367900
 Root    170 :    23.399067701159310
 Root    171 :    23.487743605093690
 Root    172 :    23.500007859025360
 Root    173 :    23.587497939440540
 Root    174 :    23.650609373491120
 Root    175 :    23.755854753207160
 Root    176 :    23.780850571235880
 Root    177 :    23.824351548754020
 Root    178 :    23.856498047020780
 Root    179 :    23.939886630595010
 Root    180 :    24.056495550363750
 Root    181 :    24.126160871250370
 Root    182 :    24.244453144213060
 Root    183 :    24.267991005699090
 Root    184 :    24.362148619545490
 Root    185 :    24.483824113435200
 Root    186 :    24.507447037529680
 Root    187 :    24.545476793109350
 Root    188 :    24.692918830027010
 Root    189 :    24.811980095494020
 Root    190 :    24.920054602284780
 Root    191 :    25.016308014394380
 Root    192 :    25.080791280700700
 Root    193 :    25.166965014491360
 Root    194 :    25.257376069039340
 Root    195 :    25.305178341996300
 Root    196 :    25.362588269279610
 Root    197 :    25.449892188256310
 Root    198 :    25.495232688007840
 Root    199 :    25.557440243423470
 Root    200 :    25.580318866083530
 Root    201 :    25.716166915079770
 Root    202 :    25.844351479127040
 Root    203 :    25.863026050888700
 Root    204 :    25.946989318662410
 Root    205 :    26.009163567049340
 Root    206 :    26.078425069625870
 Root    207 :    26.123290866004500
 Root    208 :    26.212525570946310
 Root    209 :    26.353227588843140
 Root    210 :    26.430009173474430
 Root    211 :    26.453199806345450
 Root    212 :    26.529559022356160
 Root    213 :    26.608223907605930
 Root    214 :    26.615343797545140
 Root    215 :    26.715745902094130
 Root    216 :    26.743892287955120
 Root    217 :    26.762117874914080
 Root    218 :    26.844021280351520
 Root    219 :    26.949564354418260
 Root    220 :    26.979453114300850
 Root    221 :    27.077251387798980
 Root    222 :    27.089815454459030
 Root    223 :    27.151774528690230
 Root    224 :    27.188687152884960
 Root    225 :    27.301468842371840
 Root    226 :    27.409858767761430
 Root    227 :    27.459361342347400
 Root    228 :    27.476822020343430
 Root    229 :    27.560061920707550
 Root    230 :    27.649553624144680
 Root    231 :    27.691133097978400
 Root    232 :    27.768295409482350
 Root    233 :    27.895986753009760
 Root    234 :    28.036689929725190
 Root    235 :    28.089601150980780
 Root    236 :    28.192947399559270
 Root    237 :    28.315300970563160
 Root    238 :    28.374851107888760
 Root    239 :    28.407399591935850
 Root    240 :    28.542259333799960
 Root    241 :    28.618899814374200
 Root    242 :    28.755824023301630
 Root    243 :    28.769320844836060
 Root    244 :    28.905248207672090
 Root    245 :    28.929671507672590
 Root    246 :    29.124367881841030
 Root    247 :    29.260321714830520
 Root    248 :    29.273035513994020
 Root    249 :    29.336935944773800
 Root    250 :    29.429297431722730
 Root    251 :    29.484896078929360
 Root    252 :    29.605936569864780
 Root    253 :    29.628108076639630
 Root    254 :    29.878832668849150
 Root    255 :    29.899086605529750
 Root    256 :    29.935639853665390
 Root    257 :    30.081887280995660
 Root    258 :    30.194393160616460
 Root    259 :    30.219653924005700
 Root    260 :    30.263502072491860
 Root    261 :    30.373786143798710
 Root    262 :    30.420700160353230
 Root    263 :    30.563230392683040
 Root    264 :    30.696364000870840
 Root    265 :    30.752633287334560
 Root    266 :    30.799875077166450
 Root    267 :    30.835024354745260
 Root    268 :    30.873707232838290
 Root    269 :    30.993030765541760
 Root    270 :    31.063046637741060
 Root    271 :    31.142493055972610
 Root    272 :    31.297800350034090
 Root    273 :    31.424696789850980
 Root    274 :    31.485527475322710
 Root    275 :    31.523831761026290
 Root    276 :    31.565780455708230
 Root    277 :    31.756483582139580
 Root    278 :    31.881222145062210
 Root    279 :    31.966409720051290
 Root    280 :    32.072272355592740
 Root    281 :    32.086308464234310
 Root    282 :    32.126758220801850
 Root    283 :    32.162364920674280
 Root    284 :    32.271902892503290
 Root    285 :    32.347510326188650
 Root    286 :    32.504865251427190
 Root    287 :    32.556530575744010
 Root    288 :    32.604569813656250
 Root    289 :    32.651456867336040
 Root    290 :    32.831471274641040
 Root    291 :    32.917187616340660
 Root    292 :    32.954586423256640
 Root    293 :    33.003930884731240
 Root    294 :    33.263418439897530
 Root    295 :    33.350558404800640
 Root    296 :    33.536273945254160
 Root    297 :    33.645094201955650
 Root    298 :    33.758440500875820
 Root    299 :    33.776674680614540
 Root    300 :    33.850093836423790
 Root    301 :    33.887740090578140
 Root    302 :    33.902772548705200
 Root    303 :    33.963062699199910
 Root    304 :    34.070912526343610
 Root    305 :    34.118452023731790
 Root    306 :    34.302574074667950
 Root    307 :    34.406075793766080
 Root    308 :    34.445315055111780
 Root    309 :    34.559344448120110
 Root    310 :    34.796307539430200
 Root    311 :    34.900967149851920
 Root    312 :    34.956410570382290
 Root    313 :    35.061868066097430
 Root    314 :    35.119894646473500
 Root    315 :    35.147415592435070
 Root    316 :    35.329211549406980
 Root    317 :    35.465675938362150
 Root    318 :    35.584444554193470
 Root    319 :    35.715927116437070
 Root    320 :    35.741688517071170
 Root    321 :    35.953509148057410
 Root    322 :    35.987981071215000
 Root    323 :    36.049432328881730
 Root    324 :    36.122617952167300
 Root    325 :    36.181745121236240
 Root    326 :    36.317190217568550
 Root    327 :    36.407069757974140
 Root    328 :    36.501487543738810
 Root    329 :    36.737341200313670
 Root    330 :    36.765451699377100
 Root    331 :    36.964951324564100
 Root    332 :    37.072085884221030
 Root    333 :    37.136851820036910
 Root    334 :    37.221824124668980
 Root    335 :    37.381824728855930
 Root    336 :    37.515955679478190
 Root    337 :    37.588765643961680
 Root    338 :    37.664672400343780
 Root    339 :    37.718568622044860
 Root    340 :    37.959651970971170
 Root    341 :    37.981933876009250
 Root    342 :    37.999425938908420
 Root    343 :    38.077304556012190
 Root    344 :    38.120102184125440
 Root    345 :    38.170995423805730
 Root    346 :    38.327721507829690
 Root    347 :    38.450741981998440
 Root    348 :    38.556885503457010
 Root    349 :    38.583280732735750
 Root    350 :    38.768907051881000
 Root    351 :    38.810848968085120
 Root    352 :    38.915355516292060
 Root    353 :    39.119609989836390
 Root    354 :    39.241750921276590
 Root    355 :    39.270593909428150
 Root    356 :    39.508328434126770
 Root    357 :    39.592238636914230
 Root    358 :    39.708374853933310
 Root    359 :    39.743342268879350
 Root    360 :    39.986116221376410
 Root    361 :    40.065163072752550
 Root    362 :    40.200011458613420
 Root    363 :    40.329302405393080
 Root    364 :    40.537576539810940
 Root    365 :    40.592787508672710
 Root    366 :    40.802429526458520
 Root    367 :    40.901061563147660
 Root    368 :    41.078687505786690
 Root    369 :    41.096681970238190
 Root    370 :    41.174145581577120
 Root    371 :    41.340102872413040
 Root    372 :    41.441682552009540
 Root    373 :    41.502005518934960
 Root    374 :    41.612412902726500
 Root    375 :    41.802947123780650
 Root    376 :    41.849033527221910
 Root    377 :    42.142997387671540
 Root    378 :    42.287317131076800
 Root    379 :    42.334516523340950
 Root    380 :    42.417679855996520
 Root    381 :    42.462999161796850
 Root    382 :    42.475773447917370
 Root    383 :    42.634017012910910
 Root    384 :    42.811881429950990
 Root    385 :    42.991540558153300
 Root    386 :    43.041619021470430
 Root    387 :    43.175743730495510
 Root    388 :    43.241807657544120
 Root    389 :    43.407331247024240
 Root    390 :    43.497671288053510
 Root    391 :    43.588064431075130
 Root    392 :    43.733814284319490
 Root    393 :    43.967803011813910
 Root    394 :    44.106105739418730
 Root    395 :    44.229730751781990
 Root    396 :    44.424389634238660
 Root    397 :    44.526112561748770
 Root    398 :    44.645331490205930
 Root    399 :    44.821529043302100
 Root    400 :    44.981568173508720
 Root    401 :    45.228996603221230
 Root    402 :    45.317474476417070
 Root    403 :    45.419810133859970
 Root    404 :    45.646516426859430
 Root    405 :    45.720559957478500
 Root    406 :    45.944387110462630
 Root    407 :    46.014084742520960
 Root    408 :    46.195002826936380
 Root    409 :    46.330604403702510
 Root    410 :    46.521030677676660
 Root    411 :    46.600209110634240
 Root    412 :    46.623522023625510
 Root    413 :    46.863422322072350
 Root    414 :    46.909536463371750
 Root    415 :    47.026779570380320
 Root    416 :    47.352963503669460
 Root    417 :    47.444650723671920
 Root    418 :    47.628115847932650
 Root    419 :    47.899960431862620
 Root    420 :    47.950750076485610
 Root    421 :    48.163003034344780
 Root    422 :    48.387282163121150
 Root    423 :    48.496545931809830
 Root    424 :    48.637770047772150
 Root    425 :    48.695247397842640
 Root    426 :    48.867613185892050
 Root    427 :    48.892984212582920
 Root    428 :    48.979748986834450
 Root    429 :    49.187400669189090
 Root    430 :    49.460237135549390
 Root    431 :    49.714812290832470
 Root    432 :    49.808553993354370
 Root    433 :    49.958594460590920
 Root    434 :    50.070605397755730
 Root    435 :    50.231248110713370
 Root    436 :    50.313383303199370
 Root    437 :    50.612754634032640
 Root    438 :    50.889570761658530
 Root    439 :    50.927768025888600
 Root    440 :    50.999387436046300
 Root    441 :    51.053799321029350
 Root    442 :    51.176411440983170
 Root    443 :    51.312760104905010
 Root    444 :    51.552734455309210
 Root    445 :    51.704156038934660
 Root    446 :    51.741118518835800
 Root    447 :    52.020571696240000
 Root    448 :    52.026760732887000
 Root    449 :    52.225681253072390
 Root    450 :    52.292251407632710
 Root    451 :    52.493932288826490
 Root    452 :    52.731657249512620
 Root    453 :    53.287940612426390
 Root    454 :    53.367162100220030
 Root    455 :    53.565196864013270
 Root    456 :    53.613654550888140
 Root    457 :    53.987458567293120
 Root    458 :    54.116671510537000
 Root    459 :    54.188188823501850
 Root    460 :    54.325250233486930
 Root    461 :    54.371881366055670
 Root    462 :    54.537848077926630
 Root    463 :    54.664750952961530
 Root    464 :    54.690339706665480
 Root    465 :    54.809914498509190
 Root    466 :    55.055691420372900
 Root    467 :    55.144220283245000
 Root    468 :    55.219289747743270
 Root    469 :    55.367028336492970
 Root    470 :    55.854941652469850
 Root    471 :    56.002445334388160
 Root    472 :    56.115447895507380
 Root    473 :    56.180896375094830
 Root    474 :    56.223566592648430
 Root    475 :    56.291861779994800
 Root    476 :    56.475774516402390
 Root    477 :    56.510223688344420
 Root    478 :    56.690675233086400
 Root    479 :    56.807905935168730
 Root    480 :    56.911266169685980
 Root    481 :    57.136932208178510
 Root    482 :    57.155341620330670
 Root    483 :    57.388531735012930
 Root    484 :    57.462345201969490
 Root    485 :    57.635555409447320
 Root    486 :    57.827808054989120
 Root    487 :    58.085866104835690
 Root    488 :    58.182234180206020
 Root    489 :    58.478461127839090
 Root    490 :    58.634891231895820
 Root    491 :    58.714309071897110
 Root    492 :    58.814441265105640
 Root    493 :    58.860296772962010
 Root    494 :    59.055353022419370
 Root    495 :    59.283195909779940
 Root    496 :    59.331396394029880
 Root    497 :    59.407070751043350
 Root    498 :    59.842626998874800
 Root    499 :    59.906006923065850
 Root    500 :    60.080327217900510
 Root    501 :    60.190268984869350
 Root    502 :    60.478217351851490
 Root    503 :    60.547106155548130
 Root    504 :    60.905016483082040
 Root    505 :    60.981478350672350
 Root    506 :    60.997786346233520
 Root    507 :    61.042893055733760
 Root    508 :    61.325438333088210
 Root    509 :    61.461522639247780
 Root    510 :    61.616680616380030
 Root    511 :    61.704042492518950
 Root    512 :    61.929046715304620
 Root    513 :    62.116611706100310
 Root    514 :    62.195969095018290
 Root    515 :    62.427460220293720
 Root    516 :    62.587300107235720
 Root    517 :    62.615421453428980
 Root    518 :    62.745104529545710
 Root    519 :    62.808551751905310
 Root    520 :    63.010329676821220
 Root    521 :    63.046156722826230
 Root    522 :    63.194714460595020
 Root    523 :    63.441425340050920
 Root    524 :    63.502149756152530
 Root    525 :    63.684019480446840
 Root    526 :    63.726280742603220
 Root    527 :    63.982294364859160
 Root    528 :    64.276722123918550
 Root    529 :    64.409314581928090
 Root    530 :    64.450596588307930
 Root    531 :    64.538009273003440
 Root    532 :    64.676933649477770
 Root    533 :    64.868127264488950
 Root    534 :    64.969217097016780
 Root    535 :    65.069520077966930
 Root    536 :    65.352833098825100
 Root    537 :    65.421150119536930
 Root    538 :    65.594540631676490
 Root    539 :    65.659128319866920
 Root    540 :    65.859032798752740
 Root    541 :    65.996295266496360
 Root    542 :    66.157594790022510
 Root    543 :    66.859292371157200
 Root    544 :    67.010438607857340
 Root    545 :    67.083486807304010
 Root    546 :    67.140614436626950
 Root    547 :    67.261489098291920
 Root    548 :    67.393822033526530
 Root    549 :    67.607288536473010
 Root    550 :    67.630072249368580
 Root    551 :    67.719599437865720
 Root    552 :    67.885698686602590
 Root    553 :    68.017041190578130
 Root    554 :    68.140980543780500
 Root    555 :    68.366281544720620
 Root    556 :    68.455051080283710
 Root    557 :    68.547541509180080
 Root    558 :    68.843000229865590
 Root    559 :    68.911765620327590
 Root    560 :    68.969918809623240
 Root    561 :    69.250830267791160
 Root    562 :    69.488230757787410
 Root    563 :    69.667067269022340
 Root    564 :    69.881982496139290
 Root    565 :    70.090310814174250
 Root    566 :    70.350023896329520
 Root    567 :    70.537510833322660
 Root    568 :    70.618215364764470
 Root    569 :    70.918687545168880
 Root    570 :    71.013335111633440
 Root    571 :    71.225460163561990
 Root    572 :    71.323484673160490
 Root    573 :    71.434265336118160
 Root    574 :    71.504383137266760
 Root    575 :    71.685772965424820
 Root    576 :    71.793176270551410
 Root    577 :    71.918860597572560
 Root    578 :    71.988424412375720
 Root    579 :    72.461638799322610
 Root    580 :    72.690890496374100
 Root    581 :    72.894966370344510
 Root    582 :    73.064849445480630
 Root    583 :    73.250168496946070
 Root    584 :    73.325591805952580
 Root    585 :    73.507839022766940
 Root    586 :    73.764777962063920
 Root    587 :    73.919277669860220
 Root    588 :    74.101511508799280
 Root    589 :    74.192544923640170
 Root    590 :    74.507708781054700
 Root    591 :    74.662106098197460
 Root    592 :    74.991746102058090
 Root    593 :    75.139606612401370
 Root    594 :    75.272565341811330
 Root    595 :    75.411654416387220
 Root    596 :    75.863833786428400
 Root    597 :    76.049966330181700
 Root    598 :    76.133209165024330
 Root    599 :    76.529091146791400
 Root    600 :    76.716379601523230
 Root    601 :    76.960644881072410
 Root    602 :    77.179310255234450
 Root    603 :    77.576304428754400
 Root    604 :    77.796178438604300
 Root    605 :    77.809510307528210
 Root    606 :    77.952338142771210
 Root    607 :    78.085007365737230
 Root    608 :    78.282521067662600
 Root    609 :    78.401876456100550
 Root    610 :    78.601386865313840
 Root    611 :    78.674672491371610
 Root    612 :    78.745979634840790
 Root    613 :    78.821627156557380
 Root    614 :    78.994358453935400
 Root    615 :    79.362572310350760
 Root    616 :    79.877239784275120
 Root    617 :    80.050542210000740
 Root    618 :    80.151901520736560
 Root    619 :    80.641913666019180
 Root    620 :    80.767293634910540
 Root    621 :    81.088106560691500
 Root    622 :    81.135371164103550
 Root    623 :    81.203511490533230
 Root    624 :    81.481053327226590
 Root    625 :    82.093653351057540
 Root    626 :    82.221765926962480
 Root    627 :    82.368031407311160
 Root    628 :    82.708646322104440
 Root    629 :    82.783722788541950
 Root    630 :    82.952279498486790
 Root    631 :    83.453076675206990
 Root    632 :    83.828567249149630
 Root    633 :    83.966553827277320
 Root    634 :    84.130976779417610
 Root    635 :    84.534457206658080
 Root    636 :    84.854591321037390
 Root    637 :    85.222359774662280
 Root    638 :    85.347249106862040
 Root    639 :    85.751906572437050
 Root    640 :    85.887049924241250
 Root    641 :    85.922423747036400
 Root    642 :    86.030365000933900
 Root    643 :    86.340085930473040
 Root    644 :    86.761201817893640
 Root    645 :    87.021405249136890
 Root    646 :    87.312288701106570
 Root    647 :    88.280099561682320
 Root    648 :    88.347662217691040
 Root    649 :    88.793572801683580
 Root    650 :    89.151714548086160
 Root    651 :    89.320704678422590
 Root    652 :    89.402823164890860
 Root    653 :    89.719687874993450
 Root    654 :    89.998910681355870
 Root    655 :    90.317893610251390
 Root    656 :    90.615107363848140
 Root    657 :    90.746720718387150
 Root    658 :    90.992549589339350
 Root    659 :    91.236276939735900
 Root    660 :    91.316608333126940
 Root    661 :    91.377806683281890
 Root    662 :    92.371725297413920
 Root    663 :    92.690208956890020
 Root    664 :    92.899231223438490
 Root    665 :    92.948056989853460
 Root    666 :    93.102697333169050
 Root    667 :    93.771372884721270
 Root    668 :    94.006502081315180
 Root    669 :    94.397791339744400
 Root    670 :    94.645200314344010
 Root    671 :    94.766381712108710
 Root    672 :    95.117887870456020
 Root    673 :    95.578792835288520
 Root    674 :    95.678985194211710
 Root    675 :    95.856570009838710
 Root    676 :    96.100052209306970
 Root    677 :    96.388710876920360
 Root    678 :    96.601588298307760
 Root    679 :    96.876103431758350
 Root    680 :    97.388252919376170
 Root    681 :    98.222570555016060
 Root    682 :    98.576874348453640
 Root    683 :    98.776589960486870
 Root    684 :    99.113190815688640
 Root    685 :    99.619427670527840
 Root    686 :   100.244327042239300
 Root    687 :   100.366245047132300
 Root    688 :   100.792428168098000
 Root    689 :   100.996554838754500
 Root    690 :   101.689420447325200
 Root    691 :   102.054330072750700
 Root    692 :   102.126265664919900
 Root    693 :   102.228890064316300
 Root    694 :   102.512547942758000
 Root    695 :   102.533509513008700
 Root    696 :   103.007645692631800
 Root    697 :   103.923915713819900
 Root    698 :   104.886091148233900
 Root    699 :   105.365459987722900
 Root    700 :   105.683679440754400
 Root    701 :   105.892017166593700
 Root    702 :   106.445184483157700
 Root    703 :   106.681456688188300
 Root    704 :   106.975919729368000
 Root    705 :   107.799110052712800
 Root    706 :   108.424319189793900
 Root    707 :   108.649291951539500
 Root    708 :   109.034917620742200
 Root    709 :   110.413311313808500
 Root    710 :   110.701772026800900
 Root    711 :   111.089060627322200
 Root    712 :   111.158773824722300
 Root    713 :   111.906860194640300
 Root    714 :   112.534015624697000
 Root    715 :   113.741994348548000
 Root    716 :   115.396145751174800
 Root    717 :   116.946544331503400
 Root    718 :   118.808302535445900
 Root    719 :   121.665615530136400
 Root    720 :   123.467618915645500
 Convergence achieved for final wavefunctions.
 ***********************************************************************
 Excited states from <AA,BB:AA,BB> singles matrix:
 ***********************************************************************
 
 1PDM for each excited state written to RWF  633
 Ground to excited state transition densities written to RWF  633
 Ground to excited state transition electric dipole moments (Au):
       state          X           Y           Z        Dip. S.      Osc.
         1         0.0926     -0.0379      0.0667      0.0145      0.0020
         2         1.0197     -0.1005      0.0053      1.0499      0.1601
         3        -0.6361      0.0594      0.0968      0.4175      0.0673
         4        -0.0173      0.0037      0.4027      0.1625      0.0298
         5        -0.2965     -0.2524      0.0648      0.1558      0.0306
         6         0.1028     -0.2264     -0.2039      0.1034      0.0204
         7         0.1360      0.0315     -0.0013      0.0195      0.0042
         8        -0.2812      0.1681     -0.0350      0.1086      0.0235
         9        -0.1150      0.0195     -0.1731      0.0436      0.0099
        10        -0.1327     -0.1574     -0.0900      0.0505      0.0118
        11         0.0063      0.7615      0.0328      0.5809      0.1373
        12         0.0512     -0.0906     -0.0752      0.0165      0.0040
        13         0.3288      0.1913      0.0106      0.1448      0.0358
        14        -0.3492      0.1195     -0.0798      0.1426      0.0369
        15        -0.2373      0.5684     -0.0092      0.3795      0.0989
        16         0.2930      0.0551     -0.0123      0.0891      0.0234
        17         0.3270     -0.3822     -0.0227      0.2535      0.0669
        18         0.4443     -0.0165     -0.0579      0.2010      0.0538
        19        -0.3356      0.0469     -0.1705      0.1439      0.0391
        20        -0.4415     -0.0799      0.2681      0.2732      0.0749
        21        -0.4640     -0.1306      0.0552      0.2354      0.0677
        22        -0.2733      0.0006      0.1941      0.1124      0.0324
        23         0.2988      0.0143      0.3687      0.2254      0.0652
        24         0.0842     -0.1388      0.1645      0.0534      0.0156
        25         0.3680     -0.1231     -0.0088      0.1506      0.0443
        26        -0.0345      0.0871      0.0568      0.0120      0.0036
        27        -0.2434      0.1344     -0.1681      0.1056      0.0314
        28         0.5708     -0.0614     -0.1391      0.3490      0.1059
        29        -0.0932     -0.0779      0.5748      0.3452      0.1056
        30        -0.2436     -0.1859     -0.3458      0.2135      0.0655
        31        -0.2247      0.3808     -0.2923      0.2810      0.0876
        32        -0.0919      0.3619      0.2434      0.1986      0.0624
        33        -0.2053      0.0567      0.1300      0.0623      0.0197
        34        -0.1172     -0.4933      0.1032      0.2677      0.0859
        35        -0.3569     -0.1443      0.0037      0.1482      0.0483
        36         0.1225     -0.0309      0.1203      0.0304      0.0100
        37        -0.2012      0.0240     -0.0133      0.0412      0.0136
        38        -0.1500     -0.0090     -0.0739      0.0280      0.0093
        39         0.1417      0.1874      0.0384      0.0567      0.0190
        40         0.3585     -0.1615      0.2382      0.2113      0.0722
        41        -0.2791      0.0125     -0.0119      0.0782      0.0268
        42        -0.0192      0.1702      0.0050      0.0294      0.0102
        43         0.2910     -0.0176      0.0912      0.0933      0.0326
        44         0.0635      0.1580      0.3171      0.1295      0.0455
        45         0.3270     -0.0118      0.0009      0.1071      0.0377
        46        -0.1452     -0.0316     -0.0968      0.0315      0.0111
        47         0.1160     -0.0616     -0.0594      0.0208      0.0074
[...]
     13  -0.202924D-01 -0.264721D-01 -0.255300D-01 -0.943241D-01 -0.774808D-01
     14  -0.175965D+00  0.727765D-01 -0.142752D+00  0.793329D-01  0.144117D+00
     15  -0.108918D+00 -0.179089D+00 -0.367299D-02 -0.340904D-01  0.180995D+00
     16   0.582751D-01  0.100940D-01  0.139909D+00  0.367596D-01 -0.650945D-01
               651           652           653           654           655 
      1  -0.146505D+03 -0.146502D+03 -0.146491D+03 -0.146480D+03 -0.146469D+03
      2  -0.591018D-01  0.796036D-01  0.671929D-01  0.299530D-01 -0.736391D-02
      3  -0.375100D-01  0.373271D-01  0.328705D-01  0.570628D-01 -0.603539D-01
      4   0.527005D-01  0.611003D-01 -0.699621D-01  0.214868D-01  0.878195D-02
      5   0.205595D+00 -0.279328D+00 -0.217904D+00 -0.793197D-01  0.189856D-01
      6   0.124675D+00 -0.104616D+00 -0.107010D+00 -0.178745D+00  0.178627D+00
      7  -0.145244D+00 -0.174116D+00  0.226755D+00 -0.582333D-01 -0.283185D-01
      8  -0.867062D-03  0.104713D+00  0.175851D+00  0.516519D-01  0.822350D-01
      9  -0.426942D-01  0.475166D-01 -0.297404D+00  0.168089D-01  0.112078D+00
     10   0.860860D-01 -0.103679D+00 -0.128678D+00  0.166659D+00 -0.157862D+00
     11   0.418973D-01 -0.440573D+00 -0.121671D+01  0.180032D+00 -0.103473D+00
     12  -0.157042D+00  0.210293D+00 -0.172310D+00  0.155433D+00  0.154772D+00
     13   0.106317D+00  0.268209D-01 -0.119862D+00  0.518744D-01 -0.389245D-01
     14  -0.340577D-01  0.394988D+00 -0.283262D+00 -0.240834D+00 -0.188062D+00
     15  -0.226701D-01  0.107358D-01  0.314493D+00 -0.810808D-02 -0.152487D+00
     16  -0.827534D-02  0.230638D+00  0.289420D+00  0.149167D+00  0.115927D+00
               656           657           658           659           660 
      1  -0.146458D+03 -0.146453D+03 -0.146444D+03 -0.146435D+03 -0.146432D+03
      2   0.948537D-02  0.336388D-01 -0.639080D-01  0.519062D-02  0.414745D-02
      3   0.202535D-01 -0.158216D-01  0.196910D-02 -0.289338D-01  0.248390D-01
      4   0.449768D-01 -0.478692D-01 -0.276668D-01  0.103084D+00  0.476197D-01
      5  -0.355205D-01 -0.124105D+00  0.203246D+00 -0.126853D-01 -0.167226D-01
      6  -0.695476D-01  0.313215D-01 -0.365589D-02  0.920385D-01 -0.797948D-01
      7  -0.134700D+00  0.148369D+00  0.833894D-01 -0.317662D+00 -0.146365D+00
      8  -0.150410D+00 -0.647247D-01  0.595345D-01  0.105568D+00 -0.340135D-01
      9   0.649827D+00 -0.451531D+00 -0.340757D+00  0.377750D+00  0.249025D+00
     10  -0.259424D+00 -0.456246D+00  0.841981D-01  0.111929D+00 -0.171429D+00
     11  -0.164780D-01 -0.239095D+00 -0.172210D-01 -0.181621D+00  0.839615D+00
     12  -0.501937D-01  0.133670D-01  0.301816D+00  0.131745D+00 -0.153759D-01
     13   0.156730D+00 -0.745732D-01 -0.117049D+00 -0.238330D+00  0.116922D+00
     14  -0.508814D+00 -0.347278D+00 -0.556365D+00 -0.147990D+00  0.130209D+00
     15  -0.683755D+00  0.533462D+00  0.480480D+00 -0.348423D+00 -0.248255D+00
     16  -0.182776D+00 -0.489777D-01  0.105141D+00  0.185446D+00 -0.109582D-01
               661           662           663           664           665 
      1  -0.146430D+03 -0.146393D+03 -0.146381D+03 -0.146374D+03 -0.146372D+03
      2  -0.372810D-01  0.335213D-01  0.150813D-01  0.414700D-01 -0.608693D-01
      3  -0.442031D-01  0.726011D-01  0.404092D-02  0.508093D-01  0.556007D-01
      4   0.125010D+00  0.443154D-02  0.179425D-01  0.212188D-01  0.261159D-01
      5   0.114543D+00 -0.983869D-01 -0.607283D-01 -0.124445D+00  0.195194D+00
      6   0.140543D+00 -0.232183D+00 -0.247472D-01 -0.152853D+00 -0.180483D+00
      7  -0.398879D+00 -0.144353D-01 -0.556754D-01 -0.553394D-01 -0.777004D-01
      8   0.739225D-01 -0.436565D-03 -0.133110D+00  0.148422D+00  0.132329D+00
      9   0.737954D+00 -0.167246D-01  0.325613D+00 -0.130670D+00 -0.221004D+00
     10   0.231989D+00 -0.251499D+00 -0.168871D+00  0.159220D+00 -0.220123D+00
     11   0.604860D+00  0.531597D+00 -0.348047D+00  0.211932D+00  0.150897D+00
     12  -0.403481D-01  0.444768D+00  0.165494D+00  0.992542D-01  0.706905D-01
     13   0.360722D+00 -0.197898D+00  0.720290D-01 -0.324421D-01 -0.541128D-01
     14   0.515938D+00 -0.139997D+00 -0.347439D-01  0.976952D-01 -0.407902D+00
     15  -0.769184D+00 -0.820333D-01 -0.319102D+00  0.177706D+00  0.175765D+00
     16   0.154625D+00  0.600938D-01 -0.305058D+00  0.577924D-01  0.225934D+00
               666           667           668           669           670 
      1  -0.146366D+03 -0.146342D+03 -0.146333D+03 -0.146319D+03 -0.146310D+03
      2   0.361446D-01  0.829973D-02  0.945004D-01 -0.963219D-02 -0.154534D-01
      3   0.439240D-01 -0.601879D-01 -0.271551D-01 -0.329144D-01  0.283513D-01
      4   0.950403D-02  0.432518D-01 -0.930843D-01  0.124568D-01 -0.152579D-02
      5  -0.112127D+00 -0.235415D-01 -0.311208D+00  0.379930D-01  0.472595D-01
      6  -0.144384D+00  0.189450D+00  0.843800D-01  0.101344D+00 -0.103572D+00
      7  -0.388442D-01 -0.131858D+00  0.281132D+00 -0.369396D-01  0.503352D-02
      8  -0.198508D+00  0.650591D-01 -0.128959D+00  0.111839D-03 -0.707946D-01
      9   0.322892D+00  0.430861D-01 -0.421940D+00  0.914857D-01  0.152148D+00
     10  -0.362320D-01 -0.526116D-01  0.106443D+00  0.106915D-01 -0.461652D+00
     11  -0.353114D-01 -0.186736D+00 -0.615069D+00  0.524164D-01  0.348797D+00
     12  -0.264474D+00 -0.628187D-01 -0.492030D-02 -0.117668D-01 -0.157019D+00
     13   0.131969D+00  0.770955D-01 -0.161971D+00  0.162451D+00  0.945806D-01
     14  -0.138868D+00 -0.538094D-02  0.134498D+00  0.358233D-01 -0.327343D+00
     15  -0.312478D+00 -0.658455D-01  0.591609D+00 -0.133404D+00 -0.204324D+00
     16  -0.268781D+00  0.955301D-02 -0.156560D+00 -0.378772D-01 -0.981789D-01
               671           672           673           674           675 
      1  -0.146305D+03 -0.146292D+03 -0.146275D+03 -0.146272D+03 -0.146265D+03
      2   0.402388D-01  0.518660D-01  0.152332D-01 -0.791473D-01 -0.238431D-03
      3   0.731730D-01  0.543883D-03 -0.834358D-02 -0.279514D-01  0.288522D-01
      4  -0.193421D-01  0.492735D-02  0.179679D-01 -0.182530D-01  0.234320D-01
      5  -0.134443D+00 -0.173572D+00 -0.566116D-01  0.268391D+00 -0.144270D-01
      6  -0.230218D+00  0.184188D-01  0.334674D-01  0.105203D+00 -0.917743D-01
      7   0.615061D-01 -0.203140D-01 -0.565304D-01  0.650816D-01 -0.859008D-01
      8  -0.916414D-01  0.300641D-01  0.205894D-01 -0.116157D-01  0.150608D+00
      9   0.686993D-01 -0.755801D-01  0.427039D-01 -0.134061D+00  0.616243D-01
     10  -0.173293D+00 -0.242659D+00 -0.100573D+00  0.109162D+00 -0.380835D+00
     11   0.236056D-01  0.567009D+00 -0.284515D+00  0.224567D+00 -0.104291D+00
     12  -0.214890D+00 -0.250076D+00  0.175135D+00 -0.629995D+00 -0.404660D-01
     13  -0.250346D-02  0.152294D+00 -0.675893D-01 -0.847182D-01 -0.359917D-03
     14  -0.704824D-01  0.235006D-01  0.166605D+00 -0.299785D+00 -0.176250D+00
     15  -0.927642D-01  0.416550D-01 -0.656057D-01  0.123740D+00 -0.548390D-01
     16  -0.103320D+00  0.134679D+00 -0.487269D-01 -0.264418D-01  0.350997D+00
               676           677           678           679           680 
      1  -0.146256D+03 -0.146245D+03 -0.146238D+03 -0.146228D+03 -0.146209D+03
      2  -0.430596D-02  0.348006D-01 -0.290315D-01 -0.685526D-01  0.804050D-01
      3  -0.398174D-01 -0.324240D-01  0.612577D-01 -0.415829D-01 -0.711019D-02
      4   0.313746D-01 -0.905694D-02  0.316085D-02 -0.232547D-02 -0.854448D-02
      5   0.173556D-01 -0.119261D+00  0.810418D-01  0.223828D+00 -0.261266D+00
      6   0.129063D+00  0.105494D+00 -0.200785D+00  0.133970D+00 -0.137499D-02
      7  -0.976239D-01  0.299220D-01 -0.157427D-01  0.437545D-02  0.247581D-01
      8  -0.255920D+00 -0.108476D+00 -0.455021D-01 -0.230838D-01  0.113448D+00
      9   0.560754D+00  0.214788D+00  0.680106D-01 -0.222863D-01 -0.160867D+00
     10   0.247834D+00  0.143542D+00 -0.139497D+00 -0.268144D+00  0.200001D+00
     11  -0.856322D-01 -0.656974D+00 -0.823486D+00 -0.194698D+00  0.183368D-01
     12  -0.132474D+00 -0.126788D+00 -0.616535D-01 -0.425245D-01 -0.487107D+00
     13   0.282711D+00  0.728830D-01 -0.292539D-01  0.186065D-01 -0.718541D-01
     14   0.199640D+00  0.146978D+00 -0.857962D-01 -0.215378D+00  0.288693D+00
     15  -0.622013D+00 -0.200154D+00 -0.415410D-01  0.193514D-01  0.245012D+00
     16  -0.435237D+00 -0.215868D+00  0.158866D-01  0.381328D-01  0.201705D+00
               681           682           683           684           685 
      1  -0.146178D+03 -0.146165D+03 -0.146158D+03 -0.146145D+03 -0.146127D+03
      2  -0.365479D-01 -0.258797D-01  0.471706D-01  0.403260D-02  0.109547D-01
      3   0.857811D-01  0.842159D-01 -0.129389D-01  0.257792D-01 -0.339295D-01
      4   0.109237D-02 -0.461732D-02  0.124307D-01 -0.234773D-02 -0.140775D-01
      5   0.115405D+00  0.815439D-01 -0.143080D+00 -0.935038D-02 -0.411483D-01
      6  -0.258662D+00 -0.273845D+00  0.374017D-01 -0.816465D-01  0.958051D-01
      7   0.207432D-02  0.597026D-02 -0.347042D-01  0.107207D-01  0.456407D-01
      8   0.115071D-01 -0.168234D+00 -0.165890D-01 -0.882387D-01  0.635197D-01
      9  -0.110037D-01  0.152527D+00  0.126904D+00  0.955301D-01 -0.130688D+00
     10  -0.631117D-01 -0.553142D+00  0.177184D+00 -0.107773D+00  0.135858D+00
     11   0.287966D+00  0.434668D+00 -0.188498D+00  0.243804D-02 -0.845039D+00
     12   0.183115D+00 -0.201883D-01  0.226903D+00 -0.120213D-01  0.646997D-01
     13  -0.334621D-01  0.912614D-01 -0.567380D-01  0.400628D-01 -0.703146D-01
     14  -0.212693D+00 -0.312240D+00  0.217412D+00  0.479301D-02  0.202192D+00
     15  -0.126214D+00 -0.146016D+00 -0.178960D+00 -0.131236D+00  0.149408D+00
     16   0.832208D-01 -0.146615D+00 -0.103603D+00  0.544397D-01  0.124385D-01
               686           687           688           689           690 
      1  -0.146104D+03 -0.146099D+03 -0.146084D+03 -0.146076D+03 -0.146051D+03
      2   0.207305D-01  0.171141D-01  0.268290D-01  0.155228D-01  0.239386D-01
      3  -0.890447D-01  0.880482D-02  0.126646D-01  0.316671D-01 -0.103843D-01
      4   0.316166D-01  0.510658D-01 -0.721667D-02  0.642203D-01  0.777616D-02
      5  -0.622251D-01 -0.485101D-01 -0.931589D-01 -0.613165D-01 -0.804811D-01
      6   0.298135D+00 -0.245045D-01 -0.404376D-01 -0.108639D+00  0.370908D-01
      7  -0.117030D+00 -0.163176D+00  0.214551D-01 -0.204876D+00 -0.257994D-01
      8  -0.244301D-01  0.417441D-01  0.955318D-02  0.803147D-01  0.290896D-01
      9   0.228055D+00  0.246679D+00 -0.600572D-01  0.130305D+00  0.183374D-01
     10   0.143501D+00 -0.227934D+00  0.838152D-01 -0.720370D-01 -0.950251D-01
     11  -0.254147D+00 -0.633462D+00 -0.796336D+00 -0.189394D+00  0.147552D+00
     12  -0.147979D+00  0.170291D+00 -0.364703D+00  0.134148D+00 -0.197394D+00
     13   0.945653D-01  0.142514D-01  0.174065D+00 -0.117674D-01  0.234862D+00
     14   0.223947D+00 -0.121169D+00  0.271098D+00  0.120581D-01 -0.232956D+00
     15  -0.184194D+00 -0.227909D+00  0.151462D+00 -0.123001D+00 -0.588436D-01
     16  -0.248922D-01 -0.739613D-02  0.426526D-01  0.187643D+00  0.102242D+00
               691           692           693           694           695 
      1  -0.146037D+03 -0.146035D+03 -0.146031D+03 -0.146020D+03 -0.146020D+03
      2   0.116495D-02 -0.656582D-01 -0.610791D-01 -0.484114D-01  0.320265D-01
      3   0.405827D-01  0.287918D-01  0.240721D-01  0.171153D-01 -0.764669D-01
      4  -0.229169D-02  0.364148D-01  0.166484D-01 -0.453405D-01 -0.193297D-02
      5   0.385550D-02  0.233967D+00  0.217166D+00  0.160871D+00 -0.109238D+00
      6  -0.130676D+00 -0.900910D-01 -0.870314D-01 -0.565461D-01  0.269587D+00
      7   0.117896D-02 -0.131219D+00 -0.644431D-01  0.152225D+00  0.733939D-02
      8  -0.269070D-01 -0.787284D-02 -0.200863D-01 -0.592450D-01  0.814256D-02
      9   0.711902D-01  0.204759D+00  0.643249D-01 -0.188387D+00 -0.527181D-01
     10   0.367786D+00 -0.130841D-01 -0.304600D+00  0.169955D+00  0.167176D-01
     11   0.785439D-01  0.194949D+00 -0.229568D+00  0.337970D+00  0.271329D+00
     12   0.229367D-01 -0.180884D+00 -0.200772D+00  0.746296D-01 -0.140821D+00
     13   0.293618D-02 -0.658973D-01  0.131240D+00 -0.473214D-01  0.582428D-01
     14   0.186993D+00 -0.393271D+00 -0.821757D+00  0.213124D+00  0.171079D+00
     15  -0.245735D-01 -0.199771D+00 -0.605782D-02  0.216566D+00  0.113439D+00
     16  -0.193421D-01  0.106762D+00  0.153125D+00 -0.678739D-01 -0.682094D-01
               696           697           698           699           700 
      1  -0.146002D+03 -0.145969D+03 -0.145933D+03 -0.145916D+03 -0.145904D+03
      2   0.635821D-01 -0.925776D-01 -0.842020D-02 -0.104483D-01  0.217682D-02
      3  -0.151752D-01  0.369348D-01 -0.406915D-01 -0.252717D-01  0.247748D-01
      4   0.664007D-01  0.235568D-01  0.142404D-03 -0.100675D-01 -0.412332D-02
      5  -0.222431D+00  0.346159D+00  0.357037D-01  0.258696D-01 -0.281548D-01
      6   0.590494D-01 -0.122230D+00  0.133429D+00  0.920084D-01 -0.889193D-01
      7  -0.221528D+00 -0.766111D-01  0.690186D-02  0.391372D-01  0.115888D-01
      8  -0.351533D-01 -0.147090D-01  0.114668D-01  0.559729D-01  0.456305D-01
      9   0.472184D+00  0.148168D+00  0.109562D-01 -0.162329D+00 -0.867127D-01
     10   0.230400D+00  0.310398D+00  0.161234D+00  0.264629D+00  0.968359D-01
     11  -0.582657D+00 -0.243944D-01  0.191362D+00 -0.216848D+00  0.836899D-01
     12  -0.262445D+00  0.660701D+00  0.717312D-01 -0.237561D+00 -0.373769D-01
     13   0.170933D+00  0.384659D-01 -0.299769D-01  0.116384D+00 -0.947771D-03
     14   0.205946D+00 -0.260569D+00  0.161326D+00  0.561637D+00  0.177635D+00
     15  -0.393833D+00 -0.161392D+00  0.230237D-01  0.172613D+00 -0.602439D-02
     16  -0.110556D+00 -0.802914D-01  0.408475D-01  0.316126D-01  0.604706D-02
               701           702           703           704           705 
      1  -0.145896D+03 -0.145876D+03 -0.145867D+03 -0.145856D+03 -0.145826D+03
      2   0.230794D-02 -0.515997D-01 -0.543031D-01 -0.206136D-01 -0.451162D-02
      3  -0.283105D-02 -0.325371D-01 -0.347892D-01 -0.160432D-01  0.189595D-01
      4  -0.359273D-02 -0.301587D-01  0.752083D-02 -0.159791D-01  0.148151D-02
      5  -0.847571D-02  0.201056D+00  0.195950D+00  0.932270D-01  0.335065D-01
      6   0.469252D-02  0.136750D+00  0.135803D+00  0.497458D-01 -0.448538D-01
      7   0.663353D-02  0.111623D+00 -0.194062D-01  0.565185D-01 -0.715983D-02
      8  -0.159245D-01 -0.360742D-01  0.132187D+00  0.539159D-01 -0.477928D-02
      9   0.164067D-01 -0.172664D+00 -0.178744D+00 -0.218859D+00  0.530087D-01
     10  -0.197648D+00 -0.121834D+00  0.341995D-01 -0.192708D+00  0.300655D+00
     11  -0.169191D+00  0.601069D+00  0.756520D+00 -0.395586D-01  0.103041D+00
     12   0.261982D+00 -0.224769D+00 -0.156168D+00 -0.752163D-01  0.148322D+00
     13  -0.848384D-01  0.387199D-01 -0.159930D-01  0.471927D-01 -0.881523D-01
     14  -0.325206D+00  0.185335D+00  0.226455D+00 -0.310017D+00  0.222397D+00
     15  -0.197916D-01 -0.710013D-01  0.199305D+00  0.162422D+00 -0.483051D-01
     16  -0.357037D-01 -0.116184D+00  0.134995D+00  0.740656D-01 -0.459642D-01
               706           707           708           709           710 
      1  -0.145803D+03 -0.145795D+03 -0.145781D+03 -0.145730D+03 -0.145719D+03
      2   0.198370D-01 -0.323854D-02 -0.533197D-01 -0.453118D-01 -0.852844D-01
      3  -0.787173D-01  0.103091D-02 -0.518947D-01 -0.112053D-01 -0.445633D-01
      4   0.171380D-01  0.255247D-01 -0.374240D-01 -0.216196D-01  0.205613D-01
      5  -0.717326D-01  0.729735D-03  0.195903D+00  0.194703D+00  0.345755D+00
      6   0.298673D+00 -0.870505D-02  0.193677D+00  0.432670D-01  0.166592D+00
      7  -0.619747D-01 -0.927699D-01  0.127465D+00  0.734885D-01 -0.786781D-01
      8   0.156368D-02 -0.603698D-01  0.964798D-01  0.761011D-02  0.458040D-03
      9   0.156104D+00  0.169124D+00 -0.311944D+00 -0.129525D+00  0.116109D+00
     10   0.387346D+00 -0.483467D+00  0.572837D+00  0.188709D+00  0.391345D+00
     11  -0.525146D-01  0.604902D+00  0.520868D+00  0.874300D+00  0.931280D+00
     12  -0.921825D-01 -0.454502D+00  0.340331D-01 -0.543581D-01 -0.453834D+00
     13   0.373826D-01  0.249642D-01 -0.429699D-01  0.316731D-01  0.657436D-02
     14   0.115625D+00 -0.271549D+00  0.483315D+00 -0.689397D-01  0.107441D+00
     15  -0.939499D-01 -0.208473D+00  0.227683D+00  0.177308D-01 -0.215031D+00
     16  -0.940791D-01  0.606634D-01 -0.261200D-01 -0.420974D-02 -0.974408D-02
               711           712           713           714           715 
      1  -0.145705D+03 -0.145703D+03 -0.145675D+03 -0.145652D+03 -0.145608D+03
      2  -0.857328D-02  0.268605D-01 -0.199978D-01  0.790728D-02 -0.539952D-01
      3  -0.296945D-01  0.378748D-01  0.373980D-01 -0.142571D-01 -0.328289D-01
      4   0.233173D-01  0.171187D-01  0.436233D-02 -0.298983D-01  0.168873D-01
      5   0.275817D-01 -0.103903D+00  0.900345D-01 -0.849563D-02  0.227219D+00
      6   0.956311D-01 -0.130971D+00 -0.120978D+00  0.734969D-01  0.136708D+00
      7  -0.844563D-01 -0.593027D-01 -0.172759D-01  0.104448D+00 -0.655455D-01
      8   0.291249D-02 -0.286574D-01 -0.160406D-01  0.411739D-01  0.338976D-02
      9   0.187946D+00  0.140727D+00  0.741198D-01 -0.227115D+00  0.106657D+00
     10   0.502665D+00  0.336790D-01 -0.532072D-01  0.215618D+00  0.195377D+00
     11  -0.871284D+00 -0.307480D+00  0.438883D+00  0.157510D+00  0.545887D+00
     12   0.175993D+00  0.237139D+00 -0.944230D-01 -0.638743D-01 -0.107521D-02
     13   0.214259D-01 -0.834855D-01  0.272581D-01  0.667513D-01 -0.600596D-01
     14   0.270208D+00 -0.110084D+00  0.421989D-01  0.246867D+00  0.283858D+00
     15  -0.678430D-01 -0.509754D-01 -0.139324D+00  0.194541D+00 -0.183398D+00
     16  -0.103487D+00  0.215700D-02  0.314302D-01 -0.362819D-01 -0.449171D-01
               716           717           718           719           720 
      1  -0.145547D+03 -0.145490D+03 -0.145422D+03 -0.145317D+03 -0.145250D+03
      2  -0.527172D-01 -0.182082D-01 -0.228438D-02 -0.258688D-02 -0.216990D-01
      3   0.505267D-01 -0.547200D-02 -0.222309D-02 -0.317741D-01  0.503001D-02
      4  -0.121958D-01  0.572877D-03  0.581720D-02 -0.478277D-02 -0.519284D-02
      5   0.172569D+00  0.620014D-01 -0.748673D-02 -0.203086D-01  0.339106D-01
      6  -0.179270D+00  0.110339D-01 -0.355264D-02  0.109855D+00 -0.397859D-01
      7   0.424225D-01  0.856939D-03 -0.175865D-01  0.213928D-01  0.230568D-01
      8  -0.877846D-02  0.307206D-01 -0.123155D-01  0.799495D-02 -0.306950D-02
      9  -0.888636D-01 -0.558280D-01  0.355767D-01  0.238420D-02 -0.421590D-01
     10  -0.324029D+00  0.214122D+00 -0.139447D+00  0.319023D+00 -0.548671D-01
     11  -0.778796D-01  0.386923D+00  0.561592D+00 -0.399585D+00  0.382646D+00
     12   0.101369D+00  0.293902D+00  0.365670D+00  0.797406D-01 -0.152330D+00
     13  -0.265733D-01 -0.562460D-01 -0.734807D-01 -0.140643D-01  0.274661D-01
     14  -0.277745D+00  0.131190D+00  0.227394D+00  0.273795D+00  0.346869D-01
     15   0.107489D-01  0.325301D-01 -0.105378D+00  0.399130D-01 -0.145466D-01
     16   0.108103D+00 -0.485543D-01 -0.376908D-01 -0.117066D+00  0.313241D-01
 Unable to Open any file for archive entry.
 1\1\GINC-HEL24\SP\RM062X TD-FC\Gen\C1H4N2\SABYASACHI\21-Mar-2022\0\\#P
  TD(Nstates=10000) m062x/Gen SCF(maxcycles=100) Int(Grid=ultrafine)\\x
 GDB7_00001_tier4.com\\0,1\N,0,1.106441,0.142513,-0.090982\N,0,-0.08075
 3,-0.51252,0.006066\C,0,-1.148696,0.167456,0.008166\H,0,1.854749,-0.40
 9916,0.291533\H,0,1.109677,1.100453,0.242713\H,0,-2.089851,-0.366199,0
 .035249\H,0,-1.162208,1.260974,-0.02408\\Version=EM64L-G16RevC.01\Stat
 e=1-A\HF=-149.7876917\RMSD=7.579e-09\PG=C01 [X(C1H4N2)]\\@
 The archive entry for this job was punched.


 E PUR SI MUOVE    -- GALILEO GALILEI
 Job cpu time:       0 days  0 hours 23 minutes 39.8 seconds.
 Elapsed time:       0 days  0 hours  2 minutes 57.8 seconds.
 File lengths (MBytes):  RWF=    666 Int=      0 D2E=      0 Chk=    150 Scr=      1
 Normal termination of Gaussian 16 at Mon Mar 21 20:14:25 2022.
