 Entering Gaussian System, Link 0=g16
 Input=000007.com
 Output=000007.log
 Initial command:
 /home/sabyasachi/g16/l1.exe "/scratch/sabyasachi/PBS_7976108.helios/Gau-142761.inp" -scrdir="/scratch/sabyasachi/PBS_7976108.helios/"
 Entering Link 1 = /home/sabyasachi/g16/l1.exe PID=    142762.
  
 Copyright (c) 1988-2019, Gaussian, Inc.  All Rights Reserved.
  
 This is part of the Gaussian(R) 16 program.  It is based on
 the Gaussian(R) 09 system (copyright 2009, Gaussian, Inc.),
 the Gaussian(R) 03 system (copyright 2003, Gaussian, Inc.),
 the Gaussian(R) 98 system (copyright 1998, Gaussian, Inc.),
 the Gaussian(R) 94 system (copyright 1995, Gaussian, Inc.),
 the Gaussian 92(TM) system (copyright 1992, Gaussian, Inc.),
 the Gaussian 90(TM) system (copyright 1990, Gaussian, Inc.),
 the Gaussian 88(TM) system (copyright 1988, Gaussian, Inc.),
 the Gaussian 86(TM) system (copyright 1986, Carnegie Mellon
 University), and the Gaussian 82(TM) system (copyright 1983,
 Carnegie Mellon University). Gaussian is a federally registered
 trademark of Gaussian, Inc.
  
 This software contains proprietary and confidential information,
 including trade secrets, belonging to Gaussian, Inc.
  
 This software is provided under written license and may be
 used, copied, transmitted, or stored only in accord with that
 written license.
  
 The following legend is applicable only to US Government
 contracts under FAR:
  
                    RESTRICTED RIGHTS LEGEND
  
 Use, reproduction and disclosure by the US Government is
 subject to restrictions as set forth in subparagraphs (a)
 and (c) of the Commercial Computer Software - Restricted
 Rights clause in FAR 52.227-19.
  
 Gaussian, Inc.
 340 Quinnipiac St., Bldg. 40, Wallingford CT 06492
  
  
 ---------------------------------------------------------------
 Warning -- This program may not be used in any manner that
 competes with the business of Gaussian, Inc. or will provide
 assistance to any competitor of Gaussian, Inc.  The licensee
 of this program is prohibited from giving any competitor of
 Gaussian, Inc. access to this program.  By using this program,
 the user acknowledges that Gaussian, Inc. is engaged in the
 business of creating and licensing software in the field of
 computational chemistry and represents and warrants to the
 licensee that it is not a competitor of Gaussian, Inc. and that
 it will not use this program in any manner prohibited above.
 ---------------------------------------------------------------
  

 Cite this work as:
 Gaussian 16, Revision C.01,
 M. J. Frisch, G. W. Trucks, H. B. Schlegel, G. E. Scuseria, 
 M. A. Robb, J. R. Cheeseman, G. Scalmani, V. Barone, 
 G. A. Petersson, H. Nakatsuji, X. Li, M. Caricato, A. V. Marenich, 
 J. Bloino, B. G. Janesko, R. Gomperts, B. Mennucci, H. P. Hratchian, 
 J. V. Ortiz, A. F. Izmaylov, J. L. Sonnenberg, D. Williams-Young, 
 F. Ding, F. Lipparini, F. Egidi, J. Goings, B. Peng, A. Petrone, 
 T. Henderson, D. Ranasinghe, V. G. Zakrzewski, J. Gao, N. Rega, 
 G. Zheng, W. Liang, M. Hada, M. Ehara, K. Toyota, R. Fukuda, 
 J. Hasegawa, M. Ishida, T. Nakajima, Y. Honda, O. Kitao, H. Nakai, 
 T. Vreven, K. Throssell, J. A. Montgomery, Jr., J. E. Peralta, 
 F. Ogliaro, M. J. Bearpark, J. J. Heyd, E. N. Brothers, K. N. Kudin, 
 V. N. Staroverov, T. A. Keith, R. Kobayashi, J. Normand, 
 K. Raghavachari, A. P. Rendell, J. C. Burant, S. S. Iyengar, 
 J. Tomasi, M. Cossi, J. M. Millam, M. Klene, C. Adamo, R. Cammi, 
 J. W. Ochterski, R. L. Martin, K. Morokuma, O. Farkas, 
 J. B. Foresman, and D. J. Fox, Gaussian, Inc., Wallingford CT, 2019.
 
 ******************************************
 Gaussian 16:  EM64L-G16RevC.01  3-Jul-2019
                21-Mar-2022 
 ******************************************
 %mem=64gb
 %nproc=8
 Will use up to    8 processors via shared memory.
 ---------------------------------------------------------------------
 #P TD(Nstates=10000) m062x/Gen SCF(maxcycles=100) Int(Grid=ultrafine)
 ---------------------------------------------------------------------
 1/38=1,172=1/1;
 2/12=2,17=6,18=5,40=1/2;
 3/5=7,11=9,25=1,30=1,74=-55,75=-5/1,2,3,8;
 4//1;
 5/5=2,7=100,38=5/2;
 8/6=1,10=1,108=10000/1;
 9/41=10000,42=1,70=2/14;
 6/7=2,8=2,9=2,10=2/1;
 99/5=1,9=1/99;
 Leave Link    1 at Mon Mar 21 19:59:12 2022, MaxMem=  8589934592 cpu:               0.4 elap:               0.1
 (Enter /home/sabyasachi/g16/l101.exe)
 ---------------------
 xGDB7_00001_tier4.com
 ---------------------
 Symbolic Z-matrix:
 Charge =  0 Multiplicity = 1
 6                     0.04642   0.65843   0. 
 8                     0.04642  -0.75193   0. 
 1                    -0.43891   1.07326   0.8908 
 1                    -0.43891   1.07326  -0.8908 
 1                     1.08786   0.97757   0. 
 1                    -0.85991  -1.05925   0. 
 
 ITRead=  0  0  0  0  0  0
 MicOpt= -1 -1 -1 -1 -1 -1
 NAtoms=      6 NQM=        6 NQMF=       0 NMMI=      0 NMMIF=      0
                NMic=       0 NMicF=      0.
                    Isotopes and Nuclear Properties:
 (Nuclear quadrupole moments (NQMom) in fm**2, nuclear magnetic moments (NMagM)
  in nuclear magnetons)

  Atom         1           2           3           4           5           6
 IAtWgt=          12          16           1           1           1           1
 AtmWgt=  12.0000000  15.9949146   1.0078250   1.0078250   1.0078250   1.0078250
 NucSpn=           0           0           1           1           1           1
 AtZEff=  -0.0000000  -0.0000000  -0.0000000  -0.0000000  -0.0000000  -0.0000000
 NQMom=    0.0000000   0.0000000   0.0000000   0.0000000   0.0000000   0.0000000
 NMagM=    0.0000000   0.0000000   2.7928460   2.7928460   2.7928460   2.7928460
 AtZNuc=   6.0000000   8.0000000   1.0000000   1.0000000   1.0000000   1.0000000
 Leave Link  101 at Mon Mar 21 19:59:12 2022, MaxMem=  8589934592 cpu:               0.6 elap:               0.1
 (Enter /home/sabyasachi/g16/l202.exe)
                          Input orientation:                          
 ---------------------------------------------------------------------
 Center     Atomic      Atomic             Coordinates (Angstroms)
 Number     Number       Type             X           Y           Z
 ---------------------------------------------------------------------
      1          6           0        0.046419    0.658432    0.000000
      2          8           0        0.046419   -0.751929    0.000000
      3          1           0       -0.438905    1.073261    0.890797
      4          1           0       -0.438905    1.073261   -0.890797
      5          1           0        1.087855    0.977571    0.000000
      6          1           0       -0.859911   -1.059251    0.000000
 ---------------------------------------------------------------------
                    Distance matrix (angstroms):
                    1          2          3          4          5
     1  C    0.000000
     2  O    1.410361   0.000000
     3  H    1.095966   2.088152   0.000000
     4  H    1.095966   2.088152   1.781594   0.000000
     5  H    1.089238   2.018851   1.770218   1.770218   0.000000
     6  H    1.942130   0.957017   2.349122   2.349122   2.818233
                    6
     6  H    0.000000
 Stoichiometry    CH4O
 Framework group  CS[SG(CH2O),X(H2)]
 Deg. of freedom     8
 Full point group                 CS      NOp   2
 Largest Abelian subgroup         CS      NOp   2
 Largest concise Abelian subgroup CS      NOp   2
                         Standard orientation:                         
 ---------------------------------------------------------------------
 Center     Atomic      Atomic             Coordinates (Angstroms)
 Number     Number       Type             X           Y           Z
 ---------------------------------------------------------------------
      1          6           0        0.046419    0.658432    0.000000
      2          8           0        0.046419   -0.751929    0.000000
      3          1           0       -0.438905    1.073261    0.890797
      4          1           0       -0.438905    1.073261   -0.890797
      5          1           0        1.087855    0.977571    0.000000
      6          1           0       -0.859911   -1.059251    0.000000
 ---------------------------------------------------------------------
 Rotational constants (GHZ):         128.7867885          25.0443601          24.1755020
 Leave Link  202 at Mon Mar 21 19:59:12 2022, MaxMem=  8589934592 cpu:               0.1 elap:               0.0
 (Enter /home/sabyasachi/g16/l301.exe)
 General basis read from cards:  (5D, 7F)
 Centers:       3      4      5      6
 S 3 1.00
     Exponent=  1.3010701000D+01 Coefficients=  1.9682158000D-02
     Exponent=  1.9622572000D+00 Coefficients=  1.3796524000D-01
     Exponent=  4.4453796000D-01 Coefficients=  4.7831935000D-01
 S 1 1.00
     Exponent=  1.2194962000D-01 Coefficients=  1.0000000000D+00
 P 1 1.00
     Exponent=  8.0000000000D-01 Coefficients=  1.0000000000D+00
 P 1 1.00
     Exponent=  1.1704099050D-01 Coefficients=  1.0000000000D+00
 ****
 Centers:       1
 S 5 1.00
     Exponent=  1.2384016938D+03 Coefficients=  5.4568832082D-03
     Exponent=  1.8629004992D+02 Coefficients=  4.0638409211D-02
     Exponent=  4.2251176346D+01 Coefficients=  1.8025593888D-01
     Exponent=  1.1676557932D+01 Coefficients=  4.6315121755D-01
     Exponent=  3.5930506482D+00 Coefficients=  4.4087173314D-01
 S 1 1.00
     Exponent=  4.0245147363D-01 Coefficients=  1.0000000000D+00
 S 1 1.00
     Exponent=  1.3090182668D-01 Coefficients=  1.0000000000D+00
 S 1 1.00
     Exponent=  6.7053540256D-02 Coefficients=  1.0000000000D+00
 P 3 1.00
     Exponent=  9.4680970621D+00 Coefficients=  3.8387871728D-02
     Exponent=  2.0103545142D+00 Coefficients=  2.1117025112D-01
     Exponent=  5.4771004707D-01 Coefficients=  5.1328172114D-01
 P 1 1.00
     Exponent=  1.5268613795D-01 Coefficients=  1.0000000000D+00
 D 1 1.00
     Exponent=  8.0000000000D-01 Coefficients=  1.0000000000D+00
 D 1 1.00
     Exponent=  1.1713185140D-01 Coefficients=  1.0000000000D+00
 ****
 Centers:       2
 S 5 1.00
     Exponent=  2.2661767785D+03 Coefficients= -5.3431809926D-03
     Exponent=  3.4087010191D+02 Coefficients= -3.9890039230D-02
     Exponent=  7.7363135167D+01 Coefficients= -1.7853911985D-01
     Exponent=  2.1479644940D+01 Coefficients= -4.6427684959D-01
     Exponent=  6.6589433124D+00 Coefficients= -4.4309745172D-01
 S 1 1.00
     Exponent=  8.0975975668D-01 Coefficients=  1.0000000000D+00
 S 1 1.00
     Exponent=  2.5530772234D-01 Coefficients=  1.0000000000D+00
 S 1 1.00
     Exponent=  7.6572453250D-02 Coefficients=  1.0000000000D+00
 P 3 1.00
     Exponent=  1.7721504317D+01 Coefficients=  4.3394573193D-02
     Exponent=  3.8635505440D+00 Coefficients=  2.3094120765D-01
     Exponent=  1.0480920883D+00 Coefficients=  5.1375311064D-01
 P 1 1.00
     Exponent=  2.7641544411D-01 Coefficients=  1.0000000000D+00
 P 1 1.00
     Exponent=  6.9002276350D-02 Coefficients=  1.0000000000D+00
 D 1 1.00
     Exponent=  1.2000000000D+00 Coefficients=  1.0000000000D+00
 D 1 1.00
     Exponent=  1.7992024323D-01 Coefficients=  1.0000000000D+00
 ****
 Ernie: Thresh=  0.10000D-02 Tol=  0.10000D-05 Strict=F.
 There are    54 symmetry adapted cartesian basis functions of A'  symmetry.
 There are    25 symmetry adapted cartesian basis functions of A"  symmetry.
 There are    50 symmetry adapted basis functions of A'  symmetry.
 There are    25 symmetry adapted basis functions of A"  symmetry.
    75 basis functions,   107 primitive gaussians,    79 cartesian basis functions
     9 alpha electrons        9 beta electrons
       nuclear repulsion energy        40.4621956244 Hartrees.
 IExCor= 4336 DFT=T Ex+Corr=M062X ExCW=0 ScaHFX=  0.540000
 ScaDFX=  1.000000  1.000000  1.000000  1.000000 ScalE2=  1.000000  1.000000
 IRadAn=      5 IRanWt=     -1 IRanGd=            0 ICorTp=0 IEmpDi=  4
 NAtoms=    6 NActive=    6 NUniq=    5 SFac= 1.44D+00 NAtFMM=   60 NAOKFM=F Big=F
 Integral buffers will be    131072 words long.
 Regular integral format.
 Two-electron integral symmetry is turned on.
 Leave Link  301 at Mon Mar 21 19:59:12 2022, MaxMem=  8589934592 cpu:               0.6 elap:               0.1
 (Enter /home/sabyasachi/g16/l302.exe)
 NPDir=0 NMtPBC=     1 NCelOv=     1 NCel=       1 NClECP=     1 NCelD=      1
         NCelK=      1 NCelE2=     1 NClLst=     1 CellRange=     0.0.
 One-electron integrals computed using PRISM.
 One-electron integral symmetry used in STVInt
 NBasis=    75 RedAO= T EigKep=  5.97D-04  NBF=    50    25
 NBsUse=    75 1.00D-06 EigRej= -1.00D+00 NBFU=    50    25
 Precomputing XC quadrature grid using
 IXCGrd= 4 IRadAn=           5 IRanWt=          -1 IRanGd=           0 AccXCQ= 0.00D+00.
 Generated NRdTot=       0 NPtTot=           0 NUsed=           0 NTot=          32
 NSgBfM=    79    79    79    79    79 MxSgAt=     6 MxSgA2=     6.
 Leave Link  302 at Mon Mar 21 19:59:12 2022, MaxMem=  8589934592 cpu:               0.9 elap:               0.1
 (Enter /home/sabyasachi/g16/l303.exe)
 DipDrv:  MaxL=1.
 Leave Link  303 at Mon Mar 21 19:59:12 2022, MaxMem=  8589934592 cpu:               0.2 elap:               0.0
 (Enter /home/sabyasachi/g16/l308.exe)
 Leave Link  308 at Mon Mar 21 19:59:12 2022, MaxMem=  8589934592 cpu:               0.2 elap:               0.0
 (Enter /home/sabyasachi/g16/l401.exe)
 ExpMin= 6.71D-02 ExpMax= 2.27D+03 ExpMxC= 3.41D+02 IAcc=3 IRadAn=         5 AccDes= 0.00D+00
 Harris functional with IExCor= 1009 and IRadAn=       5 diagonalized for initial guess.
 HarFok:  IExCor= 1009 AccDes= 0.00D+00 IRadAn=         5 IDoV= 1 UseB2=F ITyADJ=14
 ICtDFT=  3500011 ScaDFX=  1.000000  1.000000  1.000000  1.000000
 FoFCou: FMM=F IPFlag=           0 FMFlag=      100000 FMFlg1=           0
         NFxFlg=           0 DoJE=T BraDBF=F KetDBF=T FulRan=T
         wScrn=  0.000000 ICntrl=       500 IOpCl=  0 I1Cent=   200000004 NGrid=           0
         NMat0=    1 NMatS0=      1 NMatT0=    0 NMatD0=    1 NMtDS0=    0 NMtDT0=    0
 Petite list used in FoFCou.
 Harris En= -115.560751205002    
 JPrj=0 DoOrth=F DoCkMO=F.
 Initial guess orbital symmetries:
       Occupied  (A') (A') (A') (A') (A') (A") (A') (A') (A")
       Virtual   (A') (A') (A') (A") (A') (A') (A") (A') (A") (A')
                 (A') (A') (A') (A") (A") (A') (A') (A") (A") (A')
                 (A') (A') (A") (A') (A') (A") (A') (A') (A") (A')
                 (A') (A") (A') (A') (A") (A') (A") (A') (A') (A')
                 (A") (A') (A") (A') (A") (A') (A') (A") (A') (A")
                 (A') (A") (A') (A') (A') (A') (A") (A') (A') (A")
                 (A') (A") (A") (A') (A') (A')
 The electronic state of the initial guess is 1-A'.
 Leave Link  401 at Mon Mar 21 19:59:12 2022, MaxMem=  8589934592 cpu:               1.6 elap:               0.2
 (Enter /home/sabyasachi/g16/l502.exe)
 Keep R1 ints in memory in symmetry-blocked form, NReq=11291173.
 FoFCou: FMM=F IPFlag=           0 FMFlag=           0 FMFlg1=           0
         NFxFlg=           0 DoJE=F BraDBF=F KetDBF=F FulRan=T
         wScrn=  0.000000 ICntrl=       600 IOpCl=  0 I1Cent=           0 NGrid=           0
         NMat0=    1 NMatS0=   2850 NMatT0=    0 NMatD0=    1 NMtDS0=    0 NMtDT0=    0
 Petite list used in FoFCou.
 Closed shell SCF:
 Using DIIS extrapolation, IDIIS=  1040.
 NGot=  8589934592 LenX=  8587850961 LenY=  8587844279
 Requested convergence on RMS density matrix=1.00D-08 within 100 cycles.
 Requested convergence on MAX density matrix=1.00D-06.
 Requested convergence on             energy=1.00D-06.
 No special actions if energy rises.
 Integral accuracy reduced to 1.0D-05 until final iterations.

 Cycle   1  Pass 0  IDiag  1:
 E= -115.518670807949    
 DIIS: error= 2.39D-02 at cycle   1 NSaved=   1.
 NSaved= 1 IEnMin= 1 EnMin= -115.518670807949     IErMin= 1 ErrMin= 2.39D-02
 ErrMax= 2.39D-02  0.00D+00 EMaxC= 1.00D-01 BMatC= 7.64D-02 BMatP= 7.64D-02
 IDIUse=3 WtCom= 7.61D-01 WtEn= 2.39D-01
 Coeff-Com:  0.100D+01
 Coeff-En:   0.100D+01
 Coeff:      0.100D+01
 Gap=     0.330 Goal=   None    Shift=    0.000
 GapD=    0.330 DampG=1.000 DampE=0.500 DampFc=0.5000 IDamp=-1.
 Damping current iteration by 5.00D-01
 RMSDP=5.89D-03 MaxDP=1.09D-01              OVMax= 1.23D-01

 Cycle   2  Pass 0  IDiag  1:
 E= -115.551122335818     Delta-E=       -0.032451527869 Rises=F Damp=T
 DIIS: error= 5.62D-03 at cycle   2 NSaved=   2.
 NSaved= 2 IEnMin= 2 EnMin= -115.551122335818     IErMin= 2 ErrMin= 5.62D-03
 ErrMax= 5.62D-03  0.00D+00 EMaxC= 1.00D-01 BMatC= 4.55D-03 BMatP= 7.64D-02
 IDIUse=3 WtCom= 9.44D-01 WtEn= 5.62D-02
 Coeff-Com: -0.101D-01 0.101D+01
 Coeff-En:   0.000D+00 0.100D+01
 Coeff:     -0.957D-02 0.101D+01
 Gap=     0.396 Goal=   None    Shift=    0.000
 RMSDP=1.27D-03 MaxDP=1.78D-02 DE=-3.25D-02 OVMax= 6.95D-02

 Cycle   3  Pass 0  IDiag  1:
 E= -115.584602180422     Delta-E=       -0.033479844604 Rises=F Damp=F
 DIIS: error= 2.74D-03 at cycle   3 NSaved=   3.
 NSaved= 3 IEnMin= 3 EnMin= -115.584602180422     IErMin= 3 ErrMin= 2.74D-03
 ErrMax= 2.74D-03  0.00D+00 EMaxC= 1.00D-01 BMatC= 1.39D-03 BMatP= 4.55D-03
 IDIUse=3 WtCom= 9.73D-01 WtEn= 2.74D-02
 Coeff-Com: -0.501D-01 0.335D+00 0.716D+00
 Coeff-En:   0.000D+00 0.000D+00 0.100D+01
 Coeff:     -0.487D-01 0.325D+00 0.723D+00
 Gap=     0.388 Goal=   None    Shift=    0.000
 RMSDP=6.15D-04 MaxDP=1.08D-02 DE=-3.35D-02 OVMax= 1.03D-02

 Cycle   4  Pass 0  IDiag  1:
 E= -115.585481773132     Delta-E=       -0.000879592710 Rises=F Damp=F
 DIIS: error= 1.17D-03 at cycle   4 NSaved=   4.
 NSaved= 4 IEnMin= 4 EnMin= -115.585481773132     IErMin= 4 ErrMin= 1.17D-03
 ErrMax= 1.17D-03  0.00D+00 EMaxC= 1.00D-01 BMatC= 1.92D-04 BMatP= 1.39D-03
 IDIUse=3 WtCom= 9.88D-01 WtEn= 1.17D-02
 Coeff-Com: -0.165D-01 0.508D-01 0.302D+00 0.664D+00
 Coeff-En:   0.000D+00 0.000D+00 0.475D-01 0.953D+00
 Coeff:     -0.163D-01 0.502D-01 0.299D+00 0.668D+00
 Gap=     0.387 Goal=   None    Shift=    0.000
 RMSDP=1.71D-04 MaxDP=4.04D-03 DE=-8.80D-04 OVMax= 3.61D-03

 Cycle   5  Pass 0  IDiag  1:
 E= -115.585644234131     Delta-E=       -0.000162460999 Rises=F Damp=F
 DIIS: error= 1.48D-04 at cycle   5 NSaved=   5.
 NSaved= 5 IEnMin= 5 EnMin= -115.585644234131     IErMin= 5 ErrMin= 1.48D-04
 ErrMax= 1.48D-04  0.00D+00 EMaxC= 1.00D-01 BMatC= 2.47D-06 BMatP= 1.92D-04
 IDIUse=3 WtCom= 9.99D-01 WtEn= 1.48D-03
 Coeff-Com: -0.159D-02-0.110D-02 0.405D-01 0.162D+00 0.800D+00
 Coeff-En:   0.000D+00 0.000D+00 0.000D+00 0.000D+00 0.100D+01
 Coeff:     -0.159D-02-0.110D-02 0.405D-01 0.162D+00 0.801D+00
 Gap=     0.387 Goal=   None    Shift=    0.000
 RMSDP=2.62D-05 MaxDP=5.47D-04 DE=-1.62D-04 OVMax= 3.59D-04

 Cycle   6  Pass 0  IDiag  1:
 E= -115.585646191546     Delta-E=       -0.000001957415 Rises=F Damp=F
 DIIS: error= 7.85D-06 at cycle   6 NSaved=   6.
 NSaved= 6 IEnMin= 6 EnMin= -115.585646191546     IErMin= 6 ErrMin= 7.85D-06
 ErrMax= 7.85D-06  0.00D+00 EMaxC= 1.00D-01 BMatC= 1.20D-08 BMatP= 2.47D-06
 IDIUse=1 WtCom= 1.00D+00 WtEn= 0.00D+00
 Coeff-Com:  0.586D-03-0.731D-03-0.107D-01-0.281D-01-0.109D+00 0.115D+01
 Coeff:      0.586D-03-0.731D-03-0.107D-01-0.281D-01-0.109D+00 0.115D+01
 Gap=     0.388 Goal=   None    Shift=    0.000
 RMSDP=4.36D-06 MaxDP=7.76D-05 DE=-1.96D-06 OVMax= 5.73D-05

 Initial convergence to 1.0D-05 achieved.  Increase integral accuracy.
 Cycle   7  Pass 1  IDiag  1:
 E= -115.585672306744     Delta-E=       -0.000026115197 Rises=F Damp=F
 DIIS: error= 1.04D-05 at cycle   1 NSaved=   1.
 NSaved= 1 IEnMin= 1 EnMin= -115.585672306744     IErMin= 1 ErrMin= 1.04D-05
 ErrMax= 1.04D-05  0.00D+00 EMaxC= 1.00D-01 BMatC= 1.66D-08 BMatP= 1.66D-08
 IDIUse=1 WtCom= 1.00D+00 WtEn= 0.00D+00
 Coeff-Com:  0.100D+01
 Coeff:      0.100D+01
 Gap=     0.388 Goal=   None    Shift=    0.000
 RMSDP=4.36D-06 MaxDP=7.76D-05 DE=-2.61D-05 OVMax= 3.76D-05

 Cycle   8  Pass 1  IDiag  1:
 E= -115.585672324416     Delta-E=       -0.000000017672 Rises=F Damp=F
 DIIS: error= 1.33D-06 at cycle   2 NSaved=   2.
 NSaved= 2 IEnMin= 2 EnMin= -115.585672324416     IErMin= 2 ErrMin= 1.33D-06
 ErrMax= 1.33D-06  0.00D+00 EMaxC= 1.00D-01 BMatC= 2.92D-10 BMatP= 1.66D-08
 IDIUse=1 WtCom= 1.00D+00 WtEn= 0.00D+00
 Coeff-Com: -0.598D-01 0.106D+01
 Coeff:     -0.598D-01 0.106D+01
 Gap=     0.388 Goal=   None    Shift=    0.000
 RMSDP=9.04D-07 MaxDP=1.48D-05 DE=-1.77D-08 OVMax= 7.65D-06

 Cycle   9  Pass 1  IDiag  1:
 E= -115.585672324753     Delta-E=       -0.000000000337 Rises=F Damp=F
 DIIS: error= 8.62D-07 at cycle   3 NSaved=   3.
 NSaved= 3 IEnMin= 3 EnMin= -115.585672324753     IErMin= 3 ErrMin= 8.62D-07
 ErrMax= 8.62D-07  0.00D+00 EMaxC= 1.00D-01 BMatC= 6.92D-11 BMatP= 2.92D-10
 IDIUse=1 WtCom= 1.00D+00 WtEn= 0.00D+00
 Coeff-Com: -0.262D-01 0.333D+00 0.693D+00
 Coeff:     -0.262D-01 0.333D+00 0.693D+00
 Gap=     0.388 Goal=   None    Shift=    0.000
 RMSDP=1.20D-07 MaxDP=2.74D-06 DE=-3.37D-10 OVMax= 3.25D-06

 Cycle  10  Pass 1  IDiag  1:
 E= -115.585672324804     Delta-E=       -0.000000000052 Rises=F Damp=F
 DIIS: error= 3.70D-07 at cycle   4 NSaved=   4.
 NSaved= 4 IEnMin= 4 EnMin= -115.585672324804     IErMin= 4 ErrMin= 3.70D-07
 ErrMax= 3.70D-07  0.00D+00 EMaxC= 1.00D-01 BMatC= 1.33D-11 BMatP= 6.92D-11
 IDIUse=1 WtCom= 1.00D+00 WtEn= 0.00D+00
 Coeff-Com: -0.702D-02 0.303D-01 0.300D+00 0.676D+00
 Coeff:     -0.702D-02 0.303D-01 0.300D+00 0.676D+00
 Gap=     0.388 Goal=   None    Shift=    0.000
 RMSDP=4.78D-08 MaxDP=9.33D-07 DE=-5.17D-11 OVMax= 9.24D-07

 Cycle  11  Pass 1  IDiag  1:
 E= -115.585672324815     Delta-E=       -0.000000000010 Rises=F Damp=F
 DIIS: error= 7.52D-08 at cycle   5 NSaved=   5.
 NSaved= 5 IEnMin= 5 EnMin= -115.585672324815     IErMin= 5 ErrMin= 7.52D-08
 ErrMax= 7.52D-08  0.00D+00 EMaxC= 1.00D-01 BMatC= 6.44D-13 BMatP= 1.33D-11
 IDIUse=1 WtCom= 1.00D+00 WtEn= 0.00D+00
 Coeff-Com:  0.353D-03-0.209D-01 0.339D-01 0.210D+00 0.776D+00
 Coeff:      0.353D-03-0.209D-01 0.339D-01 0.210D+00 0.776D+00
 Gap=     0.388 Goal=   None    Shift=    0.000
 RMSDP=1.44D-08 MaxDP=2.59D-07 DE=-1.05D-11 OVMax= 3.16D-07

 Cycle  12  Pass 1  IDiag  1:
 E= -115.585672324815     Delta-E=        0.000000000000 Rises=F Damp=F
 DIIS: error= 2.28D-08 at cycle   6 NSaved=   6.
 NSaved= 6 IEnMin= 5 EnMin= -115.585672324815     IErMin= 6 ErrMin= 2.28D-08
 ErrMax= 2.28D-08  0.00D+00 EMaxC= 1.00D-01 BMatC= 6.59D-14 BMatP= 6.44D-13
 IDIUse=1 WtCom= 1.00D+00 WtEn= 0.00D+00
 Coeff-Com:  0.736D-03-0.102D-01-0.138D-01 0.108D-01 0.277D+00 0.735D+00
 Coeff:      0.736D-03-0.102D-01-0.138D-01 0.108D-01 0.277D+00 0.735D+00
 Gap=     0.388 Goal=   None    Shift=    0.000
 RMSDP=4.35D-09 MaxDP=9.80D-08 DE= 0.00D+00 OVMax= 7.42D-08

 SCF Done:  E(RM062X) =  -115.585672325     A.U. after   12 cycles
            NFock= 12  Conv=0.43D-08     -V/T= 2.0093
 KE= 1.145227978674D+02 PE=-3.515022716093D+02 EE= 8.093160579274D+01
 Leave Link  502 at Mon Mar 21 19:59:14 2022, MaxMem=  8589934592 cpu:              11.3 elap:               1.4
 (Enter /home/sabyasachi/g16/l801.exe)
 DoSCS=F DFT=T ScalE2(SS,OS)=  1.000000  1.000000
 ExpMin= 6.71D-02 ExpMax= 2.27D+03 ExpMxC= 3.41D+02 IAcc=3 IRadAn=         5 AccDes= 0.00D+00
 HarFok:  IExCor=  205 AccDes= 0.00D+00 IRadAn=         5 IDoV=-2 UseB2=F ITyADJ=14
 ICtDFT= 12500011 ScaDFX=  1.000000  1.000000  1.000000  1.000000
 Largest valence mixing into a core orbital is  9.62D-05
 Largest core mixing into a valence orbital is  3.02D-05
 Range of M.O.s used for correlation:     3    75
 NBasis=    75 NAE=     9 NBE=     9 NFC=     2 NFV=     0
 NROrb=     73 NOA=     7 NOB=     7 NVA=    66 NVB=    66

 **** Warning!!: The largest alpha MO coefficient is  0.21707346D+02

 Leave Link  801 at Mon Mar 21 19:59:14 2022, MaxMem=  8589934592 cpu:               0.5 elap:               0.1
 (Enter /home/sabyasachi/g16/l914.exe)
 RHF ground state
 Keep R1, R2, and R3 ints in memory in symmetry-blocked form, NReq=263841591.
 FoFCou: FMM=F IPFlag=           0 FMFlag=           0 FMFlg1=           0
         NFxFlg=           0 DoJE=F BraDBF=F KetDBF=F FulRan=T
         wScrn=  0.000000 ICntrl=       600 IOpCl=  0 I1Cent=           0 NGrid=           0
         NMat0=    1 NMatS0=   2850 NMatT0=    0 NMatD0=    1 NMtDS0=    0 NMtDT0=    0
 Petite list used in FoFCou.
 MDV=  8589934592 DFT=T DoStab=F Mixed=T DoRPA=T DoScal=F NonHer=T
 Making orbital integer symmetry assigments:
 Orbital symmetries:
       Occupied  (A') (A') (A') (A') (A') (A") (A') (A') (A")
       Virtual   (A') (A') (A") (A') (A') (A') (A") (A') (A") (A')
                 (A') (A') (A") (A') (A") (A') (A") (A') (A") (A')
                 (A') (A') (A") (A') (A') (A") (A') (A') (A") (A')
                 (A') (A") (A') (A') (A") (A') (A") (A') (A') (A')
                 (A') (A") (A") (A') (A") (A') (A') (A") (A") (A')
                 (A') (A") (A') (A') (A') (A') (A") (A') (A') (A")
                 (A') (A") (A") (A') (A') (A')
   462 initial guesses have been made.
 Convergence on wavefunction:    0.001000000000000
 Davidson Disk Diagonalization:  ConvIn= 1.00D-03 SkipCon=T Conv= 1.00D-03.
 Max sub-space:  2772 roots to seek:   924 dimension of matrix:          924
 *** WARNING: Number of orthogonal guesses is          462
 Iteration     1 Dimension   462 NMult     0 NNew    462
 CISAX will form   462 AO SS matrices at one time.
 NMat=   462 NSing=   462 JSym2X=-1.
 New state      4 was old state      5
 New state      5 was old state      4
 New state      8 was old state     10
 New state     10 was old state      8
 New state     14 was old state     15
 New state     15 was old state     16
 New state     16 was old state     14
 New state     17 was old state     21
 New state     20 was old state     17
 New state     21 was old state     20
 New state     22 was old state     23
 New state     23 was old state     26
 New state     24 was old state     22
 New state     25 was old state     24
 New state     26 was old state     25
 New state     28 was old state     29
 New state     29 was old state     31
 New state     30 was old state     32
 New state     31 was old state     30
 New state     32 was old state     36
 New state     33 was old state     28
 New state     34 was old state     33
 New state     35 was old state     34
 New state     36 was old state     38
 New state     37 was old state     35
 New state     38 was old state     39
 New state     39 was old state     37
 New state     42 was old state     43
 New state     43 was old state     44
 New state     44 was old state     42
 New state     45 was old state     47
 New state     46 was old state     45
 New state     47 was old state     50
 New state     49 was old state     46
 New state     50 was old state     49
 New state     52 was old state     53
 New state     53 was old state     57
 New state     54 was old state     55
 New state     55 was old state     52
 New state     56 was old state     54
 New state     57 was old state     58
 New state     58 was old state     56
 New state     59 was old state     62
 New state     60 was old state     59
 New state     61 was old state     60
 New state     62 was old state     61
 New state     64 was old state     67
 New state     65 was old state     64
 New state     66 was old state     69
 New state     67 was old state     65
 New state     68 was old state     66
 New state     69 was old state     68
 New state     71 was old state     72
 New state     72 was old state     71
 New state     73 was old state     75
 New state     74 was old state     76
 New state     75 was old state     73
 New state     76 was old state     81
 New state     77 was old state     80
 New state     78 was old state     77
 New state     79 was old state     74
 New state     80 was old state     82
 New state     81 was old state     86
 New state     82 was old state     78
 New state     83 was old state     85
 New state     84 was old state     79
 New state     85 was old state     83
 New state     86 was old state     87
 New state     87 was old state     91
 New state     89 was old state     84
 New state     90 was old state     89
 New state     91 was old state     90
 New state     93 was old state     98
 New state     94 was old state     95
 New state     95 was old state     93
 New state     96 was old state     97
 New state     97 was old state    101
 New state     98 was old state    100
 New state     99 was old state     94
 New state    100 was old state     99
 New state    101 was old state    104
 New state    102 was old state    105
 New state    104 was old state     96
 New state    105 was old state    102
 New state    107 was old state    108
 New state    108 was old state    109
 New state    109 was old state    113
 New state    111 was old state    114
 New state    112 was old state    107
 New state    113 was old state    112
 New state    114 was old state    120
 New state    115 was old state    116
 New state    116 was old state    124
 New state    117 was old state    111
 New state    120 was old state    115
 New state    121 was old state    117
 New state    122 was old state    126
 New state    124 was old state    121
 New state    125 was old state    122
 New state    126 was old state    127
 New state    127 was old state    125
 New state    128 was old state    130
 New state    129 was old state    128
 New state    130 was old state    131
 New state    131 was old state    134
 New state    132 was old state    138
 New state    133 was old state    129
 New state    134 was old state    132
 New state    135 was old state    133
 New state    136 was old state    137
 New state    137 was old state    139
 New state    138 was old state    135
 New state    139 was old state    144
 New state    140 was old state    141
 New state    141 was old state    146
 New state    142 was old state    140
 New state    143 was old state    142
 New state    144 was old state    147
 New state    145 was old state    136
 New state    146 was old state    145
 New state    147 was old state    143
 New state    149 was old state    153
 New state    150 was old state    152
 New state    151 was old state    150
 New state    152 was old state    149
 New state    153 was old state    156
 New state    154 was old state    151
 New state    155 was old state    154
 New state    156 was old state    158
 New state    158 was old state    155
 New state    159 was old state    163
 New state    161 was old state    162
 New state    162 was old state    161
 New state    163 was old state    159
 New state    166 was old state    167
 New state    167 was old state    168
 New state    168 was old state    166
 New state    169 was old state    170
 New state    170 was old state    173
 New state    171 was old state    172
 New state    172 was old state    174
 New state    173 was old state    171
 New state    174 was old state    176
 New state    175 was old state    169
 New state    176 was old state    177
 New state    177 was old state    180
 New state    178 was old state    179
 New state    179 was old state    184
 New state    180 was old state    178
 New state    181 was old state    175
 New state    182 was old state    185
 New state    183 was old state    181
 New state    184 was old state    186
 New state    185 was old state    183
 New state    186 was old state    182
 New state    187 was old state    190
 New state    188 was old state    187
 New state    189 was old state    191
 New state    190 was old state    188
 New state    191 was old state    192
 New state    192 was old state    193
 New state    193 was old state    189
 New state    196 was old state    198
 New state    198 was old state    196
 New state    199 was old state    201
 New state    200 was old state    203
 New state    201 was old state    200
 New state    202 was old state    199
 New state    203 was old state    202
 New state    204 was old state    206
 New state    205 was old state    204
 New state    206 was old state    208
 New state    207 was old state    205
 New state    208 was old state    207
 New state    209 was old state    211
 New state    210 was old state    209
 New state    211 was old state    210
 New state    212 was old state    213
 New state    213 was old state    217
 New state    214 was old state    218
 New state    215 was old state    212
 New state    216 was old state    219
 New state    217 was old state    216
 New state    218 was old state    221
 New state    219 was old state    214
 New state    220 was old state    215
 New state    221 was old state    225
 New state    222 was old state    227
 New state    223 was old state    222
 New state    224 was old state    220
 New state    225 was old state    223
 New state    226 was old state    224
 New state    227 was old state    234
 New state    228 was old state    230
 New state    229 was old state    233
 New state    230 was old state    228
 New state    231 was old state    226
 New state    232 was old state    236
 New state    233 was old state    237
 New state    234 was old state    231
 New state    235 was old state    232
 New state    236 was old state    239
 New state    237 was old state    241
 New state    238 was old state    242
 New state    239 was old state    229
 New state    240 was old state    238
 New state    241 was old state    235
 New state    242 was old state    246
 New state    243 was old state    245
 New state    244 was old state    243
 New state    245 was old state    249
 New state    246 was old state    244
 New state    247 was old state    252
 New state    248 was old state    247
 New state    249 was old state    251
 New state    250 was old state    253
 New state    251 was old state    255
 New state    252 was old state    248
 New state    253 was old state    257
 New state    254 was old state    250
 New state    255 was old state    254
 New state    257 was old state    259
 New state    259 was old state    260
 New state    260 was old state    240
 New state    264 was old state    265
 New state    265 was old state    264
 New state    266 was old state    267
 New state    267 was old state    266
 New state    270 was old state    271
 New state    271 was old state    270
 New state    273 was old state    278
 New state    274 was old state    275
 New state    275 was old state    273
 New state    276 was old state    274
 New state    277 was old state    276
 New state    278 was old state    279
 New state    279 was old state    280
 New state    280 was old state    277
 New state    281 was old state    283
 New state    282 was old state    281
 New state    283 was old state    282
 New state    284 was old state    289
 New state    285 was old state    284
 New state    286 was old state    291
 New state    287 was old state    285
 New state    289 was old state    286
 New state    290 was old state    287
 New state    291 was old state    296
 New state    292 was old state    290
 New state    294 was old state    295
 New state    295 was old state    297
 New state    296 was old state    294
 New state    297 was old state    292
 New state    300 was old state    303
 New state    301 was old state    300
 New state    302 was old state    301
 New state    303 was old state    302
 New state    307 was old state    309
 New state    308 was old state    307
 New state    309 was old state    308
 New state    310 was old state    311
 New state    311 was old state    310
 New state    312 was old state    313
 New state    313 was old state    316
 New state    314 was old state    315
 New state    315 was old state    314
 New state    316 was old state    312
 New state    317 was old state    320
 New state    319 was old state    317
 New state    320 was old state    319
 New state    321 was old state    322
 New state    322 was old state    323
 New state    323 was old state    321
 New state    324 was old state    325
 New state    325 was old state    324
 New state    329 was old state    332
 New state    331 was old state    329
 New state    332 was old state    331
 New state    333 was old state    334
 New state    334 was old state    335
 New state    335 was old state    336
 New state    336 was old state    333
 New state    338 was old state    339
 New state    339 was old state    338
 New state    340 was old state    342
 New state    341 was old state    340
 New state    342 was old state    341
 New state    344 was old state    345
 New state    345 was old state    344
 New state    346 was old state    347
 New state    347 was old state    346
 New state    349 was old state    350
 New state    350 was old state    357
 New state    351 was old state    349
 New state    352 was old state    355
 New state    354 was old state    351
 New state    355 was old state    352
 New state    356 was old state    354
 New state    357 was old state    356
 New state    358 was old state    360
 New state    359 was old state    358
 New state    360 was old state    359
 New state    361 was old state    362
 New state    362 was old state    361
 New state    364 was old state    365
 New state    365 was old state    364
 New state    368 was old state    369
 New state    369 was old state    368
 New state    370 was old state    371
 New state    371 was old state    370
 New state    374 was old state    375
 New state    375 was old state    374
 New state    376 was old state    377
 New state    377 was old state    376
 New state    378 was old state    379
 New state    379 was old state    378
 New state    382 was old state    383
 New state    383 was old state    382
 New state    384 was old state    385
 New state    385 was old state    384
 New state    394 was old state    395
 New state    395 was old state    394
 New state    398 was old state    399
 New state    399 was old state    398
 New state    409 was old state    410
 New state    410 was old state    409
 New state    411 was old state    413
 New state    413 was old state    411
 New state    417 was old state    421
 New state    418 was old state    417
 New state    419 was old state    418
 New state    420 was old state    419
 New state    421 was old state    422
 New state    422 was old state    420
 New state    424 was old state    425
 New state    425 was old state    424
 New state    427 was old state    428
 New state    428 was old state    427
 New state    429 was old state    431
 New state    430 was old state    429
 New state    431 was old state    432
 New state    432 was old state    430
 New state    437 was old state    439
 New state    439 was old state    440
 New state    440 was old state    437
 New state    441 was old state    442
 New state    442 was old state    441
 New state    450 was old state    451
 New state    451 was old state    450
 New state    453 was old state    454
 New state    454 was old state    453
 New state    455 was old state    456
 New state    456 was old state    455
 New state    459 was old state    460
 New state    460 was old state    459
 Excitation Energies [eV] at current iteration:
 Root      1 :     7.143286319379628
 Root      2 :     8.533166432102048
 Root      3 :     8.875113784015317
 Root      4 :     9.420983594980200
 Root      5 :     9.621863540748311
 Root      6 :     9.997094740049508
 Root      7 :    10.071925850904170
 Root      8 :    10.606660436784990
 Root      9 :    10.990969980699650
 Root     10 :    11.033531739420120
 Root     11 :    11.182634283093750
 Root     12 :    11.438829091031330
 Root     13 :    11.642169714484440
 Root     14 :    11.814152632784520
 Root     15 :    11.868515488287010
 Root     16 :    11.913545646222970
 Root     17 :    12.262819208748930
 Root     18 :    12.479087926252280
 Root     19 :    12.495666897036660
 Root     20 :    12.632753854987400
 Root     21 :    12.677395163399650
 Root     22 :    13.053284906133970
 Root     23 :    13.290297795994390
 Root     24 :    13.341800055498540
 Root     25 :    13.700959296969350
 Root     26 :    13.718519493199330
 Root     27 :    13.851447898304360
 Root     28 :    13.947271010997370
 Root     29 :    14.098780881667160
 Root     30 :    14.312517727705510
 Root     31 :    14.408815948166970
 Root     32 :    14.541906679154940
 Root     33 :    14.603657839489250
 Root     34 :    14.637888575534630
 Root     35 :    14.742323166004850
 Root     36 :    14.860155909525030
 Root     37 :    14.879123336600560
 Root     38 :    15.023939157980770
 Root     39 :    15.062200612092550
 Root     40 :    15.269289845314670
 Root     41 :    15.311919495575150
 Root     42 :    15.582156170947260
 Root     43 :    15.643076040727950
 Root     44 :    15.795486172490210
 Root     45 :    15.831029751823570
 Root     46 :    15.872960641972090
 Root     47 :    15.972508610810030
 Root     48 :    16.039168571592980
 Root     49 :    16.120309439576510
 Root     50 :    16.208878740678850
 Root     51 :    16.376662274760750
 Root     52 :    16.456400996266470
 Root     53 :    16.474107932885300
 Root     54 :    16.698672937041190
 Root     55 :    16.722839200915440
 Root     56 :    16.801486654822440
 Root     57 :    16.837344147173200
 Root     58 :    16.863625837331980
 Root     59 :    17.109715113067930
 Root     60 :    17.163070688949850
 Root     61 :    17.232472378033960
 Root     62 :    17.320651338811900
 Root     63 :    17.358763044681840
 Root     64 :    17.592083116047930
 Root     65 :    17.727453040445700
 Root     66 :    17.788220080718780
 Root     67 :    18.030723569795680
 Root     68 :    18.093060004092890
 Root     69 :    18.226510269787780
 Root     70 :    18.307546725352400
 Root     71 :    18.356508298166020
 Root     72 :    18.384467799676850
 Root     73 :    18.505609347354690
 Root     74 :    18.647306267527470
 Root     75 :    18.748041392021630
 Root     76 :    18.784014862484010
 Root     77 :    18.877902697440830
 Root     78 :    18.894021369542270
 Root     79 :    18.951097689616830
 Root     80 :    19.183678068251780
 Root     81 :    19.189972572085160
 Root     82 :    19.244999667099200
 Root     83 :    19.329587074427680
 Root     84 :    19.358382495506870
 Root     85 :    19.391863147370370
 Root     86 :    19.577207573325970
 Root     87 :    19.658335633453480
 Root     88 :    19.729859625386080
 Root     89 :    19.831115465943590
 Root     90 :    19.906801619122430
 Root     91 :    20.120532812770930
 Root     92 :    20.132005415810710
 Root     93 :    20.231042894916760
 Root     94 :    20.331051839234790
 Root     95 :    20.375280964196350
 Root     96 :    20.693657815099980
 Root     97 :    20.698404103463490
 Root     98 :    20.789971859042030
 Root     99 :    20.825274535197330
 Root    100 :    20.869427972090760
 Root    101 :    20.909168923002710
 Root    102 :    20.995684253237070
 Root    103 :    20.996505574192270
 Root    104 :    21.053004899038290
 Root    105 :    21.125446457500030
 Root    106 :    21.252350335903180
 Root    107 :    21.295381876515900
 Root    108 :    21.443679828149390
 Root    109 :    21.456379385786400
 Root    110 :    21.511301756576870
 Root    111 :    21.548851510989180
 Root    112 :    21.760478682278150
 Root    113 :    21.820571191451650
 Root    114 :    21.934080654326940
 Root    115 :    21.935780238585890
 Root    116 :    22.243960571849700
 Root    117 :    22.247575054726900
 Root    118 :    22.336286068958930
 Root    119 :    22.419134767024670
 Root    120 :    22.450200581471230
 Root    121 :    22.646706436038110
 Root    122 :    22.779674553246510
 Root    123 :    22.877606729650630
 Root    124 :    22.910071565650670
 Root    125 :    23.005465998991460
 Root    126 :    23.088418760777080
 Root    127 :    23.151067029284060
 Root    128 :    23.312710836296060
 Root    129 :    23.330431346283160
 Root    130 :    23.376612562997040
 Root    131 :    23.523056654477230
 Root    132 :    23.580143359189280
 Root    133 :    23.615036750202560
 Root    134 :    23.730468087342570
 Root    135 :    23.779279683427300
 Root    136 :    23.879480649071820
 Root    137 :    23.890380029401320
 Root    138 :    24.012453051027060
 Root    139 :    24.113447153758830
 Root    140 :    24.163674012422770
 Root    141 :    24.287841240755740
 Root    142 :    24.390932893380930
 Root    143 :    24.681817124109110
 Root    144 :    24.809368420693040
 Root    145 :    24.862970177674630
 Root    146 :    24.888168398088150
 Root    147 :    25.136928256893510
 Root    148 :    25.241083685395920
 Root    149 :    25.294021054443760
 Root    150 :    25.555987925870870
 Root    151 :    25.718037838838420
 Root    152 :    25.868875778999480
 Root    153 :    25.978420426745940
 Root    154 :    26.029130670144940
 Root    155 :    26.159228223493520
 Root    156 :    26.269945191255130
 Root    157 :    26.396724784977120
 Root    158 :    26.647956995783370
 Root    159 :    26.725050277118570
 Root    160 :    26.846116738148090
 Root    161 :    27.004782143612880
 Root    162 :    27.107180523510170
 Root    163 :    27.253729232726620
 Root    164 :    27.398246898297600
 Root    165 :    27.843129920932490
 Root    166 :    27.917894511559760
 Root    167 :    27.967425717068480
 Root    168 :    28.065254410412970
 Root    169 :    28.236663428286360
 Root    170 :    28.265887827453650
 Root    171 :    28.522217594552490
 Root    172 :    28.604824521704510
 Root    173 :    28.728187105639110
 Root    174 :    28.987491912048880
 Root    175 :    29.025219230984500
 Root    176 :    29.167062776189630
 Root    177 :    29.353703715822810
 Root    178 :    29.394555669588170
 Root    179 :    29.525687827436430
 Root    180 :    29.732073771475630
 Root    181 :    29.869322742914760
 Root    182 :    30.132261310533600
 Root    183 :    30.229410701309880
 Root    184 :    30.455336895623490
 Root    185 :    30.494079200686390
 Root    186 :    30.546368595866030
 Root    187 :    30.612714172992660
 Root    188 :    30.771882271192630
 Root    189 :    30.902751560017170
 Root    190 :    31.016318559316190
 Root    191 :    31.210965651966240
 Root    192 :    31.277262797525090
 Root    193 :    31.325242161744370
 Root    194 :    31.763619967719330
 Root    195 :    31.839094348649250
 Root    196 :    31.889503636938240
 Root    197 :    32.161496682711710
 Root    198 :    32.215710794564870
 Root    199 :    32.593706757971640
 Root    200 :    32.727789423804760
 Root    201 :    32.907171478402140
 Root    202 :    32.963173071174760
 Root    203 :    33.028872167281750
 Root    204 :    33.329328860419100
 Root    205 :    33.367988611968150
 Root    206 :    33.577892607762730
 Root    207 :    33.722513082725290
 Root    208 :    33.950713062927410
 Root    209 :    34.056955547240130
 Root    210 :    34.349560774588460
 Root    211 :    34.527986926030690
 Root    212 :    34.572649848608050
 Root    213 :    34.623371235808520
 Root    214 :    34.976715238110460
 Root    215 :    35.037352095636880
 Root    216 :    35.245037575847440
 Root    217 :    35.360472257064560
 Root    218 :    35.364451215237250
 Root    219 :    35.514622659212850
 Root    220 :    35.642766996989200
 Root    221 :    35.870806196388920
 Root    222 :    35.875102493369920
 Root    223 :    35.877604017212900
 Root    224 :    36.014750763413850
 Root    225 :    36.277782800407670
 Root    226 :    36.342141360816920
 Root    227 :    36.491116339190410
 Root    228 :    36.524451018178550
 Root    229 :    36.794172664141090
 Root    230 :    36.958031466649620
 Root    231 :    36.970365936595340
 Root    232 :    36.974513322836910
 Root    233 :    37.286098173381970
 Root    234 :    37.403207500815160
 Root    235 :    37.638542824851510
 Root    236 :    37.665349647836320
 Root    237 :    37.785853311136630
 Root    238 :    37.976546205758810
 Root    239 :    37.991768811492740
 Root    240 :    38.141548315585740
 Root    241 :    38.184888617326620
 Root    242 :    38.463020044151750
 Root    243 :    38.475194371339040
 Root    244 :    38.852615789695940
 Root    245 :    39.492169166676770
 Root    246 :    39.589214923680730
 Root    247 :    39.809153794380810
 Root    248 :    39.945090100746950
 Root    249 :    40.011623723328820
 Root    250 :    40.254398658450200
 Root    251 :    40.502655503683300
 Root    252 :    40.597548150503820
 Root    253 :    40.708957236734240
 Root    254 :    40.841887275569110
 Root    255 :    41.011826059683550
 Root    256 :    41.398896677979290
 Root    257 :    41.553731109394110
 Root    258 :    42.082144126294560
 Root    259 :    42.121929046493840
 Root    260 :    42.479691835839970
 Root    261 :    42.496029689959260
 Root    262 :    43.134819754985540
 Root    263 :    43.461501976620250
 Root    264 :    43.681315948368180
 Root    265 :    43.945720319630040
 Root    266 :    44.182623438355470
 Root    267 :    44.614049780270900
 Root    268 :    44.875384130128660
 Root    269 :    44.921405943124700
 Root    270 :    45.386758417408510
 Root    271 :    45.937520611222350
 Root    272 :    46.374434642240710
 Root    273 :    47.127406174027470
 Root    274 :    47.284250491419190
 Root    275 :    47.388241052024600
 Root    276 :    47.878816689734120
 Root    277 :    48.723081821255630
 Root    278 :    48.823793226904340
 Root    279 :    49.380674669066180
 Root    280 :    49.947841664163460
 Root    281 :    50.383724750405460
 Root    282 :    50.496745087900050
 Root    283 :    50.684998465721530
 Root    284 :    50.944277873014980
 Root    285 :    51.352791556696690
 Root    286 :    51.683010264665320
 Root    287 :    51.860654719386240
 Root    288 :    51.939923103590500
 Root    289 :    52.070519181648980
 Root    290 :    52.238829480854870
 Root    291 :    52.312788785731680
 Root    292 :    52.479760001105350
 Root    293 :    52.510726518029920
 Root    294 :    52.542092885170250
 Root    295 :    53.044385344428720
 Root    296 :    53.428218129692990
 Root    297 :    53.505477251380100
 Root    298 :    53.868718267936810
 Root    299 :    53.891786083618380
 Root    300 :    54.122216419968000
 Root    301 :    54.319043790926170
 Root    302 :    54.535095767443690
 Root    303 :    54.737417186061710
 Root    304 :    55.051686082962020
 Root    305 :    55.799842969923420
 Root    306 :    55.864617744494100
 Root    307 :    55.931069012324510
 Root    308 :    56.148093712177760
 Root    309 :    56.471865087535060
 Root    310 :    56.818283416346200
 Root    311 :    57.183493112260260
 Root    312 :    57.530393367161960
 Root    313 :    58.040177080685620
 Root    314 :    58.089133516118060
 Root    315 :    58.182166427813220
 Root    316 :    58.288335832089500
 Root    317 :    58.617798948836350
 Root    318 :    58.665771397937420
 Root    319 :    58.740598802829100
 Root    320 :    58.783141844133970
 Root    321 :    59.134391606554450
 Root    322 :    59.285676445699350
 Root    323 :    59.590602944756980
 Root    324 :    59.999681792653750
 Root    325 :    60.102345520525160
 Root    326 :    60.321113735161210
 Root    327 :    60.413188480158740
 Root    328 :    60.923497406762980
 Root    329 :    61.219045376386870
 Root    330 :    61.479819045811670
 Root    331 :    61.527634717693390
 Root    332 :    61.884385290617210
 Root    333 :    62.258092014044630
 Root    334 :    62.523870079759240
 Root    335 :    62.578518604639480
 Root    336 :    62.819943027880020
 Root    337 :    62.936156480114330
 Root    338 :    63.041453673259370
 Root    339 :    63.255860985788600
 Root    340 :    63.833031600412470
 Root    341 :    63.855240414975690
 Root    342 :    64.209916027597340
 Root    343 :    64.239801371332420
 Root    344 :    64.709382170753800
 Root    345 :    65.184550608542910
 Root    346 :    65.277275787738760
 Root    347 :    65.385394543177970
 Root    348 :    65.568786383000400
 Root    349 :    66.055929690856540
 Root    350 :    66.167573537279480
 Root    351 :    66.283524965662480
 Root    352 :    66.481309217372270
 Root    353 :    66.633233807490230
 Root    354 :    66.741044129962990
 Root    355 :    66.963767395698340
 Root    356 :    67.360558951533180
 Root    357 :    67.489757865047850
 Root    358 :    67.912691929894010
 Root    359 :    68.310275592752570
 Root    360 :    68.386582850941550
 Root    361 :    68.537214828690690
 Root    362 :    68.858719018580320
 Root    363 :    69.289878114781360
 Root    364 :    69.516537194343740
 Root    365 :    69.707197913917800
 Root    366 :    69.727688663573130
 Root    367 :    70.311466540880020
 Root    368 :    70.782280194596300
 Root    369 :    71.071510023523120
 Root    370 :    71.862735382007410
 Root    371 :    72.089399079285170
 Root    372 :    72.094968969164600
 Root    373 :    72.645171402482570
 Root    374 :    72.782856625256850
 Root    375 :    73.376275514037530
 Root    376 :    73.392283906611010
 Root    377 :    73.528920131478330
 Root    378 :    73.576946523296340
 Root    379 :    73.802474755872310
 Root    380 :    74.381083054287400
 Root    381 :    74.737656548262050
 Root    382 :    75.116706027964280
 Root    383 :    75.487593742984070
 Root    384 :    75.664044427064240
 Root    385 :    75.895190482604010
 Root    386 :    76.378368289926900
 Root    387 :    76.669916198430580
 Root    388 :    76.922565639067800
 Root    389 :    77.426583375339530
 Root    390 :    77.868931996861680
 Root    391 :    78.531877924927700
 Root    392 :    79.004625849373280
 Root    393 :    79.779032048293790
 Root    394 :    79.820561517367570
 Root    395 :    80.173915247007300
 Root    396 :    80.304607221120070
 Root    397 :    81.005809323807310
 Root    398 :    81.483669188725270
 Root    399 :    81.535367831855520
 Root    400 :    81.968728546989740
 Root    401 :    82.288751841371290
 Root    402 :    83.300698798716470
 Root    403 :    84.032447978250870
 Root    404 :    84.215390832857390
 Root    405 :    84.628243508763420
 Root    406 :    84.729707904581970
 Root    407 :    85.841693318791140
 Root    408 :    86.523206735951960
 Root    409 :    86.728655680069890
 Root    410 :    86.937090827329810
 Root    411 :    87.620327940540010
 Root    412 :    88.431897084919650
 Root    413 :    88.807862086632570
 Root    414 :    88.873170799311150
 Root    415 :    89.369657216988030
 Root    416 :    89.819585858593020
 Root    417 :    90.620650058832140
 Root    418 :    90.643441211576540
 Root    419 :    91.063341354586750
 Root    420 :    91.112790845814420
 Root    421 :    91.404707875071470
 Root    422 :    91.455986008836020
 Root    423 :    91.904135380186830
 Root    424 :    92.307589611802090
 Root    425 :    92.951145843177490
 Root    426 :    93.203422686667010
 Root    427 :    93.519257794508550
 Root    428 :    93.694475987621250
 Root    429 :    93.822559625021580
 Root    430 :    94.464331863602820
 Root    431 :    94.866232097594510
 Root    432 :    95.140539432651180
 Root    433 :    95.826377254201290
 Root    434 :    96.180589664969420
 Root    435 :    96.701968806637000
 Root    436 :    97.305633559449840
 Root    437 :    97.555112449592610
 Root    438 :    98.101415876267820
 Root    439 :    98.686168287205790
 Root    440 :    99.006574252710290
 Root    441 :    99.131360466503010
 Root    442 :   100.105871984727500
 Root    443 :   101.515333218966300
 Root    444 :   102.513291202727400
 Root    445 :   102.646531866355300
 Root    446 :   103.180312760238500
 Root    447 :   104.328841961780400
 Root    448 :   104.734939083138300
 Root    449 :   106.282311301825100
 Root    450 :   107.903816130932600
 Root    451 :   108.257238703904100
 Root    452 :   110.084968578602200
 Root    453 :   110.216183884822100
 Root    454 :   111.024099464079600
 Root    455 :   112.719013991200300
 Root    456 :   113.153804875858300
 Root    457 :   116.211652637652700
 Root    458 :   117.353871962550700
 Root    459 :   117.688533009089200
 Root    460 :   118.715813014646700
 Root    461 :   124.082736919778300
 Root    462 :   131.184624235780500
 Convergence achieved for final wavefunctions.
 ***********************************************************************
 Excited states from <AA,BB:AA,BB> singles matrix:
 ***********************************************************************
 
 1PDM for each excited state written to RWF  633
 Ground to excited state transition densities written to RWF  633
 Ground to excited state transition electric dipole moments (Au):
       state          X           Y           Z        Dip. S.      Osc.
         1        -0.0000      0.0000     -0.0974      0.0095      0.0017
         2         0.0000     -0.0000      0.4290      0.1840      0.0385
         3        -0.0356      0.0349      0.0000      0.0025      0.0005
         4         0.0000      0.0000      0.2024      0.0410      0.0095
         5         0.2464     -0.4612      0.0000      0.2734      0.0644
         6         0.4977     -0.0679     -0.0000      0.2523      0.0618
         7        -0.0000      0.0000      0.1631      0.0266      0.0066
         8        -0.0000     -0.0000      0.2880      0.0830      0.0216
         9        -0.0830     -0.4899     -0.0000      0.2469      0.0665
        10         0.0000     -0.0000      0.3391      0.1150      0.0311
        11         0.2517     -0.1140     -0.0000      0.0764      0.0209
        12         0.2018     -0.4047      0.0000      0.2045      0.0573
        13        -0.0000      0.0000      0.1423      0.0203      0.0058
        14         0.1753     -0.1680      0.0000      0.0590      0.0171
        15         0.0000     -0.0000     -0.3191      0.1019      0.0296
        16         0.1923     -0.1474      0.0000      0.0587      0.0171
        17        -0.0000      0.0000     -0.1210      0.0146      0.0044
        18        -0.0606      0.2130     -0.0000      0.0490      0.0150
        19        -0.0000      0.0000      0.3947      0.1558      0.0477
        20         0.4384      0.5376      0.0000      0.4812      0.1489
        21         0.0000      0.0000     -0.4474      0.2002      0.0622
        22        -0.0000      0.0000     -0.1154      0.0133      0.0043
        23         0.0000      0.0000     -0.1990      0.0396      0.0129
        24        -0.1842     -0.1668     -0.0000      0.0618      0.0202
        25         0.0000      0.0000     -0.1492      0.0223      0.0075
        26        -0.4176      0.4019     -0.0000      0.3359      0.1129
        27        -0.3847     -0.2576      0.0000      0.2144      0.0727
        28        -0.0000     -0.0000      0.1076      0.0116      0.0040
        29         0.3942      0.2182     -0.0000      0.2030      0.0701
        30        -0.0000     -0.0000     -0.0742      0.0055      0.0019
        31        -0.2712     -0.3356      0.0000      0.1862      0.0657
        32        -0.0568     -0.3777      0.0000      0.1458      0.0520
        33         0.0084      0.0902     -0.0000      0.0082      0.0029
        34         0.0000     -0.0000     -0.4606      0.2122      0.0761
        35        -0.0188      0.5146     -0.0000      0.2652      0.0958
        36         0.0000     -0.0000      0.2510      0.0630      0.0229
        37         0.7662      0.1400     -0.0000      0.6067      0.2212
        38         0.1421      0.1069      0.0000      0.0316      0.0116
        39         0.0000      0.0000     -0.4291      0.1841      0.0680
        40         0.3037      0.9024     -0.0000      0.9067      0.3392
        41         0.0000     -0.0000     -0.6219      0.3867      0.1451
        42        -0.5017     -0.1348     -0.0000      0.2699      0.1030
        43         0.0000      0.0000     -0.3468      0.1202      0.0461
        44         0.6334     -0.4201      0.0000      0.5777      0.2235
        45         0.0000     -0.0000      0.3873      0.1500      0.0582
        46         0.0000      0.0000     -0.2628      0.0690      0.0268
        47         0.0065     -0.2464     -0.0000      0.0608      0.0238
        48         0.0000      0.0000      0.2660      0.0708      0.0278
        49        -0.0873      0.2797     -0.0000      0.0859      0.0339
        50        -0.0091      0.1923      0.0000      0.0371      0.0147
        51         0.0000      0.0000      0.5314      0.2824      0.1133
        52        -0.4013     -0.1489      0.0000      0.1832      0.0739
        53        -0.0000     -0.0000      0.3628      0.1316      0.0531
        54        -0.0000     -0.0000     -0.0201      0.0004      0.0002
        55        -0.1128     -0.1376      0.0000      0.0317      0.0130
        56         0.2083      0.0547     -0.0000      0.0464      0.0191
        57        -0.0000     -0.0000      0.3136      0.0984      0.0406
        58         0.2039     -0.0302      0.0000      0.0425      0.0175
        59         0.0000     -0.0000     -0.0615      0.0038      0.0016
        60         0.0848      0.1856      0.0000      0.0417      0.0175
        61         0.3413      0.1330      0.0000      0.1342      0.0567
        62        -0.5939      0.2347     -0.0000      0.4078      0.1730
        63         0.0000     -0.0000     -0.5795      0.3358      0.1428
        64        -0.0000     -0.0000     -0.1375      0.0189      0.0082
        65        -0.0410      0.6059     -0.0000      0.3688      0.1602
        66        -0.0000      0.0000     -0.1467      0.0215      0.0094
        67        -0.0851      0.1815     -0.0000      0.0402      0.0177
        68         0.0000      0.0000      0.0400      0.0016      0.0007
        69         0.0000      0.0000     -0.1386      0.0192      0.0086
        70         0.4361      0.1820     -0.0000      0.2233      0.1002
        71         0.0621      0.0337     -0.0000      0.0050      0.0022
        72         0.0000      0.0000     -0.1102      0.0121      0.0055
        73        -0.0000     -0.0000     -0.2781      0.0773      0.0351
        74        -0.2109      0.1910     -0.0000      0.0809      0.0370
        75        -0.0000     -0.0000      0.1619      0.0262      0.0120
        76        -0.0810      0.3371      0.0000      0.1202      0.0553
        77        -0.1363     -0.2143      0.0000      0.0645      0.0298
        78        -0.0000      0.0000     -0.1299      0.0169      0.0078
        79         0.0057     -0.0097     -0.0000      0.0001      0.0001
        80         0.0000     -0.0000      0.3572      0.1276      0.0600
        81        -0.1647     -0.0292      0.0000      0.0280      0.0132
        82         0.1531     -0.1655     -0.0000      0.0508      0.0240
        83        -0.0000      0.0000      0.2171      0.0471      0.0223
        84        -0.1658      0.0292      0.0000      0.0284      0.0134
        85         0.0000      0.0000      0.1590      0.0253      0.0120
        86         0.0966     -0.1742     -0.0000      0.0397      0.0190
        87         0.1941      0.4143      0.0000      0.2093      0.1008
        88         0.0000     -0.0000     -0.0757      0.0057      0.0028
        89         0.0965     -0.0783      0.0000      0.0154      0.0075
        90        -0.1232     -0.0141     -0.0000      0.0154      0.0075
        91        -0.1908     -0.2245     -0.0000      0.0868      0.0428
        92        -0.0000      0.0000      0.2412      0.0582      0.0287
        93        -0.0000      0.0000     -0.1526      0.0233      0.0115
        94        -0.0000     -0.0000      0.1403      0.0197      0.0098
        95         0.0065      0.5338     -0.0000      0.2850      0.1422
        96        -0.0000      0.0000     -0.0284      0.0008      0.0004
        97         0.0611      0.0656     -0.0000      0.0080      0.0041
        98         0.3874     -0.0550      0.0000      0.1531      0.0780
        99         0.0000      0.0000     -0.0972      0.0094      0.0048
       100         0.0431     -0.0378     -0.0000      0.0033      0.0017
       101         0.0000      0.0000      0.0496      0.0025      0.0013
       102         0.0000      0.0000      0.2034      0.0414      0.0213
       103         0.2167      0.1756     -0.0000      0.0778      0.0400
       104         0.1960      0.1679      0.0000      0.0666      0.0343
       105        -0.0000      0.0000      0.0932      0.0087      0.0045
       106         0.1107     -0.0529     -0.0000      0.0151      0.0078
       107         0.1485     -0.0433      0.0000      0.0239      0.0125
       108         0.0266     -0.1816     -0.0000      0.0337      0.0177
       109        -0.0000      0.0000     -0.0444      0.0020      0.0010
       110         0.0000      0.0000      0.1911      0.0365      0.0192
       111         0.2122      0.0194      0.0000      0.0454      0.0240
       112        -0.0718      0.3053     -0.0000      0.0983      0.0524
       113        -0.0000      0.0000      0.2470      0.0610      0.0326
       114        -0.0000     -0.0000     -0.0485      0.0023      0.0013
       115         0.0953      0.0533     -0.0000      0.0119      0.0064
       116        -0.0000      0.0000     -0.2532      0.0641      0.0349
       117        -0.1989     -0.0858     -0.0000      0.0469      0.0256
       118        -0.0000      0.0000     -0.0678      0.0046      0.0025
       119        -0.2673      0.3330      0.0000      0.1823      0.1002
       120         0.1154      0.1668      0.0000      0.0412      0.0226
       121         0.0555      0.5167      0.0000      0.2700      0.1498
       122        -0.0000     -0.0000      0.2596      0.0674      0.0376
       123        -0.0000      0.0000      0.0359      0.0013      0.0007
       124         0.1500     -0.4335      0.0000      0.2105      0.1181
       125         0.0000     -0.0000      0.1403      0.0197      0.0111
       126        -0.0106      0.2466      0.0000      0.0609      0.0345
       127        -0.0000     -0.0000      0.1284      0.0165      0.0094
       128        -0.0000      0.0000      0.1528      0.0233      0.0133
       129        -0.0848      0.0268     -0.0000      0.0079      0.0045
       130         0.0089     -0.4093      0.0000      0.1676      0.0960
       131        -0.1231      0.1431     -0.0000      0.0356      0.0205
       132        -0.0000      0.0000      0.0078      0.0001      0.0000
       133        -0.0852     -0.2586     -0.0000      0.0741      0.0429
       134         0.0000      0.0000     -0.0327      0.0011      0.0006
       135         0.1081      0.0228      0.0000      0.0122      0.0071
       136        -0.0375      0.1494     -0.0000      0.0237      0.0139
       137        -0.0000     -0.0000     -0.0787      0.0062      0.0036
       138        -0.0755     -0.0114      0.0000      0.0058      0.0034
       139         0.0000     -0.0000      0.2360      0.0557      0.0329
       140        -0.0128     -0.0997     -0.0000      0.0101      0.0060
       141        -0.0000     -0.0000     -0.3090      0.0955      0.0568
       142         0.0708      0.5107     -0.0000      0.2658      0.1589
       143         0.1192     -0.1424     -0.0000      0.0345      0.0209
       144         0.0000     -0.0000     -0.5519      0.3046      0.1852
       145         0.0000     -0.0000      0.5431      0.2949      0.1796
       146        -0.0731      0.1369      0.0000      0.0241      0.0147
       147        -0.2277      0.0237      0.0000      0.0524      0.0323
       148         0.0000      0.0000      0.0082      0.0001      0.0000
       149         0.2049      0.0453     -0.0000      0.0440      0.0273
       150        -0.0853     -0.3617     -0.0000      0.1381      0.0865
       151        -0.0438      0.0056      0.0000      0.0019      0.0012
       152         0.0138     -0.1365     -0.0000      0.0188      0.0119
       153        -0.5066      0.3302      0.0000      0.3656      0.2327
       154         0.0000     -0.0000      0.0467      0.0022      0.0014
       155        -0.0820      0.1418      0.0000      0.0268      0.0172
       156        -0.0000      0.0000     -0.0495      0.0024      0.0016
       157        -0.0000      0.0000      0.1466      0.0215      0.0139
       158        -0.6241      0.0692     -0.0000      0.3943      0.2574
       159        -0.0000      0.0000      0.2068      0.0428      0.0280
       160         0.1183     -0.1991      0.0000      0.0536      0.0353
       161         0.0000     -0.0000     -0.3327      0.1107      0.0732
       162         0.5626      0.1000     -0.0000      0.3265      0.2168
       163        -0.1252     -0.1170      0.0000      0.0294      0.0196
       164        -0.0000     -0.0000     -0.5160      0.2663      0.1788
       165         0.0000      0.0000      0.0544      0.0030      0.0020
       166        -0.0705      0.0525     -0.0000      0.0077      0.0053
       167         0.2826      0.0574     -0.0000      0.0832      0.0570
       168         0.0519      0.0210     -0.0000      0.0031      0.0022
       169         0.0000      0.0000      0.0602      0.0036      0.0025
       170         0.1824      0.0643     -0.0000      0.0374      0.0259
       171        -0.0000     -0.0000      0.0936      0.0088      0.0061
       172         0.1087      0.1666      0.0000      0.0396      0.0277
       173        -0.1460     -0.1125      0.0000      0.0340      0.0239
       174        -0.0000     -0.0000      0.0012      0.0000      0.0000
       175        -0.1878      0.0776     -0.0000      0.0413      0.0294
       176         0.1401     -0.1613     -0.0000      0.0457      0.0326
       177        -0.0000      0.0000      0.0976      0.0095      0.0068
       178         0.0000      0.0000     -0.1719      0.0296      0.0213
       179         0.0000     -0.0000      0.2285      0.0522      0.0378
       180        -0.0735      0.0560      0.0000      0.0085      0.0062
       181        -0.0086      0.0324     -0.0000      0.0011      0.0008
       182         0.0170     -0.0604      0.0000      0.0039      0.0029
       183         0.0000     -0.0000     -0.1317      0.0174      0.0129
       184         0.1631      0.0451     -0.0000      0.0286      0.0214
       185         0.1736      0.1128      0.0000      0.0429      0.0320
       186         0.0000     -0.0000      0.0299      0.0009      0.0007
       187         0.0071      0.0540     -0.0000      0.0030      0.0022
       188        -0.3252     -0.0718      0.0000      0.1109      0.0836
       189        -0.0000     -0.0000     -0.1895      0.0359      0.0272
       190        -0.0793      0.1319     -0.0000      0.0237      0.0180
       191        -0.0000     -0.0000     -0.1900      0.0361      0.0276
       192         0.0415     -0.1492      0.0000      0.0240      0.0184
       193         0.0299     -0.0037     -0.0000      0.0009      0.0007
       194         0.1258      0.0001     -0.0000      0.0158      0.0123
       195        -0.0413     -0.0038      0.0000      0.0017      0.0013
       196         0.0000     -0.0000      0.3281      0.1076      0.0841
       197         0.0000      0.0000      0.1645      0.0271      0.0213
       198         0.1312     -0.1433      0.0000      0.0377      0.0298
       199        -0.2299     -0.0880     -0.0000      0.0606      0.0484
       200         0.0000     -0.0000      0.0143      0.0002      0.0002
       201        -0.0000     -0.0000      0.0237      0.0006      0.0005
       202         0.0005      0.0033      0.0000      0.0000      0.0000
       203        -0.0000     -0.0000      0.0520      0.0027      0.0022
       204         0.0722      0.3049      0.0000      0.0982      0.0802
       205        -0.0356     -0.0087     -0.0000      0.0013      0.0011
       206        -0.0000     -0.0000      0.1230      0.0151      0.0125
       207         0.1070      0.1086     -0.0000      0.0232      0.0192
       208        -0.0476      0.1559     -0.0000      0.0266      0.0221
       209        -0.0000     -0.0000     -0.2107      0.0444      0.0370
       210        -0.1069     -0.0194     -0.0000      0.0118      0.0099
       211        -0.0000     -0.0000     -0.0633      0.0040      0.0034
       212        -0.0081      0.1250     -0.0000      0.0157      0.0133
       213         0.0000     -0.0000     -0.1621      0.0263      0.0223
       214         0.0000     -0.0000      0.1610      0.0259      0.0222
       215        -0.1937      0.0800      0.0000      0.0439      0.0377
       216         0.0906      0.0413     -0.0000      0.0099      0.0086
       217        -0.1385     -0.1417      0.0000      0.0393      0.0340
       218         0.0000      0.0000      0.1190      0.0142      0.0123
       219        -0.1602      0.1050     -0.0000      0.0367      0.0319
       220         0.0000     -0.0000     -0.0937      0.0088      0.0077
       221        -0.0182      0.0272     -0.0000      0.0011      0.0009
       222         0.0000     -0.0000      0.0021      0.0000      0.0000
       223         0.0176      0.0661      0.0000      0.0047      0.0041
       224         0.1559     -0.0948      0.0000      0.0333      0.0294
       225        -0.0000     -0.0000      0.0144      0.0002      0.0002
       226        -0.1256     -0.0773     -0.0000      0.0217      0.0194
       227        -0.0000     -0.0000      0.1433      0.0205      0.0184
       228         0.0369      0.0322     -0.0000      0.0024      0.0021
       229         0.0000     -0.0000     -0.0059      0.0000      0.0000
       230        -0.0000      0.0000      0.0820      0.0067      0.0061
       231         0.0658      0.0017      0.0000      0.0043      0.0039
       232         0.0000      0.0000      0.0808      0.0065      0.0059
       233        -0.1234     -0.0057      0.0000      0.0153      0.0140
       234         0.1246     -0.1030      0.0000      0.0261      0.0240
       235        -0.0929     -0.0257      0.0000      0.0093      0.0086
       236        -0.0000     -0.0000     -0.0162      0.0003      0.0002
       237         0.0502     -0.0846      0.0000      0.0097      0.0090
       238        -0.0000      0.0000      0.2818      0.0794      0.0739
       239         0.0000     -0.0000     -0.0797      0.0063      0.0059
       240         0.0541     -0.0012      0.0000      0.0029      0.0027
       241         0.0000     -0.0000     -0.0809      0.0065      0.0061
       242         0.0399     -0.0764      0.0000      0.0074      0.0070
       243         0.0602     -0.0180     -0.0000      0.0040      0.0037
       244         0.0111     -0.1031      0.0000      0.0107      0.0102
       245        -0.0000      0.0000      0.0401      0.0016      0.0016
       246         0.0307     -0.0854      0.0000      0.0082      0.0080
       247         0.0519      0.0691     -0.0000      0.0075      0.0073
       248         0.0000     -0.0000     -0.0610      0.0037      0.0036
       249        -0.1215      0.0078     -0.0000      0.0148      0.0145
       250         0.0000      0.0000     -0.0083      0.0001      0.0001
       251         0.0358      0.0636      0.0000      0.0053      0.0053
       252        -0.0124      0.0797     -0.0000      0.0065      0.0065
       253         0.0702      0.0640     -0.0000      0.0090      0.0090
       254        -0.0233     -0.0364      0.0000      0.0019      0.0019
       255         0.0000      0.0000      0.0973      0.0095      0.0095
       256         0.1065     -0.0153      0.0000      0.0116      0.0117
       257         0.0674     -0.0285      0.0000      0.0054      0.0055
       258         0.0000     -0.0000      0.1312      0.0172      0.0177
       259         0.0974     -0.0147     -0.0000      0.0097      0.0100
       260        -0.0221      0.0283      0.0000      0.0013      0.0013
       261        -0.0000     -0.0000      0.0729      0.0053      0.0055
       262         0.0020     -0.0025      0.0000      0.0000      0.0000
       263        -0.0546      0.0737     -0.0000      0.0084      0.0090
       264        -0.2320      0.0632     -0.0000      0.0578      0.0619
       265         0.0000     -0.0000     -0.0137      0.0002      0.0002
       266        -0.0000     -0.0000      0.2827      0.0799      0.0865
       267        -0.0799     -0.1307     -0.0000      0.0234      0.0256
       268         0.0941      0.0937      0.0000      0.0176      0.0194
       269         0.0875      0.0194     -0.0000      0.0080      0.0088
       270         0.0000      0.0000     -0.0543      0.0029      0.0033
       271        -0.0000     -0.0000     -0.0495      0.0025      0.0028
       272         0.0276     -0.0687      0.0000      0.0055      0.0062
       273        -0.0000     -0.0000     -0.0991      0.0098      0.0113
       274         0.0000      0.0000      0.0347      0.0012      0.0014
       275        -0.0491     -0.1118      0.0000      0.0149      0.0173
       276        -0.1834     -0.2428      0.0000      0.0926      0.1086
       277         0.0543      0.0393     -0.0000      0.0045      0.0054
       278        -0.0000     -0.0000     -0.1338      0.0179      0.0214
       279        -0.0349      0.2996      0.0000      0.0910      0.1101
       280         0.0470      0.0235     -0.0000      0.0028      0.0034
       281        -0.0000     -0.0000     -0.0343      0.0012      0.0014
       282        -0.0842      0.1917      0.0000      0.0438      0.0542
       283        -0.0246     -0.0211      0.0000      0.0011      0.0013
       284        -0.0000     -0.0000      0.1427      0.0204      0.0254
       285         0.0000      0.0000     -0.0817      0.0067      0.0084
       286        -0.0857     -0.0512      0.0000      0.0100      0.0126
       287        -0.1827     -0.1493     -0.0000      0.0557      0.0707
       288         0.0000      0.0000     -0.2909      0.0846      0.1077
       289         0.1315      0.0416     -0.0000      0.0190      0.0243
       290        -0.2649     -0.0401     -0.0000      0.0718      0.0919
       291         0.0000      0.0000     -0.0598      0.0036      0.0046
       292         0.0000      0.0000     -0.0924      0.0085      0.0110
       293         0.0000      0.0000      0.0351      0.0012      0.0016
       294        -0.0100      0.1077      0.0000      0.0117      0.0151
       295        -0.0870      0.2261      0.0000      0.0587      0.0763
       296        -0.0000     -0.0000      0.1367      0.0187      0.0245
       297        -0.0036     -0.1478     -0.0000      0.0219      0.0287
       298        -0.0805      0.1028      0.0000      0.0170      0.0225
       299        -0.0000      0.0000     -0.0959      0.0092      0.0121
       300        -0.0000     -0.0000      0.1841      0.0339      0.0450
       301        -0.0000      0.0000      0.1483      0.0220      0.0293
       302         0.0440     -0.0684      0.0000      0.0066      0.0088
       303         0.1270      0.0501      0.0000      0.0186      0.0250
       304        -0.1983     -0.0178     -0.0000      0.0396      0.0534
       305        -0.0000     -0.0000      0.0930      0.0087      0.0118
       306        -0.0290      0.1009      0.0000      0.0110      0.0151
       307         0.2140     -0.0734     -0.0000      0.0512      0.0701
       308         0.2014     -0.0256      0.0000      0.0412      0.0567
       309         0.0000      0.0000     -0.0561      0.0032      0.0044
       310        -0.0000      0.0000     -0.1644      0.0270      0.0376
       311         0.0225     -0.0334      0.0000      0.0016      0.0023
       312        -0.0816     -0.0775     -0.0000      0.0127      0.0178
       313         0.0562     -0.0040      0.0000      0.0032      0.0045
[...]
      4   0.357246D-01  0.000000D+00 -0.334099D-01  0.000000D+00  0.000000D+00
      5   0.000000D+00 -0.151453D+00  0.000000D+00 -0.633696D-01  0.570356D-01
      6   0.000000D+00 -0.106456D+00  0.000000D+00  0.247379D-01  0.838894D-01
      7  -0.812455D-01  0.000000D+00  0.977826D-01  0.000000D+00  0.000000D+00
      8   0.100234D+00  0.000000D+00 -0.885364D-01  0.000000D+00  0.000000D+00
      9  -0.889208D-01  0.000000D+00 -0.602219D-01  0.000000D+00  0.000000D+00
     10   0.000000D+00 -0.546608D-01  0.000000D+00 -0.311140D+00  0.679298D-01
     11   0.000000D+00  0.912531D-01  0.000000D+00 -0.205881D+00  0.488579D-01
     12   0.000000D+00 -0.581456D+00  0.000000D+00 -0.176978D+00 -0.167112D+00
     13   0.000000D+00  0.486121D-01  0.000000D+00 -0.259357D+00  0.146817D+00
     14   0.000000D+00  0.910703D-01  0.000000D+00  0.332696D+00  0.110408D+00
     15  -0.176194D+00  0.000000D+00  0.179049D+00  0.000000D+00  0.000000D+00
     16  -0.266055D-01  0.000000D+00 -0.659081D-02  0.000000D+00  0.000000D+00
               396           397           398           399           400 
      1  -0.112635D+03 -0.112609D+03 -0.112591D+03 -0.112589D+03 -0.112573D+03
      2   0.000000D+00 -0.181762D-01  0.755892D-01 -0.527013D-01  0.000000D+00
      3   0.000000D+00  0.230437D-01 -0.888081D-02 -0.217361D-01  0.000000D+00
      4  -0.137998D-01  0.000000D+00  0.000000D+00  0.000000D+00 -0.134287D-01
      5   0.000000D+00  0.621525D-01 -0.184610D+00  0.169186D+00  0.000000D+00
      6   0.000000D+00 -0.628175D-01  0.173611D-01  0.689982D-01  0.000000D+00
      7   0.366964D-01  0.000000D+00  0.000000D+00  0.000000D+00  0.809850D-01
      8  -0.256139D+00  0.000000D+00  0.000000D+00  0.000000D+00 -0.152752D+00
      9   0.201346D-01  0.000000D+00  0.000000D+00  0.000000D+00 -0.412651D-01
     10   0.000000D+00  0.549953D-01  0.231913D-01  0.140923D+00  0.000000D+00
     11   0.000000D+00  0.265117D+00 -0.189921D-01 -0.954616D-01  0.000000D+00
     12   0.000000D+00  0.222367D+00 -0.557809D-01 -0.456466D+00  0.000000D+00
     13   0.000000D+00  0.312923D+00  0.209389D-01  0.102664D-01  0.000000D+00
     14   0.000000D+00 -0.190542D+00 -0.254932D+00 -0.648352D-01  0.000000D+00
     15  -0.237891D-02  0.000000D+00  0.000000D+00  0.000000D+00  0.194853D+00
     16  -0.475414D+00  0.000000D+00  0.000000D+00  0.000000D+00 -0.382225D+00
               401           402           403           404           405 
      1  -0.112562D+03 -0.112524D+03 -0.112498D+03 -0.112491D+03 -0.112476D+03
      2  -0.216700D-01  0.000000D+00 -0.691307D-03  0.000000D+00 -0.526425D-02
      3  -0.299096D-02  0.000000D+00 -0.721097D-02  0.000000D+00  0.216096D-01
      4   0.000000D+00 -0.494195D-01  0.000000D+00 -0.768405D-01  0.000000D+00
      5   0.977634D-01  0.000000D+00  0.223227D-01  0.000000D+00 -0.137565D-01
      6  -0.592605D-01  0.000000D+00  0.265481D-01  0.000000D+00 -0.691954D-01
      7   0.000000D+00  0.119652D+00  0.000000D+00  0.162615D+00  0.000000D+00
      8   0.000000D+00 -0.406447D-01  0.000000D+00 -0.195226D-01  0.000000D+00
      9   0.000000D+00 -0.118372D-01  0.000000D+00 -0.153286D-01  0.000000D+00
     10  -0.150606D-01  0.000000D+00  0.113907D+00  0.000000D+00 -0.920521D-01
     11   0.329263D-01  0.000000D+00 -0.895407D-01  0.000000D+00 -0.113628D+00
     12   0.209175D+00  0.000000D+00  0.613133D+00  0.000000D+00 -0.148853D+00
     13  -0.698411D+00  0.000000D+00 -0.150465D+00  0.000000D+00  0.406513D-01
     14  -0.374197D+00  0.000000D+00 -0.114038D+00  0.000000D+00  0.252203D+00
     15   0.000000D+00  0.154252D+00  0.000000D+00  0.468927D-01  0.000000D+00
     16   0.000000D+00  0.244785D-01  0.000000D+00  0.786452D-01  0.000000D+00
               406           407           408           409           410 
      1  -0.112472D+03 -0.112431D+03 -0.112406D+03 -0.112398D+03 -0.112391D+03
      2  -0.193392D-01 -0.122752D+00 -0.133333D-01  0.000000D+00  0.000000D+00
      3  -0.203782D-01 -0.120584D+00 -0.391061D-01  0.000000D+00  0.000000D+00
      4   0.000000D+00  0.000000D+00  0.000000D+00  0.614617D-02 -0.140174D-01
      5   0.828931D-01  0.340757D+00  0.133636D-01  0.000000D+00  0.000000D+00
      6   0.718901D-01  0.339892D+00  0.117931D+00  0.000000D+00  0.000000D+00
      7   0.000000D+00  0.000000D+00  0.000000D+00 -0.234892D-01  0.212620D-01
      8   0.000000D+00  0.000000D+00  0.000000D+00 -0.348960D+00 -0.331894D+00
      9   0.000000D+00  0.000000D+00  0.000000D+00 -0.849763D-02  0.824722D-02
     10   0.270699D+00  0.744788D+00 -0.197074D-02  0.000000D+00  0.000000D+00
     11   0.904592D-01  0.196212D+00 -0.181878D+00  0.000000D+00  0.000000D+00
     12  -0.385800D+00 -0.606576D+00  0.203828D+00  0.000000D+00  0.000000D+00
     13  -0.195324D+00 -0.853872D-01 -0.478373D-01  0.000000D+00  0.000000D+00
     14  -0.271369D+00 -0.528442D+00  0.779857D-01  0.000000D+00  0.000000D+00
     15   0.000000D+00  0.000000D+00  0.000000D+00  0.229646D+00  0.494055D-01
     16   0.000000D+00  0.000000D+00  0.000000D+00 -0.162554D+00 -0.275263D+00
               411           412           413           414           415 
      1  -0.112366D+03 -0.112336D+03 -0.112322D+03 -0.112320D+03 -0.112301D+03
      2   0.160351D+00 -0.316208D-01  0.370328D-01  0.000000D+00  0.000000D+00
      3  -0.103934D+00  0.619618D-02 -0.150883D+00  0.000000D+00  0.000000D+00
      4   0.000000D+00  0.000000D+00  0.000000D+00  0.989832D-01  0.857943D-01
      5  -0.478784D+00  0.142415D+00 -0.942074D-01  0.000000D+00  0.000000D+00
      6   0.298070D+00  0.100588D-01  0.435163D+00  0.000000D+00  0.000000D+00
      7   0.000000D+00  0.000000D+00  0.000000D+00 -0.271675D+00 -0.243726D+00
      8   0.000000D+00  0.000000D+00  0.000000D+00  0.804085D-01  0.684114D+00
      9   0.000000D+00  0.000000D+00  0.000000D+00  0.288402D-01  0.170695D-02
     10  -0.409755D+00  0.399511D+00 -0.536132D+00  0.000000D+00  0.000000D+00
     11  -0.149888D+00 -0.629377D-01 -0.309771D-01  0.000000D+00  0.000000D+00
     12  -0.127128D+01 -0.335883D+00 -0.926678D+00  0.000000D+00  0.000000D+00
     13   0.163072D+00  0.222446D+00  0.760922D-01  0.000000D+00  0.000000D+00
     14   0.330325D+00 -0.460082D+00  0.477905D+00  0.000000D+00  0.000000D+00
     15   0.000000D+00  0.000000D+00  0.000000D+00 -0.192756D-01 -0.105307D+00
     16   0.000000D+00  0.000000D+00  0.000000D+00  0.170030D+00  0.697127D+00
               416           417           418           419           420 
      1  -0.112285D+03 -0.112255D+03 -0.112255D+03 -0.112239D+03 -0.112237D+03
      2  -0.170464D+00  0.000000D+00  0.233529D-01 -0.148793D+00 -0.525874D-01
      3  -0.640633D-01  0.000000D+00  0.517813D-02  0.691847D-01  0.633286D-02
      4   0.000000D+00 -0.807549D-01  0.000000D+00  0.000000D+00  0.000000D+00
      5   0.504939D+00  0.000000D+00 -0.109079D+00  0.423222D+00  0.172368D+00
      6   0.210105D+00  0.000000D+00 -0.541456D-02 -0.208459D+00 -0.134969D-01
      7   0.000000D+00  0.237282D+00  0.000000D+00  0.000000D+00  0.000000D+00
      8   0.000000D+00 -0.987967D-01  0.000000D+00  0.000000D+00  0.000000D+00
      9   0.000000D+00  0.210922D-01  0.000000D+00  0.000000D+00  0.000000D+00
     10   0.290965D+00  0.000000D+00 -0.185728D+00  0.144653D+00  0.308044D+00
     11   0.244029D+00  0.000000D+00  0.241325D+00  0.637812D-01  0.174045D+00
     12  -0.160440D+01  0.000000D+00 -0.199244D+00  0.567446D+00 -0.685797D+00
     13  -0.153576D+00  0.000000D+00 -0.223469D-01 -0.436420D-03  0.776910D-01
     14  -0.361771D+00  0.000000D+00  0.174364D+00 -0.225034D-01 -0.360592D+00
     15   0.000000D+00 -0.143477D+00  0.000000D+00  0.000000D+00  0.000000D+00
     16   0.000000D+00 -0.309371D+00  0.000000D+00  0.000000D+00  0.000000D+00
               421           422           423           424           425 
      1  -0.112227D+03 -0.112225D+03 -0.112208D+03 -0.112193D+03 -0.112170D+03
      2   0.000000D+00 -0.145935D+00  0.000000D+00  0.000000D+00  0.000000D+00
      3   0.000000D+00 -0.892232D-01  0.000000D+00  0.000000D+00  0.000000D+00
      4  -0.160790D+00  0.000000D+00 -0.754134D-01  0.556203D-01 -0.109492D+00
      5   0.000000D+00  0.457778D+00  0.000000D+00  0.000000D+00  0.000000D+00
      6   0.000000D+00  0.292290D+00  0.000000D+00  0.000000D+00  0.000000D+00
      7   0.485231D+00  0.000000D+00  0.204019D+00 -0.192624D+00  0.321586D+00
      8  -0.760944D-01  0.000000D+00 -0.231556D+00  0.320507D+00 -0.558127D+00
      9  -0.640489D-01  0.000000D+00 -0.122658D-01  0.770352D-02 -0.141531D-01
     10   0.000000D+00  0.472851D+00  0.000000D+00  0.000000D+00  0.000000D+00
     11   0.000000D+00  0.166254D+00  0.000000D+00  0.000000D+00  0.000000D+00
     12   0.000000D+00 -0.547802D+00  0.000000D+00  0.000000D+00  0.000000D+00
     13   0.000000D+00 -0.594611D-02  0.000000D+00  0.000000D+00  0.000000D+00
     14   0.000000D+00 -0.402046D+00  0.000000D+00  0.000000D+00  0.000000D+00
     15   0.366147D+00  0.000000D+00  0.436405D-01 -0.209301D+00  0.462115D-01
     16   0.193794D+00  0.000000D+00 -0.277826D+00  0.322068D+00 -0.610589D+00
               426           427           428           429           430 
      1  -0.112161D+03 -0.112149D+03 -0.112142D+03 -0.112138D+03 -0.112114D+03
      2  -0.431804D-01  0.814845D-01  0.000000D+00  0.000000D+00 -0.334136D-01
      3   0.180004D-01 -0.714781D-01  0.000000D+00  0.000000D+00 -0.220140D-01
      4   0.000000D+00  0.000000D+00 -0.434742D-01  0.455794D-01  0.000000D+00
      5   0.131266D+00 -0.220512D+00  0.000000D+00  0.000000D+00  0.106889D+00
      6  -0.514322D-01  0.236538D+00  0.000000D+00  0.000000D+00  0.846154D-01
      7   0.000000D+00  0.000000D+00  0.106033D+00 -0.120860D+00  0.000000D+00
      8   0.000000D+00  0.000000D+00 -0.215492D-01  0.133430D+00  0.000000D+00
      9   0.000000D+00  0.000000D+00  0.408822D-02  0.374733D-01  0.000000D+00
     10  -0.785032D-01 -0.120196D-01  0.000000D+00  0.000000D+00 -0.318532D-01
     11   0.159748D+00 -0.127288D+00  0.000000D+00  0.000000D+00 -0.160070D+00
     12   0.680681D+00 -0.853342D+00  0.000000D+00  0.000000D+00 -0.337462D+00
     13  -0.109245D+00  0.123578D-01  0.000000D+00  0.000000D+00  0.216224D+00
     14  -0.512946D-01  0.186492D+00  0.000000D+00  0.000000D+00  0.238949D+00
     15   0.000000D+00  0.000000D+00 -0.149707D+00 -0.178508D+00  0.000000D+00
     16   0.000000D+00  0.000000D+00  0.198474D+00  0.208273D+00  0.000000D+00
               431           432           433           434           435 
      1  -0.112099D+03 -0.112089D+03 -0.112064D+03 -0.112051D+03 -0.112032D+03
      2   0.000000D+00 -0.140592D+00 -0.198227D-01  0.000000D+00  0.180202D+00
      3   0.000000D+00  0.144504D+00 -0.781093D-01  0.000000D+00 -0.742151D-01
      4  -0.111219D+00  0.000000D+00  0.000000D+00 -0.476352D-01  0.000000D+00
      5   0.000000D+00  0.458339D+00  0.702657D-01  0.000000D+00 -0.571548D+00
      6   0.000000D+00 -0.467411D+00  0.258055D+00  0.000000D+00  0.228549D+00
      7   0.339120D+00  0.000000D+00  0.000000D+00  0.125163D+00  0.000000D+00
      8  -0.410430D+00  0.000000D+00  0.000000D+00  0.321606D-02  0.000000D+00
      9  -0.342118D-01  0.000000D+00  0.000000D+00 -0.271470D-01  0.000000D+00
     10   0.000000D+00  0.649936D+00  0.297697D+00  0.000000D+00 -0.754720D+00
     11   0.000000D+00  0.254587D+00  0.668213D-01  0.000000D+00 -0.107692D+00
     12   0.000000D+00  0.179565D+01 -0.569695D-01  0.000000D+00 -0.441018D+00
     13   0.000000D+00 -0.182622D+00 -0.540576D-01  0.000000D+00  0.115026D+00
     14   0.000000D+00 -0.102617D+01 -0.169159D+00  0.000000D+00  0.833405D+00
     15   0.967468D-01  0.000000D+00  0.000000D+00  0.232314D+00  0.000000D+00
     16  -0.711657D+00  0.000000D+00  0.000000D+00 -0.239569D-01  0.000000D+00
               436           437           438           439           440 
      1  -0.112010D+03 -0.112001D+03 -0.111981D+03 -0.111959D+03 -0.111947D+03
      2   0.000000D+00  0.000000D+00 -0.217396D-01 -0.340140D-01  0.000000D+00
      3   0.000000D+00  0.000000D+00 -0.958953D-01  0.623557D-01  0.000000D+00
      4   0.143375D-01 -0.179319D+00  0.000000D+00  0.000000D+00  0.341964D+00
      5   0.000000D+00  0.000000D+00  0.432236D-01  0.972239D-01  0.000000D+00
      6   0.000000D+00  0.000000D+00  0.324533D+00 -0.226974D+00  0.000000D+00
      7  -0.380158D-01  0.550426D+00  0.000000D+00  0.000000D+00 -0.110914D+01
      8  -0.635724D-01 -0.569522D-02  0.000000D+00  0.000000D+00  0.161104D+01
      9   0.124382D-01 -0.327921D-01  0.000000D+00  0.000000D+00  0.801175D-01
     10   0.000000D+00  0.000000D+00 -0.553595D+00 -0.248121D+00  0.000000D+00
     11   0.000000D+00  0.000000D+00 -0.215294D+00  0.733025D-01  0.000000D+00
     12   0.000000D+00  0.000000D+00 -0.628623D+00  0.303375D+00  0.000000D+00
     13   0.000000D+00  0.000000D+00  0.175764D+00  0.881579D-02  0.000000D+00
     14   0.000000D+00  0.000000D+00  0.486143D+00  0.172355D+00  0.000000D+00
     15   0.371531D-01  0.112243D+00  0.000000D+00  0.000000D+00 -0.354962D+00
     16  -0.982866D-01 -0.131292D+00  0.000000D+00  0.000000D+00  0.173066D+01
               441           442           443           444           445 
      1  -0.111943D+03 -0.111907D+03 -0.111855D+03 -0.111818D+03 -0.111813D+03
      2   0.138934D+00  0.000000D+00 -0.106989D-01  0.000000D+00 -0.448163D-02
      3  -0.498311D-02  0.000000D+00  0.328691D-01  0.000000D+00 -0.114875D+00
      4   0.000000D+00 -0.736492D-01  0.000000D+00 -0.555026D-01  0.000000D+00
      5  -0.473939D+00  0.000000D+00  0.390590D-01  0.000000D+00  0.417091D-01
      6   0.184364D-01  0.000000D+00 -0.116071D+00  0.000000D+00  0.398338D+00
      7   0.000000D+00  0.226095D+00  0.000000D+00  0.190428D+00  0.000000D+00
      8   0.000000D+00 -0.173555D+00  0.000000D+00 -0.447975D+00  0.000000D+00
      9   0.000000D+00 -0.128470D-01  0.000000D+00 -0.175883D-01  0.000000D+00
     10  -0.589780D+00  0.000000D+00  0.330222D-01  0.000000D+00  0.371692D+00
     11  -0.264586D+00  0.000000D+00 -0.528856D-01  0.000000D+00  0.142858D+00
     12   0.176113D-01  0.000000D+00  0.116746D+00  0.000000D+00 -0.122100D+01
     13  -0.571027D-01  0.000000D+00  0.907306D-01  0.000000D+00  0.105587D-01
     14   0.907660D+00  0.000000D+00 -0.342756D-01  0.000000D+00 -0.345200D+00
     15   0.000000D+00  0.124367D+00  0.000000D+00 -0.714866D-01  0.000000D+00
     16   0.000000D+00 -0.402498D+00  0.000000D+00 -0.511419D+00  0.000000D+00
               446           447           448           449           450 
      1  -0.111794D+03 -0.111752D+03 -0.111737D+03 -0.111680D+03 -0.111620D+03
      2   0.000000D+00  0.331588D-02 -0.207445D-01  0.000000D+00  0.000000D+00
      3   0.000000D+00  0.310276D-01 -0.211682D+00  0.000000D+00  0.000000D+00
      4   0.887953D-01  0.000000D+00  0.000000D+00 -0.199772D-01 -0.642025D-01
      5   0.000000D+00 -0.110475D-01  0.740211D-01  0.000000D+00  0.000000D+00
      6   0.000000D+00 -0.934982D-01  0.776271D+00  0.000000D+00  0.000000D+00
      7  -0.294686D+00  0.000000D+00  0.000000D+00  0.570745D-01  0.214824D+00
      8   0.699331D+00  0.000000D+00  0.000000D+00  0.124145D+00 -0.254900D+00
      9   0.828740D-02  0.000000D+00  0.000000D+00 -0.855242D-02 -0.176384D-01
     10   0.000000D+00 -0.175863D+00  0.126711D+00  0.000000D+00  0.000000D+00
     11   0.000000D+00 -0.126042D+00  0.730936D-02  0.000000D+00  0.000000D+00
     12   0.000000D+00 -0.258390D+00 -0.165844D+01  0.000000D+00  0.000000D+00
     13   0.000000D+00  0.219817D+00  0.154521D-01  0.000000D+00  0.000000D+00
     14   0.000000D+00  0.224824D+00  0.158811D+00  0.000000D+00  0.000000D+00
     15   0.504796D-02  0.000000D+00  0.000000D+00  0.310945D+00 -0.255107D+00
     16   0.921151D+00  0.000000D+00  0.000000D+00  0.229650D+00  0.288178D-01
               451           452           453           454           455 
      1  -0.111607D+03 -0.111540D+03 -0.111535D+03 -0.111506D+03 -0.111443D+03
      2  -0.639291D-01 -0.101241D-02  0.000000D+00  0.000000D+00  0.180565D-01
      3   0.231471D-01  0.898534D-02  0.000000D+00  0.000000D+00 -0.117597D-01
      4   0.000000D+00  0.000000D+00 -0.145113D+00  0.187144D-01  0.000000D+00
      5   0.214244D+00  0.165334D-02  0.000000D+00  0.000000D+00 -0.758104D-01
      6  -0.895510D-01  0.160352D-01  0.000000D+00  0.000000D+00  0.660239D-01
      7   0.000000D+00  0.000000D+00  0.551024D+00 -0.593969D-01  0.000000D+00
      8   0.000000D+00  0.000000D+00 -0.754013D+00 -0.150148D+00  0.000000D+00
      9   0.000000D+00  0.000000D+00 -0.129091D-01  0.536886D-02  0.000000D+00
     10   0.271409D-01 -0.509815D-02  0.000000D+00  0.000000D+00 -0.255610D+00
     11  -0.120419D+00  0.772180D-01  0.000000D+00  0.000000D+00  0.562729D-01
     12   0.331503D+00 -0.129005D+01  0.000000D+00  0.000000D+00 -0.172675D+00
     13   0.173357D+00  0.166365D+00  0.000000D+00  0.000000D+00 -0.161222D+00
     14   0.566615D-01 -0.133952D-01  0.000000D+00  0.000000D+00  0.124119D+00
     15   0.000000D+00  0.000000D+00  0.250904D+00  0.114388D+00  0.000000D+00
     16   0.000000D+00  0.000000D+00 -0.664300D+00  0.543693D-01  0.000000D+00
               456           457           458           459           460 
      1  -0.111427D+03 -0.111315D+03 -0.111273D+03 -0.111261D+03 -0.111223D+03
      2   0.113115D+00  0.101887D+00  0.000000D+00  0.184012D-02  0.151224D+00
      3   0.166773D+00 -0.580175D-01  0.000000D+00  0.163635D-01  0.766951D-02
      4   0.000000D+00  0.000000D+00 -0.333358D-01  0.000000D+00  0.000000D+00
      5  -0.427448D+00 -0.398816D+00  0.000000D+00 -0.677353D-02 -0.593598D+00
      6  -0.666934D+00  0.253624D+00  0.000000D+00 -0.146866D-01 -0.335155D-01
      7   0.000000D+00  0.000000D+00  0.132681D+00  0.000000D+00  0.000000D+00
      8   0.000000D+00  0.000000D+00 -0.148110D+00  0.000000D+00  0.000000D+00
      9   0.000000D+00  0.000000D+00  0.531153D-02  0.000000D+00  0.000000D+00
     10  -0.554858D+00 -0.456071D+00  0.000000D+00 -0.152430D-03 -0.883900D+00
     11  -0.292076D+00 -0.268222D+00  0.000000D+00 -0.503345D-01 -0.442543D+00
     12   0.201222D+01 -0.668242D+00  0.000000D+00  0.135186D+00  0.234125D+00
     13   0.103833D+00  0.302932D-01  0.000000D+00 -0.248566D+00  0.236246D+00
     14   0.310664D+00  0.468857D+00  0.000000D+00  0.826276D-01  0.865064D+00
     15   0.000000D+00  0.000000D+00  0.124489D+00  0.000000D+00  0.000000D+00
     16   0.000000D+00  0.000000D+00 -0.120635D+00  0.000000D+00  0.000000D+00
               461           462 
      1  -0.111026D+03 -0.110765D+03
      2   0.277464D-01  0.353909D-01
      3   0.469860D-02  0.216420D-02
      4   0.000000D+00  0.000000D+00
      5  -0.107744D+00 -0.143749D+00
      6  -0.423086D-02  0.218039D-01
      7   0.000000D+00  0.000000D+00
      8   0.000000D+00  0.000000D+00
      9   0.000000D+00  0.000000D+00
     10  -0.131701D+00 -0.177727D+00
     11   0.462913D-02 -0.226541D+00
     12  -0.435393D+00  0.113151D-01
     13  -0.193029D-01  0.162913D+00
     14   0.176657D+00  0.888002D-01
     15   0.000000D+00  0.000000D+00
     16   0.000000D+00  0.000000D+00
 Unable to Open any file for archive entry.
 1\1\GINC-HEL12\SP\RM062X TD-FC\Gen\C1H4O1\SABYASACHI\21-Mar-2022\0\\#P
  TD(Nstates=10000) m062x/Gen SCF(maxcycles=100) Int(Grid=ultrafine)\\x
 GDB7_00001_tier4.com\\0,1\C,0,0.046419,0.658432,0.\O,0,0.046419,-0.751
 929,0.\H,0,-0.438905,1.073261,0.890797\H,0,-0.438905,1.073261,-0.89079
 7\H,0,1.087855,0.977571,0.\H,0,-0.859911,-1.059251,0.\\Version=EM64L-G
 16RevC.01\State=1-A'\HF=-115.5856723\RMSD=4.347e-09\PG=CS [SG(C1H2O1),
 X(H2)]\\@
 The archive entry for this job was punched.


 THERE'S SMALL CHOICE IN A BOWL OF ROTTEN APPLES.
                     SHAKESPEARE
 Job cpu time:       0 days  0 hours  4 minutes 20.3 seconds.
 Elapsed time:       0 days  0 hours  0 minutes 32.8 seconds.
 File lengths (MBytes):  RWF=    278 Int=      0 D2E=      0 Chk=     64 Scr=      1
 Normal termination of Gaussian 16 at Mon Mar 21 19:59:45 2022.
