 Entering Gaussian System, Link 0=g16
 Input=000016.com
 Output=000016.log
 Initial command:
 /home/sabyasachi/g16/l1.exe "/scratch/sabyasachi/PBS_7976117.helios/Gau-43783.inp" -scrdir="/scratch/sabyasachi/PBS_7976117.helios/"
 Entering Link 1 = /home/sabyasachi/g16/l1.exe PID=     43784.
  
 Copyright (c) 1988-2019, Gaussian, Inc.  All Rights Reserved.
  
 This is part of the Gaussian(R) 16 program.  It is based on
 the Gaussian(R) 09 system (copyright 2009, Gaussian, Inc.),
 the Gaussian(R) 03 system (copyright 2003, Gaussian, Inc.),
 the Gaussian(R) 98 system (copyright 1998, Gaussian, Inc.),
 the Gaussian(R) 94 system (copyright 1995, Gaussian, Inc.),
 the Gaussian 92(TM) system (copyright 1992, Gaussian, Inc.),
 the Gaussian 90(TM) system (copyright 1990, Gaussian, Inc.),
 the Gaussian 88(TM) system (copyright 1988, Gaussian, Inc.),
 the Gaussian 86(TM) system (copyright 1986, Carnegie Mellon
 University), and the Gaussian 82(TM) system (copyright 1983,
 Carnegie Mellon University). Gaussian is a federally registered
 trademark of Gaussian, Inc.
  
 This software contains proprietary and confidential information,
 including trade secrets, belonging to Gaussian, Inc.
  
 This software is provided under written license and may be
 used, copied, transmitted, or stored only in accord with that
 written license.
  
 The following legend is applicable only to US Government
 contracts under FAR:
  
                    RESTRICTED RIGHTS LEGEND
  
 Use, reproduction and disclosure by the US Government is
 subject to restrictions as set forth in subparagraphs (a)
 and (c) of the Commercial Computer Software - Restricted
 Rights clause in FAR 52.227-19.
  
 Gaussian, Inc.
 340 Quinnipiac St., Bldg. 40, Wallingford CT 06492
  
  
 ---------------------------------------------------------------
 Warning -- This program may not be used in any manner that
 competes with the business of Gaussian, Inc. or will provide
 assistance to any competitor of Gaussian, Inc.  The licensee
 of this program is prohibited from giving any competitor of
 Gaussian, Inc. access to this program.  By using this program,
 the user acknowledges that Gaussian, Inc. is engaged in the
 business of creating and licensing software in the field of
 computational chemistry and represents and warrants to the
 licensee that it is not a competitor of Gaussian, Inc. and that
 it will not use this program in any manner prohibited above.
 ---------------------------------------------------------------
  

 Cite this work as:
 Gaussian 16, Revision C.01,
 M. J. Frisch, G. W. Trucks, H. B. Schlegel, G. E. Scuseria, 
 M. A. Robb, J. R. Cheeseman, G. Scalmani, V. Barone, 
 G. A. Petersson, H. Nakatsuji, X. Li, M. Caricato, A. V. Marenich, 
 J. Bloino, B. G. Janesko, R. Gomperts, B. Mennucci, H. P. Hratchian, 
 J. V. Ortiz, A. F. Izmaylov, J. L. Sonnenberg, D. Williams-Young, 
 F. Ding, F. Lipparini, F. Egidi, J. Goings, B. Peng, A. Petrone, 
 T. Henderson, D. Ranasinghe, V. G. Zakrzewski, J. Gao, N. Rega, 
 G. Zheng, W. Liang, M. Hada, M. Ehara, K. Toyota, R. Fukuda, 
 J. Hasegawa, M. Ishida, T. Nakajima, Y. Honda, O. Kitao, H. Nakai, 
 T. Vreven, K. Throssell, J. A. Montgomery, Jr., J. E. Peralta, 
 F. Ogliaro, M. J. Bearpark, J. J. Heyd, E. N. Brothers, K. N. Kudin, 
 V. N. Staroverov, T. A. Keith, R. Kobayashi, J. Normand, 
 K. Raghavachari, A. P. Rendell, J. C. Burant, S. S. Iyengar, 
 J. Tomasi, M. Cossi, J. M. Millam, M. Klene, C. Adamo, R. Cammi, 
 J. W. Ochterski, R. L. Martin, K. Morokuma, O. Farkas, 
 J. B. Foresman, and D. J. Fox, Gaussian, Inc., Wallingford CT, 2019.
 
 ******************************************
 Gaussian 16:  EM64L-G16RevC.01  3-Jul-2019
                21-Mar-2022 
 ******************************************
 %mem=64gb
 %nproc=8
 Will use up to    8 processors via shared memory.
 ---------------------------------------------------------------------
 #P TD(Nstates=10000) m062x/Gen SCF(maxcycles=100) Int(Grid=ultrafine)
 ---------------------------------------------------------------------
 1/38=1,172=1/1;
 2/12=2,17=6,18=5,40=1/2;
 3/5=7,11=9,25=1,30=1,74=-55,75=-5/1,2,3,8;
 4//1;
 5/5=2,7=100,38=5/2;
 8/6=1,10=1,108=10000/1;
 9/41=10000,42=1,70=2/14;
 6/7=2,8=2,9=2,10=2/1;
 99/5=1,9=1/99;
 Leave Link    1 at Mon Mar 21 20:02:12 2022, MaxMem=  8589934592 cpu:               0.4 elap:               0.1
 (Enter /home/sabyasachi/g16/l101.exe)
 ---------------------
 xGDB7_00001_tier4.com
 ---------------------
 Symbolic Z-matrix:
 Charge =  0 Multiplicity = 1
 6                    -1.20842  -0.23907  -0.02192 
 6                     0.08389   0.55345   0.04673 
 8                     1.23347  -0.256    -0.10586 
 1                    -2.072     0.42514   0.0517 
 1                    -1.27067  -0.95776   0.79973 
 1                    -1.27063  -0.78828  -0.96233 
 1                     0.13003   1.1192    0.98611 
 1                     0.12595   1.27703  -0.76855 
 1                     1.23675  -0.91361   0.59134 
 
 ITRead=  0  0  0  0  0  0  0  0  0
 MicOpt= -1 -1 -1 -1 -1 -1 -1 -1 -1
 NAtoms=      9 NQM=        9 NQMF=       0 NMMI=      0 NMMIF=      0
                NMic=       0 NMicF=      0.
                    Isotopes and Nuclear Properties:
 (Nuclear quadrupole moments (NQMom) in fm**2, nuclear magnetic moments (NMagM)
  in nuclear magnetons)

  Atom         1           2           3           4           5           6           7           8           9
 IAtWgt=          12          12          16           1           1           1           1           1           1
 AtmWgt=  12.0000000  12.0000000  15.9949146   1.0078250   1.0078250   1.0078250   1.0078250   1.0078250   1.0078250
 NucSpn=           0           0           0           1           1           1           1           1           1
 AtZEff=  -0.0000000  -0.0000000  -0.0000000  -0.0000000  -0.0000000  -0.0000000  -0.0000000  -0.0000000  -0.0000000
 NQMom=    0.0000000   0.0000000   0.0000000   0.0000000   0.0000000   0.0000000   0.0000000   0.0000000   0.0000000
 NMagM=    0.0000000   0.0000000   0.0000000   2.7928460   2.7928460   2.7928460   2.7928460   2.7928460   2.7928460
 AtZNuc=   6.0000000   6.0000000   8.0000000   1.0000000   1.0000000   1.0000000   1.0000000   1.0000000   1.0000000
 Leave Link  101 at Mon Mar 21 20:02:12 2022, MaxMem=  8589934592 cpu:               0.7 elap:               0.1
 (Enter /home/sabyasachi/g16/l202.exe)
                          Input orientation:                          
 ---------------------------------------------------------------------
 Center     Atomic      Atomic             Coordinates (Angstroms)
 Number     Number       Type             X           Y           Z
 ---------------------------------------------------------------------
      1          6           0       -1.208422   -0.239069   -0.021917
      2          6           0        0.083893    0.553452    0.046734
      3          8           0        1.233467   -0.256002   -0.105864
      4          1           0       -2.071999    0.425136    0.051700
      5          1           0       -1.270670   -0.957756    0.799731
      6          1           0       -1.270625   -0.788280   -0.962327
      7          1           0        0.130030    1.119197    0.986112
      8          1           0        0.125952    1.277026   -0.768547
      9          1           0        1.236751   -0.913605    0.591341
 ---------------------------------------------------------------------
                    Distance matrix (angstroms):
                    1          2          3          4          5
     1  C    0.000000
     2  C    1.517524   0.000000
     3  O    2.443390   1.414221   0.000000
     4  H    1.091949   2.159713   3.378592   0.000000
     5  H    1.093385   2.164624   2.753773   1.764672   0.000000
     6  H    1.090813   2.157120   2.699505   1.772803   1.770189
     7  H    2.156957   1.097555   2.073923   2.490738   2.512057
     8  H    2.153266   1.090876   2.003974   2.495899   3.066643
     9  H    2.609589   1.943691   0.958409   3.609885   2.516453
                    6          7          8          9
     6  H    0.000000
     7  H    3.065407   0.000000
     8  H    2.500693   1.761748   0.000000
     9  H    2.952376   2.347969   2.807496   0.000000
 Stoichiometry    C2H6O
 Framework group  C1[X(C2H6O)]
 Deg. of freedom    21
 Full point group                 C1      NOp   1
 Largest Abelian subgroup         C1      NOp   1
 Largest concise Abelian subgroup C1      NOp   1
                         Standard orientation:                         
 ---------------------------------------------------------------------
 Center     Atomic      Atomic             Coordinates (Angstroms)
 Number     Number       Type             X           Y           Z
 ---------------------------------------------------------------------
      1          6           0       -1.208422   -0.239069   -0.021917
      2          6           0        0.083893    0.553452    0.046734
      3          8           0        1.233467   -0.256002   -0.105864
      4          1           0       -2.071999    0.425135    0.051700
      5          1           0       -1.270670   -0.957756    0.799731
      6          1           0       -1.270625   -0.788280   -0.962327
      7          1           0        0.130030    1.119197    0.986112
      8          1           0        0.125951    1.277026   -0.768547
      9          1           0        1.236751   -0.913605    0.591341
 ---------------------------------------------------------------------
 Rotational constants (GHZ):          34.6666409           9.2583988           8.1755823
 Leave Link  202 at Mon Mar 21 20:02:12 2022, MaxMem=  8589934592 cpu:               0.1 elap:               0.0
 (Enter /home/sabyasachi/g16/l301.exe)
 General basis read from cards:  (5D, 7F)
 Centers:       4      5      6      7      8      9
 S 3 1.00
     Exponent=  1.3010701000D+01 Coefficients=  1.9682158000D-02
     Exponent=  1.9622572000D+00 Coefficients=  1.3796524000D-01
     Exponent=  4.4453796000D-01 Coefficients=  4.7831935000D-01
 S 1 1.00
     Exponent=  1.2194962000D-01 Coefficients=  1.0000000000D+00
 P 1 1.00
     Exponent=  8.0000000000D-01 Coefficients=  1.0000000000D+00
 P 1 1.00
     Exponent=  1.1704099050D-01 Coefficients=  1.0000000000D+00
 ****
 Centers:       1      2
 S 5 1.00
     Exponent=  1.2384016938D+03 Coefficients=  5.4568832082D-03
     Exponent=  1.8629004992D+02 Coefficients=  4.0638409211D-02
     Exponent=  4.2251176346D+01 Coefficients=  1.8025593888D-01
     Exponent=  1.1676557932D+01 Coefficients=  4.6315121755D-01
     Exponent=  3.5930506482D+00 Coefficients=  4.4087173314D-01
 S 1 1.00
     Exponent=  4.0245147363D-01 Coefficients=  1.0000000000D+00
 S 1 1.00
     Exponent=  1.3090182668D-01 Coefficients=  1.0000000000D+00
 S 1 1.00
     Exponent=  6.7053540256D-02 Coefficients=  1.0000000000D+00
 P 3 1.00
     Exponent=  9.4680970621D+00 Coefficients=  3.8387871728D-02
     Exponent=  2.0103545142D+00 Coefficients=  2.1117025112D-01
     Exponent=  5.4771004707D-01 Coefficients=  5.1328172114D-01
 P 1 1.00
     Exponent=  1.5268613795D-01 Coefficients=  1.0000000000D+00
 D 1 1.00
     Exponent=  8.0000000000D-01 Coefficients=  1.0000000000D+00
 D 1 1.00
     Exponent=  1.1713185140D-01 Coefficients=  1.0000000000D+00
 ****
 Centers:       3
 S 5 1.00
     Exponent=  2.2661767785D+03 Coefficients= -5.3431809926D-03
     Exponent=  3.4087010191D+02 Coefficients= -3.9890039230D-02
     Exponent=  7.7363135167D+01 Coefficients= -1.7853911985D-01
     Exponent=  2.1479644940D+01 Coefficients= -4.6427684959D-01
     Exponent=  6.6589433124D+00 Coefficients= -4.4309745172D-01
 S 1 1.00
     Exponent=  8.0975975668D-01 Coefficients=  1.0000000000D+00
 S 1 1.00
     Exponent=  2.5530772234D-01 Coefficients=  1.0000000000D+00
 S 1 1.00
     Exponent=  7.6572453250D-02 Coefficients=  1.0000000000D+00
 P 3 1.00
     Exponent=  1.7721504317D+01 Coefficients=  4.3394573193D-02
     Exponent=  3.8635505440D+00 Coefficients=  2.3094120765D-01
     Exponent=  1.0480920883D+00 Coefficients=  5.1375311064D-01
 P 1 1.00
     Exponent=  2.7641544411D-01 Coefficients=  1.0000000000D+00
 P 1 1.00
     Exponent=  6.9002276350D-02 Coefficients=  1.0000000000D+00
 D 1 1.00
     Exponent=  1.2000000000D+00 Coefficients=  1.0000000000D+00
 D 1 1.00
     Exponent=  1.7992024323D-01 Coefficients=  1.0000000000D+00
 ****
 Ernie: Thresh=  0.10000D-02 Tol=  0.10000D-05 Strict=F.
 There are   117 symmetry adapted cartesian basis functions of A   symmetry.
 There are   111 symmetry adapted basis functions of A   symmetry.
   111 basis functions,   159 primitive gaussians,   117 cartesian basis functions
    13 alpha electrons       13 beta electrons
       nuclear repulsion energy        81.9103171642 Hartrees.
 IExCor= 4336 DFT=T Ex+Corr=M062X ExCW=0 ScaHFX=  0.540000
 ScaDFX=  1.000000  1.000000  1.000000  1.000000 ScalE2=  1.000000  1.000000
 IRadAn=      5 IRanWt=     -1 IRanGd=            0 ICorTp=0 IEmpDi=  4
 NAtoms=    9 NActive=    9 NUniq=    9 SFac= 1.00D+00 NAtFMM=   60 NAOKFM=F Big=F
 Integral buffers will be    131072 words long.
 Regular integral format.
 Two-electron integral symmetry is turned on.
 Leave Link  301 at Mon Mar 21 20:02:13 2022, MaxMem=  8589934592 cpu:               0.5 elap:               0.1
 (Enter /home/sabyasachi/g16/l302.exe)
 NPDir=0 NMtPBC=     1 NCelOv=     1 NCel=       1 NClECP=     1 NCelD=      1
         NCelK=      1 NCelE2=     1 NClLst=     1 CellRange=     0.0.
 One-electron integrals computed using PRISM.
 One-electron integral symmetry used in STVInt
 NBasis=   111 RedAO= T EigKep=  3.00D-04  NBF=   111
 NBsUse=   111 1.00D-06 EigRej= -1.00D+00 NBFU=   111
 Precomputing XC quadrature grid using
 IXCGrd= 4 IRadAn=           5 IRanWt=          -1 IRanGd=           0 AccXCQ= 0.00D+00.
 Generated NRdTot=       0 NPtTot=           0 NUsed=           0 NTot=          32
 NSgBfM=   117   117   117   117   117 MxSgAt=     9 MxSgA2=     9.
 Leave Link  302 at Mon Mar 21 20:02:13 2022, MaxMem=  8589934592 cpu:               1.1 elap:               0.2
 (Enter /home/sabyasachi/g16/l303.exe)
 DipDrv:  MaxL=1.
 Leave Link  303 at Mon Mar 21 20:02:13 2022, MaxMem=  8589934592 cpu:               0.2 elap:               0.0
 (Enter /home/sabyasachi/g16/l308.exe)
 Leave Link  308 at Mon Mar 21 20:02:13 2022, MaxMem=  8589934592 cpu:               0.2 elap:               0.1
 (Enter /home/sabyasachi/g16/l401.exe)
 ExpMin= 6.71D-02 ExpMax= 2.27D+03 ExpMxC= 3.41D+02 IAcc=3 IRadAn=         5 AccDes= 0.00D+00
 Harris functional with IExCor= 1009 and IRadAn=       5 diagonalized for initial guess.
 HarFok:  IExCor= 1009 AccDes= 0.00D+00 IRadAn=         5 IDoV= 1 UseB2=F ITyADJ=14
 ICtDFT=  3500011 ScaDFX=  1.000000  1.000000  1.000000  1.000000
 FoFCou: FMM=F IPFlag=           0 FMFlag=      100000 FMFlg1=           0
         NFxFlg=           0 DoJE=T BraDBF=F KetDBF=T FulRan=T
         wScrn=  0.000000 ICntrl=       500 IOpCl=  0 I1Cent=   200000004 NGrid=           0
         NMat0=    1 NMatS0=      1 NMatT0=    0 NMatD0=    1 NMtDS0=    0 NMtDT0=    0
 Petite list used in FoFCou.
 Harris En= -154.830272887315    
 JPrj=0 DoOrth=F DoCkMO=F.
 Leave Link  401 at Mon Mar 21 20:02:13 2022, MaxMem=  8589934592 cpu:               3.5 elap:               0.5
 (Enter /home/sabyasachi/g16/l502.exe)
 Keep R1 ints in memory in canonical form, NReq=26875892.
 FoFCou: FMM=F IPFlag=           0 FMFlag=           0 FMFlg1=           0
         NFxFlg=           0 DoJE=F BraDBF=F KetDBF=F FulRan=T
         wScrn=  0.000000 ICntrl=       600 IOpCl=  0 I1Cent=           0 NGrid=           0
         NMat0=    1 NMatS0=   6216 NMatT0=    0 NMatD0=    1 NMtDS0=    0 NMtDT0=    0
 Symmetry not used in FoFCou.
 Two-electron integral symmetry not used.
 Closed shell SCF:
 Using DIIS extrapolation, IDIIS=  1040.
 NGot=  8589934592 LenX=  8570582328 LenY=  8570568198
 Requested convergence on RMS density matrix=1.00D-08 within 100 cycles.
 Requested convergence on MAX density matrix=1.00D-06.
 Requested convergence on             energy=1.00D-06.
 No special actions if energy rises.
 Integral accuracy reduced to 1.0D-05 until final iterations.

 Cycle   1  Pass 0  IDiag  1:
 E= -154.743455596845    
 DIIS: error= 2.63D-02 at cycle   1 NSaved=   1.
 NSaved= 1 IEnMin= 1 EnMin= -154.743455596845     IErMin= 1 ErrMin= 2.63D-02
 ErrMax= 2.63D-02  0.00D+00 EMaxC= 1.00D-01 BMatC= 1.18D-01 BMatP= 1.18D-01
 IDIUse=3 WtCom= 7.37D-01 WtEn= 2.63D-01
 Coeff-Com:  0.100D+01
 Coeff-En:   0.100D+01
 Coeff:      0.100D+01
 Gap=     0.314 Goal=   None    Shift=    0.000
 GapD=    0.314 DampG=1.000 DampE=0.500 DampFc=0.5000 IDamp=-1.
 Damping current iteration by 5.00D-01
 RMSDP=6.41D-03 MaxDP=1.57D-01              OVMax= 1.35D-01

 Cycle   2  Pass 0  IDiag  1:
 E= -154.799857989128     Delta-E=       -0.056402392283 Rises=F Damp=T
 DIIS: error= 6.37D-03 at cycle   2 NSaved=   2.
 NSaved= 2 IEnMin= 2 EnMin= -154.799857989128     IErMin= 2 ErrMin= 6.37D-03
 ErrMax= 6.37D-03  0.00D+00 EMaxC= 1.00D-01 BMatC= 5.98D-03 BMatP= 1.18D-01
 IDIUse=3 WtCom= 9.36D-01 WtEn= 6.37D-02
 Coeff-Com: -0.472D-01 0.105D+01
 Coeff-En:   0.000D+00 0.100D+01
 Coeff:     -0.442D-01 0.104D+01
 Gap=     0.395 Goal=   None    Shift=    0.000
 RMSDP=1.50D-03 MaxDP=3.13D-02 DE=-5.64D-02 OVMax= 7.10D-02

 Cycle   3  Pass 0  IDiag  1:
 E= -154.854125537510     Delta-E=       -0.054267548382 Rises=F Damp=F
 DIIS: error= 2.08D-03 at cycle   3 NSaved=   3.
 NSaved= 3 IEnMin= 3 EnMin= -154.854125537510     IErMin= 3 ErrMin= 2.08D-03
 ErrMax= 2.08D-03  0.00D+00 EMaxC= 1.00D-01 BMatC= 1.58D-03 BMatP= 5.98D-03
 IDIUse=3 WtCom= 9.79D-01 WtEn= 2.08D-02
 Coeff-Com: -0.474D-01 0.325D+00 0.723D+00
 Coeff-En:   0.000D+00 0.000D+00 0.100D+01
 Coeff:     -0.464D-01 0.318D+00 0.729D+00
 Gap=     0.384 Goal=   None    Shift=    0.000
 RMSDP=5.01D-04 MaxDP=9.96D-03 DE=-5.43D-02 OVMax= 1.09D-02

 Cycle   4  Pass 0  IDiag  1:
 E= -154.855012078207     Delta-E=       -0.000886540697 Rises=F Damp=F
 DIIS: error= 1.07D-03 at cycle   4 NSaved=   4.
 NSaved= 4 IEnMin= 4 EnMin= -154.855012078207     IErMin= 4 ErrMin= 1.07D-03
 ErrMax= 1.07D-03  0.00D+00 EMaxC= 1.00D-01 BMatC= 3.59D-04 BMatP= 1.58D-03
 IDIUse=3 WtCom= 9.89D-01 WtEn= 1.07D-02
 Coeff-Com: -0.145D-01 0.452D-01 0.342D+00 0.627D+00
 Coeff-En:   0.000D+00 0.000D+00 0.162D+00 0.838D+00
 Coeff:     -0.143D-01 0.447D-01 0.340D+00 0.630D+00
 Gap=     0.385 Goal=   None    Shift=    0.000
 RMSDP=1.69D-04 MaxDP=3.77D-03 DE=-8.87D-04 OVMax= 3.73D-03

 Cycle   5  Pass 0  IDiag  1:
 E= -154.855306049944     Delta-E=       -0.000293971737 Rises=F Damp=F
 DIIS: error= 1.96D-04 at cycle   5 NSaved=   5.
 NSaved= 5 IEnMin= 5 EnMin= -154.855306049944     IErMin= 5 ErrMin= 1.96D-04
 ErrMax= 1.96D-04  0.00D+00 EMaxC= 1.00D-01 BMatC= 4.47D-06 BMatP= 3.59D-04
 IDIUse=3 WtCom= 9.98D-01 WtEn= 1.96D-03
 Coeff-Com: -0.109D-02-0.242D-02 0.509D-01 0.160D+00 0.793D+00
 Coeff-En:   0.000D+00 0.000D+00 0.000D+00 0.000D+00 0.100D+01
 Coeff:     -0.109D-02-0.241D-02 0.508D-01 0.160D+00 0.793D+00
 Gap=     0.385 Goal=   None    Shift=    0.000
 RMSDP=2.77D-05 MaxDP=3.55D-04 DE=-2.94D-04 OVMax= 4.47D-04

 Cycle   6  Pass 0  IDiag  1:
 E= -154.855309896861     Delta-E=       -0.000003846917 Rises=F Damp=F
 DIIS: error= 1.96D-05 at cycle   6 NSaved=   6.
 NSaved= 6 IEnMin= 6 EnMin= -154.855309896861     IErMin= 6 ErrMin= 1.96D-05
 ErrMax= 1.96D-05  0.00D+00 EMaxC= 1.00D-01 BMatC= 1.08D-07 BMatP= 4.47D-06
 IDIUse=1 WtCom= 1.00D+00 WtEn= 0.00D+00
 Coeff-Com:  0.417D-03-0.178D-02-0.289D-02 0.838D-02 0.124D+00 0.872D+00
 Coeff:      0.417D-03-0.178D-02-0.289D-02 0.838D-02 0.124D+00 0.872D+00
 Gap=     0.385 Goal=   None    Shift=    0.000
 RMSDP=6.77D-06 MaxDP=1.08D-04 DE=-3.85D-06 OVMax= 1.15D-04

 Initial convergence to 1.0D-05 achieved.  Increase integral accuracy.
 Cycle   7  Pass 1  IDiag  1:
 E= -154.855295405639     Delta-E=        0.000014491222 Rises=F Damp=F
 DIIS: error= 1.35D-05 at cycle   1 NSaved=   1.
 NSaved= 1 IEnMin= 1 EnMin= -154.855295405639     IErMin= 1 ErrMin= 1.35D-05
 ErrMax= 1.35D-05  0.00D+00 EMaxC= 1.00D-01 BMatC= 6.54D-08 BMatP= 6.54D-08
 IDIUse=1 WtCom= 1.00D+00 WtEn= 0.00D+00
 Coeff-Com:  0.100D+01
 Coeff:      0.100D+01
 Gap=     0.385 Goal=   None    Shift=    0.000
 RMSDP=6.77D-06 MaxDP=1.08D-04 DE= 1.45D-05 OVMax= 7.25D-05

 Cycle   8  Pass 1  IDiag  1:
 E= -154.855295458521     Delta-E=       -0.000000052882 Rises=F Damp=F
 DIIS: error= 8.71D-06 at cycle   2 NSaved=   2.
 NSaved= 2 IEnMin= 2 EnMin= -154.855295458521     IErMin= 2 ErrMin= 8.71D-06
 ErrMax= 8.71D-06  0.00D+00 EMaxC= 1.00D-01 BMatC= 1.45D-08 BMatP= 6.54D-08
 IDIUse=1 WtCom= 1.00D+00 WtEn= 0.00D+00
 Coeff-Com:  0.253D+00 0.747D+00
 Coeff:      0.253D+00 0.747D+00
 Gap=     0.385 Goal=   None    Shift=    0.000
 RMSDP=2.02D-06 MaxDP=5.14D-05 DE=-5.29D-08 OVMax= 3.40D-05

 Cycle   9  Pass 1  IDiag  1:
 E= -154.855295470279     Delta-E=       -0.000000011758 Rises=F Damp=F
 DIIS: error= 3.07D-06 at cycle   3 NSaved=   3.
 NSaved= 3 IEnMin= 3 EnMin= -154.855295470279     IErMin= 3 ErrMin= 3.07D-06
 ErrMax= 3.07D-06  0.00D+00 EMaxC= 1.00D-01 BMatC= 2.33D-09 BMatP= 1.45D-08
 IDIUse=1 WtCom= 1.00D+00 WtEn= 0.00D+00
 Coeff-Com: -0.408D-01 0.263D+00 0.778D+00
 Coeff:     -0.408D-01 0.263D+00 0.778D+00
 Gap=     0.385 Goal=   None    Shift=    0.000
 RMSDP=7.09D-07 MaxDP=1.58D-05 DE=-1.18D-08 OVMax= 1.16D-05

 Cycle  10  Pass 1  IDiag  1:
 E= -154.855295472536     Delta-E=       -0.000000002256 Rises=F Damp=F
 DIIS: error= 2.28D-07 at cycle   4 NSaved=   4.
 NSaved= 4 IEnMin= 4 EnMin= -154.855295472536     IErMin= 4 ErrMin= 2.28D-07
 ErrMax= 2.28D-07  0.00D+00 EMaxC= 1.00D-01 BMatC= 1.25D-11 BMatP= 2.33D-09
 IDIUse=1 WtCom= 1.00D+00 WtEn= 0.00D+00
 Coeff-Com: -0.894D-02 0.296D-01 0.111D+00 0.868D+00
 Coeff:     -0.894D-02 0.296D-01 0.111D+00 0.868D+00
 Gap=     0.385 Goal=   None    Shift=    0.000
 RMSDP=7.27D-08 MaxDP=1.13D-06 DE=-2.26D-09 OVMax= 1.35D-06

 Cycle  11  Pass 1  IDiag  1:
 E= -154.855295472551     Delta-E=       -0.000000000015 Rises=F Damp=F
 DIIS: error= 1.19D-07 at cycle   5 NSaved=   5.
 NSaved= 5 IEnMin= 5 EnMin= -154.855295472551     IErMin= 5 ErrMin= 1.19D-07
 ErrMax= 1.19D-07  0.00D+00 EMaxC= 1.00D-01 BMatC= 4.39D-12 BMatP= 1.25D-11
 IDIUse=1 WtCom= 1.00D+00 WtEn= 0.00D+00
 Coeff-Com:  0.503D-03-0.138D-01-0.318D-01 0.357D+00 0.688D+00
 Coeff:      0.503D-03-0.138D-01-0.318D-01 0.357D+00 0.688D+00
 Gap=     0.385 Goal=   None    Shift=    0.000
 RMSDP=2.28D-08 MaxDP=5.70D-07 DE=-1.50D-11 OVMax= 6.54D-07

 Cycle  12  Pass 1  IDiag  1:
 E= -154.855295472554     Delta-E=       -0.000000000003 Rises=F Damp=F
 DIIS: error= 4.09D-08 at cycle   6 NSaved=   6.
 NSaved= 6 IEnMin= 6 EnMin= -154.855295472554     IErMin= 6 ErrMin= 4.09D-08
 ErrMax= 4.09D-08  0.00D+00 EMaxC= 1.00D-01 BMatC= 5.22D-13 BMatP= 4.39D-12
 IDIUse=1 WtCom= 1.00D+00 WtEn= 0.00D+00
 Coeff-Com:  0.106D-02-0.849D-02-0.236D-01 0.513D-01 0.301D+00 0.678D+00
 Coeff:      0.106D-02-0.849D-02-0.236D-01 0.513D-01 0.301D+00 0.678D+00
 Gap=     0.385 Goal=   None    Shift=    0.000
 RMSDP=8.08D-09 MaxDP=1.50D-07 DE=-3.47D-12 OVMax= 2.05D-07

 SCF Done:  E(RM062X) =  -154.855295473     A.U. after   12 cycles
            NFock= 12  Conv=0.81D-08     -V/T= 2.0100
 KE= 1.533150816220D+02 PE=-5.248852703286D+02 EE= 1.348045760699D+02
 Leave Link  502 at Mon Mar 21 20:02:19 2022, MaxMem=  8589934592 cpu:              45.3 elap:               6.0
 (Enter /home/sabyasachi/g16/l801.exe)
 DoSCS=F DFT=T ScalE2(SS,OS)=  1.000000  1.000000
 ExpMin= 6.71D-02 ExpMax= 2.27D+03 ExpMxC= 3.41D+02 IAcc=3 IRadAn=         5 AccDes= 0.00D+00
 HarFok:  IExCor=  205 AccDes= 0.00D+00 IRadAn=         5 IDoV=-2 UseB2=F ITyADJ=14
 ICtDFT= 12500011 ScaDFX=  1.000000  1.000000  1.000000  1.000000
 Largest valence mixing into a core orbital is  9.59D-05
 Largest core mixing into a valence orbital is  3.06D-05
 Range of M.O.s used for correlation:     4   111
 NBasis=   111 NAE=    13 NBE=    13 NFC=     3 NFV=     0
 NROrb=    108 NOA=    10 NOB=    10 NVA=    98 NVB=    98

 **** Warning!!: The largest alpha MO coefficient is  0.22164640D+02

 Leave Link  801 at Mon Mar 21 20:02:19 2022, MaxMem=  8589934592 cpu:               0.6 elap:               0.1
 (Enter /home/sabyasachi/g16/l914.exe)
 RHF ground state
 Keep R1, R2, and R3 ints in memory in canonical form, NReq=1127673256.
 FoFCou: FMM=F IPFlag=           0 FMFlag=           0 FMFlg1=           0
         NFxFlg=           0 DoJE=F BraDBF=F KetDBF=F FulRan=T
         wScrn=  0.000000 ICntrl=       600 IOpCl=  0 I1Cent=           0 NGrid=           0
         NMat0=    1 NMatS0=   6216 NMatT0=    0 NMatD0=    1 NMtDS0=    0 NMtDT0=    0
 Symmetry not used in FoFCou.
 Two-electron integral symmetry not used.
 MDV=  8589934592 DFT=T DoStab=F Mixed=T DoRPA=T DoScal=F NonHer=T
 Making orbital integer symmetry assigments:
 Orbital symmetries:
       Occupied  (A) (A) (A) (A) (A) (A) (A) (A) (A) (A) (A) (A)
                 (A)
       Virtual   (A) (A) (A) (A) (A) (A) (A) (A) (A) (A) (A) (A)
                 (A) (A) (A) (A) (A) (A) (A) (A) (A) (A) (A) (A)
                 (A) (A) (A) (A) (A) (A) (A) (A) (A) (A) (A) (A)
                 (A) (A) (A) (A) (A) (A) (A) (A) (A) (A) (A) (A)
                 (A) (A) (A) (A) (A) (A) (A) (A) (A) (A) (A) (A)
                 (A) (A) (A) (A) (A) (A) (A) (A) (A) (A) (A) (A)
                 (A) (A) (A) (A) (A) (A) (A) (A) (A) (A) (A) (A)
                 (A) (A) (A) (A) (A) (A) (A) (A) (A) (A) (A) (A)
                 (A) (A)
   980 initial guesses have been made.
 Convergence on wavefunction:    0.001000000000000
 Davidson Disk Diagonalization:  ConvIn= 1.00D-03 SkipCon=T Conv= 1.00D-03.
 Max sub-space:  5880 roots to seek:  1960 dimension of matrix:         1960
 *** WARNING: Number of orthogonal guesses is          980
 Iteration     1 Dimension   980 NMult     0 NNew    980
 CISAX will form   980 AO SS matrices at one time.
 NMat=   980 NSing=   980 JSym2X= 0.
 New state      3 was old state      4
 New state      4 was old state      3
 New state      7 was old state      8
 New state      8 was old state      7
 New state      9 was old state     10
 New state     10 was old state      9
 New state     12 was old state     13
 New state     13 was old state     12
 New state     14 was old state     15
 New state     15 was old state     14
 New state     16 was old state     20
 New state     17 was old state     19
 New state     19 was old state     16
 New state     20 was old state     17
 New state     21 was old state     22
 New state     22 was old state     21
 New state     23 was old state     24
 New state     24 was old state     25
 New state     25 was old state     23
 New state     26 was old state     28
 New state     28 was old state     29
 New state     29 was old state     30
 New state     30 was old state     33
 New state     31 was old state     32
 New state     32 was old state     26
 New state     33 was old state     34
 New state     34 was old state     31
 New state     35 was old state     36
 New state     36 was old state     37
 New state     37 was old state     40
 New state     38 was old state     39
 New state     39 was old state     35
 New state     40 was old state     41
 New state     41 was old state     45
 New state     42 was old state     46
 New state     43 was old state     38
 New state     44 was old state     42
 New state     45 was old state     43
 New state     46 was old state     48
 New state     48 was old state     44
 New state     49 was old state     51
 New state     50 was old state     52
 New state     51 was old state     50
 New state     52 was old state     54
 New state     54 was old state     49
 New state     56 was old state     59
 New state     57 was old state     56
 New state     58 was old state     57
 New state     59 was old state     68
 New state     60 was old state     62
 New state     61 was old state     60
 New state     62 was old state     58
 New state     64 was old state     65
 New state     65 was old state     67
 New state     66 was old state     64
 New state     67 was old state     69
 New state     68 was old state     71
 New state     69 was old state     70
 New state     70 was old state     80
 New state     71 was old state     74
 New state     72 was old state     66
 New state     73 was old state     76
 New state     74 was old state     73
 New state     76 was old state     61
 New state     77 was old state     72
 New state     79 was old state     77
 New state     80 was old state     79
 New state     81 was old state     83
 New state     82 was old state     89
 New state     83 was old state     85
 New state     84 was old state     86
 New state     85 was old state     87
 New state     86 was old state     84
 New state     87 was old state     82
 New state     88 was old state     91
 New state     89 was old state     88
 New state     90 was old state     92
 New state     91 was old state     90
 New state     92 was old state     95
 New state     93 was old state     94
 New state     94 was old state     96
 New state     95 was old state    101
 New state     96 was old state     93
 New state     97 was old state    100
 New state     98 was old state     99
 New state     99 was old state     97
 New state    100 was old state     98
 New state    101 was old state    115
 New state    103 was old state    106
 New state    105 was old state    103
 New state    106 was old state    109
 New state    107 was old state    105
 New state    108 was old state    120
 New state    109 was old state    107
 New state    112 was old state    116
 New state    114 was old state    118
 New state    115 was old state    119
 New state    116 was old state    121
 New state    117 was old state    112
 New state    118 was old state    108
 New state    119 was old state    117
 New state    120 was old state    114
 New state    121 was old state    123
 New state    123 was old state    124
 New state    124 was old state    126
 New state    125 was old state    127
 New state    126 was old state    129
 New state    127 was old state    125
 New state    128 was old state    130
 New state    129 was old state    136
 New state    130 was old state    131
 New state    131 was old state    132
 New state    132 was old state    137
 New state    133 was old state    135
 New state    134 was old state    139
 New state    135 was old state    133
 New state    136 was old state    138
 New state    137 was old state    143
 New state    138 was old state    141
 New state    139 was old state    140
 New state    140 was old state    128
 New state    141 was old state    147
 New state    143 was old state    134
 New state    144 was old state    145
 New state    145 was old state    146
 New state    146 was old state    154
 New state    147 was old state    144
 New state    148 was old state    151
 New state    149 was old state    148
 New state    151 was old state    162
 New state    152 was old state    156
 New state    153 was old state    157
 New state    154 was old state    149
 New state    155 was old state    152
 New state    156 was old state    159
 New state    157 was old state    160
 New state    158 was old state    153
 New state    159 was old state    155
 New state    160 was old state    161
 New state    161 was old state    166
 New state    162 was old state    172
 New state    163 was old state    164
 New state    164 was old state    165
 New state    165 was old state    158
 New state    166 was old state    169
 New state    167 was old state    173
 New state    168 was old state    170
 New state    169 was old state    163
 New state    170 was old state    176
 New state    171 was old state    168
 New state    172 was old state    175
 New state    173 was old state    177
 New state    174 was old state    171
 New state    175 was old state    182
 New state    176 was old state    178
 New state    177 was old state    174
 New state    178 was old state    181
 New state    179 was old state    186
 New state    180 was old state    185
 New state    181 was old state    179
 New state    182 was old state    180
 New state    184 was old state    188
 New state    185 was old state    184
 New state    186 was old state    193
 New state    187 was old state    189
 New state    188 was old state    203
 New state    189 was old state    201
 New state    190 was old state    187
 New state    191 was old state    194
 New state    192 was old state    191
 New state    193 was old state    190
 New state    194 was old state    202
 New state    196 was old state    198
 New state    197 was old state    192
 New state    198 was old state    205
 New state    201 was old state    197
 New state    202 was old state    196
 New state    203 was old state    217
 New state    204 was old state    206
 New state    205 was old state    216
 New state    206 was old state    204
 New state    207 was old state    212
 New state    209 was old state    211
 New state    210 was old state    213
 New state    211 was old state    218
 New state    212 was old state    226
 New state    213 was old state    207
 New state    214 was old state    220
 New state    215 was old state    210
 New state    216 was old state    219
 New state    217 was old state    224
 New state    218 was old state    209
 New state    219 was old state    222
 New state    220 was old state    214
 New state    222 was old state    237
 New state    223 was old state    230
 New state    224 was old state    231
 New state    226 was old state    228
 New state    228 was old state    238
 New state    229 was old state    240
 New state    230 was old state    233
 New state    231 was old state    236
 New state    232 was old state    223
 New state    233 was old state    229
 New state    234 was old state    235
 New state    235 was old state    232
 New state    236 was old state    247
 New state    237 was old state    234
 New state    238 was old state    251
 New state    239 was old state    245
 New state    240 was old state    241
 New state    241 was old state    242
 New state    242 was old state    243
 New state    243 was old state    246
 New state    244 was old state    253
 New state    245 was old state    249
 New state    246 was old state    248
 New state    247 was old state    239
 New state    248 was old state    244
 New state    249 was old state    255
 New state    250 was old state    252
 New state    251 was old state    250
 New state    252 was old state    256
 New state    253 was old state    254
 New state    254 was old state    264
 New state    255 was old state    261
 New state    256 was old state    258
 New state    258 was old state    268
 New state    259 was old state    266
 New state    260 was old state    270
 New state    261 was old state    259
 New state    264 was old state    260
 New state    265 was old state    267
 New state    266 was old state    271
 New state    267 was old state    273
 New state    268 was old state    269
 New state    269 was old state    265
 New state    270 was old state    274
 New state    271 was old state    286
 New state    273 was old state    277
 New state    274 was old state    275
 New state    275 was old state    278
 New state    276 was old state    280
 New state    277 was old state    295
 New state    278 was old state    276
 New state    279 was old state    282
 New state    280 was old state    284
 New state    281 was old state    290
 New state    282 was old state    283
 New state    283 was old state    288
 New state    284 was old state    281
 New state    285 was old state    289
 New state    286 was old state    294
 New state    287 was old state    279
 New state    288 was old state    285
 New state    289 was old state    304
 New state    290 was old state    287
 New state    291 was old state    296
 New state    292 was old state    311
 New state    293 was old state    292
 New state    294 was old state    291
 New state    295 was old state    299
 New state    296 was old state    301
 New state    297 was old state    302
 New state    298 was old state    293
 New state    299 was old state    306
 New state    300 was old state    297
 New state    301 was old state    305
 New state    302 was old state    298
 New state    303 was old state    300
 New state    304 was old state    313
 New state    305 was old state    308
 New state    306 was old state    307
 New state    307 was old state    303
 New state    308 was old state    323
 New state    309 was old state    316
 New state    310 was old state    312
 New state    311 was old state    314
 New state    312 was old state    315
 New state    313 was old state    318
 New state    314 was old state    309
 New state    315 was old state    310
 New state    316 was old state    333
 New state    317 was old state    321
 New state    318 was old state    322
 New state    319 was old state    320
 New state    320 was old state    328
 New state    321 was old state    324
 New state    322 was old state    317
 New state    323 was old state    319
 New state    324 was old state    326
 New state    326 was old state    331
 New state    327 was old state    330
 New state    328 was old state    327
 New state    329 was old state    335
 New state    330 was old state    329
 New state    331 was old state    340
 New state    332 was old state    337
 New state    333 was old state    341
 New state    335 was old state    332
 New state    336 was old state    338
 New state    337 was old state    336
 New state    338 was old state    339
 New state    339 was old state    342
 New state    340 was old state    349
 New state    341 was old state    346
 New state    342 was old state    348
 New state    343 was old state    345
 New state    344 was old state    353
 New state    345 was old state    343
 New state    346 was old state    351
 New state    347 was old state    344
 New state    348 was old state    350
 New state    349 was old state    352
 New state    350 was old state    359
 New state    351 was old state    347
 New state    352 was old state    358
 New state    353 was old state    354
 New state    354 was old state    356
 New state    356 was old state    357
 New state    357 was old state    362
 New state    358 was old state    360
 New state    359 was old state    361
 New state    360 was old state    364
 New state    361 was old state    366
 New state    362 was old state    363
 New state    363 was old state    371
 New state    364 was old state    369
 New state    365 was old state    370
 New state    366 was old state    367
 New state    367 was old state    365
 New state    368 was old state    372
 New state    369 was old state    376
 New state    370 was old state    375
 New state    371 was old state    373
 New state    372 was old state    380
 New state    373 was old state    377
 New state    374 was old state    382
 New state    375 was old state    368
 New state    376 was old state    374
 New state    377 was old state    378
 New state    378 was old state    379
 New state    379 was old state    381
 New state    380 was old state    385
 New state    381 was old state    386
 New state    382 was old state    383
 New state    383 was old state    395
 New state    384 was old state    388
 New state    385 was old state    384
 New state    386 was old state    390
 New state    387 was old state    389
 New state    388 was old state    387
 New state    389 was old state    393
 New state    390 was old state    392
 New state    391 was old state    402
 New state    392 was old state    400
 New state    393 was old state    397
 New state    394 was old state    398
 New state    395 was old state    396
 New state    396 was old state    403
 New state    397 was old state    408
 New state    398 was old state    391
 New state    399 was old state    414
 New state    400 was old state    394
 New state    401 was old state    410
 New state    402 was old state    399
 New state    403 was old state    409
 New state    404 was old state    406
 New state    405 was old state    412
 New state    406 was old state    407
 New state    407 was old state    416
 New state    408 was old state    401
 New state    409 was old state    404
 New state    410 was old state    417
 New state    411 was old state    413
 No map to state    412
 New state    413 was old state    420
 New state    414 was old state    405
 New state    416 was old state    421
 New state    417 was old state    422
 New state    418 was old state    411
 New state    420 was old state    425
 New state    421 was old state    418
 New state    422 was old state    426
 New state    424 was old state    430
 New state    425 was old state    424
 New state    426 was old state    427
 New state    427 was old state    428
 New state    428 was old state    429
 New state    429 was old state    440
 New state    430 was old state    435
 New state    431 was old state    439
 New state    432 was old state    431
 New state    433 was old state    444
 New state    434 was old state    438
 New state    435 was old state    442
 New state    436 was old state    446
 New state    437 was old state    433
 New state    438 was old state    434
 New state    439 was old state    432
 New state    440 was old state    453
 New state    441 was old state    436
 New state    442 was old state    449
 New state    443 was old state    437
 New state    444 was old state    447
 New state    445 was old state    443
 New state    446 was old state    441
 New state    447 was old state    450
 New state    448 was old state    445
 New state    449 was old state    457
 New state    450 was old state    451
 New state    451 was old state    458
 New state    452 was old state    448
 New state    453 was old state    452
 New state    454 was old state    456
 New state    455 was old state    454
 New state    456 was old state    459
 New state    457 was old state    474
 New state    458 was old state    455
 New state    459 was old state    465
 New state    460 was old state    468
 New state    461 was old state    473
 New state    462 was old state    464
 New state    463 was old state    469
 New state    464 was old state    476
 New state    465 was old state    462
 New state    466 was old state    460
 New state    467 was old state    466
 New state    468 was old state    477
 New state    469 was old state    463
 New state    470 was old state    461
 New state    471 was old state    467
 New state    472 was old state    479
 New state    473 was old state    471
 New state    474 was old state    480
 New state    475 was old state    470
 New state    476 was old state    478
 New state    477 was old state    482
 New state    478 was old state    483
 New state    479 was old state    472
 New state    480 was old state    497
 New state    481 was old state    488
 New state    482 was old state    492
 New state    483 was old state    496
 New state    484 was old state    475
 New state    485 was old state    481
 New state    486 was old state    487
 New state    487 was old state    493
 New state    488 was old state    486
 New state    489 was old state    501
 New state    490 was old state    484
 New state    491 was old state    485
 New state    492 was old state    494
 New state    493 was old state    495
 New state    494 was old state    489
 New state    495 was old state    503
 New state    496 was old state    490
 New state    497 was old state    502
 New state    498 was old state    499
 New state    499 was old state    491
 New state    500 was old state    504
 New state    501 was old state    505
 New state    502 was old state    509
 New state    503 was old state    498
 New state    504 was old state    508
 New state    505 was old state    500
 New state    506 was old state    516
 New state    507 was old state    513
 New state    508 was old state    512
 New state    509 was old state    521
 New state    510 was old state    517
 New state    511 was old state    507
 New state    512 was old state    523
 New state    513 was old state    506
 New state    514 was old state    511
 New state    516 was old state    510
 New state    517 was old state    524
 New state    519 was old state    525
 New state    520 was old state    514
 New state    521 was old state    531
 New state    522 was old state    526
 New state    523 was old state    519
 New state    524 was old state    520
 New state    525 was old state    530
 New state    526 was old state    527
 New state    527 was old state    534
 New state    528 was old state    539
 New state    529 was old state    532
 New state    530 was old state    529
 New state    531 was old state    533
 New state    532 was old state    540
 New state    533 was old state    528
 New state    534 was old state    536
 New state    535 was old state    541
 New state    536 was old state    537
 New state    537 was old state    522
 New state    539 was old state    542
 New state    540 was old state    543
 New state    541 was old state    553
 New state    542 was old state    544
 New state    543 was old state    546
 New state    544 was old state    535
 New state    545 was old state    547
 New state    546 was old state    545
 New state    547 was old state    548
 New state    548 was old state    551
 New state    549 was old state    555
 New state    550 was old state    556
 New state    551 was old state    552
 New state    552 was old state    554
 New state    553 was old state    550
 New state    554 was old state    558
 New state    555 was old state    549
 New state    556 was old state    559
 New state    558 was old state    560
 New state    559 was old state    562
 New state    560 was old state    566
 New state    561 was old state    564
 New state    562 was old state    565
 New state    564 was old state    561
 New state    565 was old state    568
 New state    566 was old state    567
 New state    567 was old state    570
 New state    568 was old state    574
 New state    569 was old state    573
 New state    570 was old state    569
 New state    572 was old state    575
 New state    573 was old state    572
 New state    574 was old state    587
 New state    575 was old state    576
 New state    576 was old state    577
 New state    577 was old state    579
 New state    579 was old state    582
 New state    582 was old state    584
 No map to state    584
 New state    585 was old state    588
 New state    586 was old state    589
 New state    587 was old state    586
 New state    588 was old state    591
 New state    589 was old state    594
 New state    590 was old state    585
 New state    591 was old state    596
 New state    592 was old state    590
 New state    593 was old state    592
 New state    594 was old state    593
 New state    595 was old state    597
 New state    596 was old state    595
 New state    597 was old state    602
 New state    598 was old state    601
 New state    600 was old state    598
 New state    601 was old state    604
 New state    602 was old state    608
 New state    603 was old state    607
 New state    604 was old state    603
 New state    606 was old state    600
 New state    607 was old state    612
 New state    608 was old state    606
 New state    609 was old state    611
 New state    610 was old state    619
 New state    611 was old state    609
 New state    612 was old state    610
 New state    613 was old state    618
 New state    614 was old state    613
 New state    616 was old state    622
 New state    618 was old state    623
 New state    619 was old state    616
 New state    620 was old state    614
 New state    621 was old state    625
 New state    622 was old state    624
 New state    623 was old state    621
 New state    624 was old state    627
 New state    625 was old state    630
 New state    626 was old state    628
 New state    627 was old state    632
 New state    628 was old state    626
 New state    629 was old state    633
 New state    630 was old state    629
 New state    631 was old state    638
 New state    632 was old state    637
 New state    633 was old state    635
 New state    634 was old state    640
 New state    635 was old state    639
 New state    636 was old state    631
 New state    637 was old state    634
 New state    638 was old state    636
 New state    639 was old state    644
 New state    640 was old state    643
 New state    641 was old state    645
 New state    642 was old state    646
 New state    643 was old state    647
 New state    644 was old state    641
 New state    645 was old state    654
 New state    646 was old state    642
 New state    647 was old state    656
 New state    649 was old state    660
 New state    650 was old state    651
 New state    651 was old state    649
 New state    653 was old state    650
 New state    654 was old state    657
 New state    655 was old state    653
 New state    656 was old state    655
 New state    657 was old state    658
 New state    658 was old state    661
 New state    659 was old state    669
 New state    660 was old state    665
 New state    661 was old state    659
 New state    662 was old state    663
 New state    663 was old state    662
 New state    665 was old state    668
 New state    666 was old state    672
 New state    668 was old state    666
 New state    669 was old state    670
 New state    670 was old state    673
 New state    671 was old state    674
 New state    672 was old state    671
 New state    673 was old state    677
 New state    674 was old state    675
 New state    675 was old state    676
 New state    676 was old state    684
 New state    677 was old state    678
 New state    678 was old state    679
 New state    679 was old state    680
 New state    680 was old state    681
 New state    681 was old state    683
 New state    682 was old state    689
 New state    683 was old state    682
 New state    684 was old state    687
 New state    685 was old state    686
 New state    686 was old state    685
 New state    687 was old state    688
 New state    688 was old state    692
 New state    689 was old state    690
 New state    690 was old state    694
 New state    691 was old state    698
 New state    692 was old state    695
 New state    693 was old state    701
 New state    694 was old state    699
 New state    695 was old state    691
 New state    696 was old state    708
 New state    697 was old state    696
 New state    698 was old state    704
 New state    699 was old state    697
 New state    700 was old state    702
 New state    701 was old state    693
 New state    702 was old state    703
 New state    703 was old state    700
 New state    704 was old state    706
 New state    705 was old state    707
 New state    706 was old state    709
 New state    707 was old state    710
 New state    708 was old state    714
 New state    709 was old state    705
 New state    710 was old state    712
 New state    711 was old state    713
 New state    712 was old state    718
 New state    713 was old state    711
 New state    714 was old state    717
 New state    716 was old state    722
 New state    717 was old state    716
 New state    718 was old state    720
 New state    719 was old state    728
 New state    720 was old state    719
 New state    721 was old state    723
 New state    722 was old state    721
 New state    723 was old state    726
 New state    725 was old state    729
 New state    726 was old state    725
 New state    727 was old state    730
 New state    728 was old state    732
 New state    729 was old state    727
 No map to state    730
 New state    732 was old state    735
 New state    735 was old state    738
 New state    737 was old state    740
 New state    738 was old state    739
 New state    739 was old state    745
 New state    740 was old state    737
 New state    741 was old state    742
 New state    742 was old state    741
 New state    743 was old state    744
 New state    744 was old state    746
 New state    745 was old state    747
 New state    746 was old state    743
 New state    747 was old state    749
 New state    749 was old state    764
 New state    750 was old state    767
 New state    752 was old state    754
 New state    753 was old state    755
 New state    754 was old state    758
 New state    755 was old state    752
 New state    756 was old state    771
 New state    757 was old state    750
 New state    758 was old state    756
 New state    759 was old state    757
 New state    760 was old state    761
 New state    761 was old state    753
 New state    762 was old state    760
 New state    763 was old state    759
 New state    764 was old state    762
 New state    765 was old state    763
 New state    766 was old state    775
 New state    767 was old state    765
 New state    768 was old state    766
 New state    769 was old state    772
 New state    770 was old state    773
 New state    771 was old state    769
 New state    772 was old state    768
 New state    773 was old state    770
 New state    774 was old state    777
 New state    775 was old state    774
 New state    777 was old state    781
 New state    779 was old state    788
 New state    780 was old state    784
 New state    781 was old state    780
 New state    782 was old state    783
 New state    783 was old state    782
 New state    784 was old state    786
 New state    785 was old state    789
 New state    786 was old state    787
 New state    787 was old state    779
 No map to state    788
 New state    789 was old state    785
 New state    791 was old state    793
 New state    792 was old state    796
 New state    793 was old state    791
 New state    794 was old state    792
 New state    795 was old state    797
 New state    796 was old state    799
 New state    797 was old state    794
 New state    798 was old state    802
 New state    799 was old state    801
 New state    800 was old state    795
 New state    801 was old state    803
 New state    802 was old state    800
 New state    803 was old state    804
 New state    804 was old state    805
 New state    805 was old state    808
 New state    806 was old state    809
 New state    807 was old state    798
 New state    808 was old state    806
 New state    809 was old state    807
 New state    811 was old state    812
 New state    812 was old state    814
 New state    814 was old state    816
 New state    816 was old state    819
 New state    819 was old state    820
 New state    820 was old state    822
 New state    822 was old state    823
 New state    823 was old state    830
 New state    824 was old state    826
 New state    825 was old state    824
 New state    826 was old state    825
 New state    828 was old state    833
 New state    829 was old state    828
 New state    830 was old state    831
 New state    831 was old state    829
 New state    832 was old state    836
 New state    833 was old state    832
 New state    835 was old state    843
 New state    836 was old state    837
 New state    837 was old state    835
 New state    838 was old state    839
 New state    839 was old state    842
 New state    840 was old state    838
 New state    842 was old state    840
 New state    843 was old state    844
 New state    844 was old state    846
 New state    845 was old state    849
 New state    846 was old state    845
 New state    848 was old state    850
 New state    849 was old state    848
 New state    850 was old state    851
 New state    851 was old state    854
 New state    852 was old state    853
 New state    853 was old state    855
 New state    854 was old state    856
 New state    855 was old state    852
 New state    856 was old state    858
 New state    858 was old state    859
 New state    859 was old state    860
 No map to state    860
 New state    861 was old state    862
 New state    862 was old state    861
 New state    864 was old state    868
 New state    865 was old state    864
 New state    866 was old state    867
 New state    867 was old state    865
 New state    868 was old state    869
 New state    869 was old state    866
 New state    872 was old state    873
 New state    873 was old state    872
 New state    874 was old state    876
 New state    875 was old state    874
 New state    876 was old state    879
 New state    877 was old state    875
 New state    878 was old state    877
 New state    879 was old state    880
 New state    880 was old state    882
 New state    881 was old state    885
 New state    882 was old state    878
 New state    883 was old state    881
 New state    885 was old state    883
 New state    886 was old state    887
 New state    887 was old state    886
 New state    888 was old state    898
 New state    892 was old state    893
 New state    893 was old state    888
 New state    895 was old state    892
 New state    896 was old state    897
 New state    897 was old state    896
 New state    898 was old state    899
 New state    899 was old state    901
 New state    900 was old state    906
 New state    901 was old state    907
 New state    903 was old state    900
 New state    904 was old state    908
 New state    905 was old state    914
 New state    906 was old state    904
 New state    907 was old state    905
 New state    908 was old state    903
 New state    910 was old state    912
 New state    912 was old state    910
 New state    913 was old state    917
 New state    914 was old state    927
 New state    915 was old state    913
 New state    917 was old state    915
 New state    919 was old state    923
 New state    920 was old state    922
 New state    921 was old state    919
 New state    922 was old state    921
 New state    923 was old state    920
 New state    925 was old state    928
 No map to state    927
 New state    928 was old state    925
 New state    930 was old state    931
 New state    931 was old state    932
 New state    932 was old state    930
 New state    935 was old state    937
 New state    936 was old state    938
 New state    937 was old state    940
 New state    938 was old state    935
 New state    940 was old state    936
 New state    941 was old state    942
 New state    942 was old state    941
 New state    943 was old state    945
 New state    944 was old state    946
 New state    945 was old state    944
 New state    946 was old state    949
 New state    947 was old state    943
 New state    948 was old state    947
 New state    949 was old state    948
 New state    953 was old state    955
 New state    954 was old state    953
 New state    955 was old state    954
 New state    961 was old state    962
 New state    962 was old state    961
 New state    963 was old state    965
 New state    964 was old state    963
 New state    965 was old state    967
 New state    966 was old state    964
 New state    967 was old state    966
 New state    970 was old state    971
 New state    971 was old state    970
 Excitation Energies [eV] at current iteration:
 Root      1 :     7.263664087537833
 Root      2 :     8.549474722454306
 Root      3 :     8.782983467460200
 Root      4 :     9.025157764910208
 Root      5 :     9.310794653782168
 Root      6 :     9.651584863048075
 Root      7 :    10.042339391809150
 Root      8 :    10.090675841931320
 Root      9 :    10.144305584292570
 Root     10 :    10.165692741898840
 Root     11 :    10.481205664943350
 Root     12 :    10.502651052258190
 Root     13 :    10.605648417593590
 Root     14 :    10.953665494589270
 Root     15 :    10.999448671745210
 Root     16 :    11.156370114823490
 Root     17 :    11.236785243543990
 Root     18 :    11.257456042768580
 Root     19 :    11.332758884189940
 Root     20 :    11.425138260090510
 Root     21 :    11.510641877828230
 Root     22 :    11.690233463699150
 Root     23 :    11.835242182649380
 Root     24 :    11.873045582154000
 Root     25 :    11.950525331572490
 Root     26 :    12.075803097637480
 Root     27 :    12.183212682530840
 Root     28 :    12.224215623256560
 Root     29 :    12.260319973114050
 Root     30 :    12.365410454087940
 Root     31 :    12.497855007527660
 Root     32 :    12.558884555559280
 Root     33 :    12.616947886854920
 Root     34 :    12.641351694377600
 Root     35 :    12.704829593871540
 Root     36 :    12.782448577150400
 Root     37 :    12.836638890228430
 Root     38 :    12.909241333576980
 Root     39 :    12.970686833888420
 Root     40 :    13.026618039675770
 Root     41 :    13.132417341880010
 Root     42 :    13.178489506684910
 Root     43 :    13.298475303195160
 Root     44 :    13.325294355102230
 Root     45 :    13.406755249070780
 Root     46 :    13.410357747798130
 Root     47 :    13.486941433219060
 Root     48 :    13.532209290729450
 Root     49 :    13.696671530482150
 Root     50 :    13.749847859528020
 Root     51 :    13.834954534784150
 Root     52 :    13.939822159415940
 Root     53 :    13.971427266219640
 Root     54 :    13.990916556291680
 Root     55 :    14.065514673109290
 Root     56 :    14.140300379165370
 Root     57 :    14.167819901836640
 Root     58 :    14.260854597924770
 Root     59 :    14.337093535146090
 Root     60 :    14.411281888313180
 Root     61 :    14.499653396383670
 Root     62 :    14.555226352830040
 Root     63 :    14.582536872004680
 Root     64 :    14.634189017064350
 Root     65 :    14.723221673306050
 Root     66 :    14.770749463967870
 Root     67 :    14.849587977301430
 Root     68 :    14.906117278048140
 Root     69 :    15.003067849864370
 Root     70 :    15.081310236500590
 Root     71 :    15.125022001065400
 Root     72 :    15.190289694191460
 Root     73 :    15.231010251655250
 Root     74 :    15.262414124797150
 Root     75 :    15.317937161274310
 Root     76 :    15.397189425693270
 Root     77 :    15.430072069469740
 Root     78 :    15.493492160444410
 Root     79 :    15.516959817999000
 Root     80 :    15.580348887141240
 Root     81 :    15.647305151760470
 Root     82 :    15.695982554084820
 Root     83 :    15.716769814278490
 Root     84 :    15.776200246430410
 Root     85 :    15.812778329551360
 Root     86 :    15.862414929775480
 Root     87 :    15.905065101340660
 Root     88 :    16.028410761848210
 Root     89 :    16.064480637462560
 Root     90 :    16.175493998197810
 Root     91 :    16.192951083753050
 Root     92 :    16.235346320180560
 Root     93 :    16.277069265952720
 Root     94 :    16.324729090020310
 Root     95 :    16.360948298212020
 Root     96 :    16.430139158813740
 Root     97 :    16.506301398790160
 Root     98 :    16.569831312654560
 Root     99 :    16.612019109217460
 Root    100 :    16.655022819357370
 Root    101 :    16.716081130424850
 Root    102 :    16.803323881628810
 Root    103 :    16.865082404281950
 Root    104 :    16.872533906723700
 Root    105 :    16.958528402325700
 Root    106 :    17.025600318412440
 Root    107 :    17.059290898809230
 Root    108 :    17.122791498067880
 Root    109 :    17.134568539973500
 Root    110 :    17.189809896998870
 Root    111 :    17.248740542870430
 Root    112 :    17.288926392313250
 Root    113 :    17.349240911295810
 Root    114 :    17.391796487793280
 Root    115 :    17.418578403735460
 Root    116 :    17.440316780716930
 Root    117 :    17.469126976529080
 Root    118 :    17.506533296889740
 Root    119 :    17.540225436606060
 Root    120 :    17.631586486347980
 Root    121 :    17.646742305533610
 Root    122 :    17.677717929826580
 Root    123 :    17.711168257461450
 Root    124 :    17.771956092761380
 Root    125 :    17.818863890314950
 Root    126 :    17.881114796649060
 Root    127 :    17.897117639370410
 Root    128 :    17.987123225198530
 Root    129 :    18.082828562091130
 Root    130 :    18.199384444787460
 Root    131 :    18.249494076224830
 Root    132 :    18.281179840930750
 Root    133 :    18.310973020257690
 Root    134 :    18.335989717006980
 Root    135 :    18.354859569616090
 Root    136 :    18.389549136498510
 Root    137 :    18.399487974874240
 Root    138 :    18.455130159331000
 Root    139 :    18.457385935130100
 Root    140 :    18.523339171187910
 Root    141 :    18.554223617188350
 Root    142 :    18.631139110412360
 Root    143 :    18.678931866357170
 Root    144 :    18.703312367224670
 Root    145 :    18.737530600655620
 Root    146 :    18.786229360738450
 Root    147 :    18.820198918806060
 Root    148 :    18.890508537127040
 Root    149 :    18.939854363685410
 Root    150 :    18.988602036824900
 Root    151 :    19.018992597025570
 Root    152 :    19.062158900882510
 Root    153 :    19.081970683331900
 Root    154 :    19.160396094156780
 Root    155 :    19.206847455205870
 Root    156 :    19.227778410156390
 Root    157 :    19.270075758132600
 Root    158 :    19.334882211012310
 Root    159 :    19.377148043506040
 Root    160 :    19.420060590726970
 Root    161 :    19.452424438005710
 Root    162 :    19.478815312990920
 Root    163 :    19.559403249557740
 Root    164 :    19.580307615356900
 Root    165 :    19.645461947241930
 Root    166 :    19.725361052256510
 Root    167 :    19.789757183786000
 Root    168 :    19.826801529993500
 Root    169 :    19.833951937561750
 Root    170 :    19.872615916845690
 Root    171 :    19.885217109697310
 Root    172 :    19.951608176895840
 Root    173 :    19.972080175097220
 Root    174 :    20.003267725184870
 Root    175 :    20.079565157255200
 Root    176 :    20.095426371847540
 Root    177 :    20.105364086202010
 Root    178 :    20.133703539441810
 Root    179 :    20.201347285609580
 Root    180 :    20.218767280724930
 Root    181 :    20.291666543650180
 Root    182 :    20.348505535844670
 Root    183 :    20.383727629400300
 Root    184 :    20.406613552115900
 Root    185 :    20.474866036966730
 Root    186 :    20.510954982768970
 Root    187 :    20.556150103971340
 Root    188 :    20.644062268474690
 Root    189 :    20.648650734390120
 Root    190 :    20.667675440755970
 Root    191 :    20.712389910479870
 Root    192 :    20.775798941309480
 Root    193 :    20.799244305973680
 Root    194 :    20.842410532295740
 Root    195 :    20.879576304519110
 Root    196 :    20.949694711600060
 Root    197 :    20.970181967621030
 Root    198 :    20.985395179126360
 Root    199 :    21.036226670370120
 Root    200 :    21.047635149937840
 Root    201 :    21.091430546115300
 Root    202 :    21.135170383966620
 Root    203 :    21.164872624214130
 Root    204 :    21.207829301015240
 Root    205 :    21.213022169820550
 Root    206 :    21.266523033061710
 Root    207 :    21.308958787448600
 Root    208 :    21.343938335269340
 Root    209 :    21.397509437893500
 Root    210 :    21.424146131764560
 Root    211 :    21.480077831961460
 Root    212 :    21.494755645749890
 Root    213 :    21.538147453296570
 Root    214 :    21.616852575541710
 Root    215 :    21.621239122420530
 Root    216 :    21.645690605381800
 Root    217 :    21.688435988085540
 Root    218 :    21.757783807465510
 Root    219 :    21.800116621028090
 Root    220 :    21.811980055695620
 Root    221 :    21.848160782327000
 Root    222 :    21.914597778909400
 Root    223 :    21.948036538204450
 Root    224 :    21.971989977190050
 Root    225 :    21.997517062911830
 Root    226 :    22.014084826120030
 Root    227 :    22.065522918715580
 Root    228 :    22.099935526358450
 Root    229 :    22.138665009391150
 Root    230 :    22.163040362158340
 Root    231 :    22.201898631791950
 Root    232 :    22.281441572106300
 Root    233 :    22.314575340497790
 Root    234 :    22.345397285817860
 Root    235 :    22.352608051901530
 Root    236 :    22.437527982687920
 Root    237 :    22.467814321655080
 Root    238 :    22.484226257683260
 Root    239 :    22.551297147866630
 Root    240 :    22.590593385158420
 Root    241 :    22.622850912180760
 Root    242 :    22.654522293319460
 Root    243 :    22.699057066953200
 Root    244 :    22.737657898511560
 Root    245 :    22.767750659588820
 Root    246 :    22.806434866507450
 Root    247 :    22.849260144163190
 Root    248 :    22.889297404768050
 Root    249 :    22.920365792181650
 Root    250 :    22.976811103241740
 Root    251 :    22.994774975075190
 Root    252 :    23.079543633410100
 Root    253 :    23.104114667570010
 Root    254 :    23.165877699319650
 Root    255 :    23.202692723571410
 Root    256 :    23.219021559029120
 Root    257 :    23.325891637997340
 Root    258 :    23.344755563574150
 Root    259 :    23.374666902016720
 Root    260 :    23.406557693177510
 Root    261 :    23.440612696973060
 Root    262 :    23.502434273804520
 Root    263 :    23.564122025738660
 Root    264 :    23.581163214528080
 Root    265 :    23.610372879565650
 Root    266 :    23.675542159347100
 Root    267 :    23.697679799409140
 Root    268 :    23.713494013298300
 Root    269 :    23.755603567367940
 Root    270 :    23.807877518960490
 Root    271 :    23.848175658056380
 Root    272 :    23.918930674637800
 Root    273 :    23.974684130052620
 Root    274 :    23.998925740547280
 Root    275 :    24.034108838786900
 Root    276 :    24.069080147391370
 Root    277 :    24.104174433307900
 Root    278 :    24.182482187193840
 Root    279 :    24.213263255904330
 Root    280 :    24.294257335399110
 Root    281 :    24.369738781412330
 Root    282 :    24.403999673674550
 Root    283 :    24.439962208714450
 Root    284 :    24.464633192834180
 Root    285 :    24.492897080334130
 Root    286 :    24.516785947283000
 Root    287 :    24.549230330256480
 Root    288 :    24.592321882611560
 Root    289 :    24.625368200694930
 Root    290 :    24.695150825100070
 Root    291 :    24.730834262974500
 Root    292 :    24.745049009040570
 Root    293 :    24.823930591842710
 Root    294 :    24.862005943662980
 Root    295 :    24.905301635960440
 Root    296 :    24.924751150310210
 Root    297 :    24.949297672863280
 Root    298 :    24.971651632410760
 Root    299 :    25.088474511863870
 Root    300 :    25.143405356254560
 Root    301 :    25.178934026524640
 Root    302 :    25.209976434791950
 Root    303 :    25.286696640217500
 Root    304 :    25.325159343380270
 Root    305 :    25.370351471096120
 Root    306 :    25.457210625011110
 Root    307 :    25.480262714433290
 Root    308 :    25.574169906271140
 Root    309 :    25.750444733387440
 Root    310 :    25.765273132168170
 Root    311 :    25.778145652744850
 Root    312 :    25.800649747587530
 Root    313 :    25.887481177775240
 Root    314 :    25.964397330019490
 Root    315 :    26.010916985772100
 Root    316 :    26.023640795656010
 Root    317 :    26.051426562160180
 Root    318 :    26.136240160119600
 Root    319 :    26.172822688619500
 Root    320 :    26.209584627351520
 Root    321 :    26.259019868332320
 Root    322 :    26.326667677632150
 Root    323 :    26.358558735055820
 Root    324 :    26.400966545657060
 Root    325 :    26.457247963383580
 Root    326 :    26.493491806529960
 Root    327 :    26.524855797582750
 Root    328 :    26.568596555413060
 Root    329 :    26.605340728812130
 Root    330 :    26.693013331894930
 Root    331 :    26.715826370372370
 Root    332 :    26.730721139800600
 Root    333 :    26.824298961702780
 Root    334 :    26.917895392581200
 Root    335 :    26.964770078562980
 Root    336 :    26.975914556899010
 Root    337 :    27.095291351805870
 Root    338 :    27.209003953944080
 Root    339 :    27.276412214572180
 Root    340 :    27.440291987123530
 Root    341 :    27.461384190171340
 Root    342 :    27.524473716434760
 Root    343 :    27.550821148146460
 Root    344 :    27.635124595353360
 Root    345 :    27.725216479811730
 Root    346 :    27.768094879546890
 Root    347 :    27.866803008691420
 Root    348 :    27.897785694433470
 Root    349 :    27.925780807264000
 Root    350 :    27.971243831096850
 Root    351 :    28.154366486079860
 Root    352 :    28.214129383062350
 Root    353 :    28.236822588071590
 Root    354 :    28.356911505558050
 Root    355 :    28.432817339109090
 Root    356 :    28.491827565967960
 Root    357 :    28.528114030345760
 Root    358 :    28.546043143186490
 Root    359 :    28.666236770379620
 Root    360 :    28.735679356457060
 Root    361 :    28.853592073813160
 Root    362 :    28.947087051046180
 Root    363 :    28.996388170350540
 Root    364 :    29.112059633906830
 Root    365 :    29.180810861018670
 Root    366 :    29.214700745466210
 Root    367 :    29.334175412868720
 Root    368 :    29.377492392174930
 Root    369 :    29.420010499104400
 Root    370 :    29.458523067594730
 Root    371 :    29.562311355157530
 Root    372 :    29.638182548356000
 Root    373 :    29.665250794857130
 Root    374 :    29.768528458843010
 Root    375 :    29.798336868035090
 Root    376 :    29.870046672845270
 Root    377 :    29.906888801984460
 Root    378 :    29.935861237549130
 Root    379 :    29.982103119753320
 Root    380 :    30.000683039340960
 Root    381 :    30.078716417961230
 Root    382 :    30.133264519201230
 Root    383 :    30.239577268933640
 Root    384 :    30.330707880513060
 Root    385 :    30.398789787703570
 Root    386 :    30.477984846149410
 Root    387 :    30.539803383964970
 Root    388 :    30.606367039104080
 Root    389 :    30.657856839966960
 Root    390 :    30.894994455839000
 Root    391 :    30.924076077520030
 Root    392 :    30.999043248672820
 Root    393 :    31.114389386004730
 Root    394 :    31.161525548790000
 Root    395 :    31.220878551544540
 Root    396 :    31.259952589729630
 Root    397 :    31.264867681198120
 Root    398 :    31.302105218019700
 Root    399 :    31.323951393862320
 Root    400 :    31.356847371015330
 Root    401 :    31.395973639236910
 Root    402 :    31.519626660863310
 Root    403 :    31.628463820533570
 Root    404 :    31.663529314537890
 Root    405 :    31.701983655919780
 Root    406 :    31.769490098570710
 Root    407 :    31.800901575501810
 Root    408 :    31.853609683804740
 Root    409 :    31.887273704662610
 Root    410 :    31.940164935642840
 Root    411 :    32.052901107296590
 Root    412 :    32.116120850977820
 Root    413 :    32.294233094027400
 Root    414 :    32.354340704707750
 Root    415 :    32.374232507214070
 Root    416 :    32.474778067355740
 Root    417 :    32.476069768666660
 Root    418 :    32.573519614992630
 Root    419 :    32.630242416126220
 Root    420 :    32.828659351413400
 Root    421 :    32.865835161680290
 Root    422 :    32.984620887809990
 Root    423 :    33.004026829336540
 Root    424 :    33.046550648563380
 Root    425 :    33.222385006265990
 Root    426 :    33.361491628852000
 Root    427 :    33.434684627356690
 Root    428 :    33.510111144906030
 Root    429 :    33.543838731030530
 Root    430 :    33.583681333445830
 Root    431 :    33.840861400919290
 Root    432 :    33.911081650036610
 Root    433 :    33.987493846301970
 Root    434 :    34.031378219680390
 Root    435 :    34.140897754149420
 Root    436 :    34.161312713865370
 Root    437 :    34.194081350224390
 Root    438 :    34.242785728208770
 Root    439 :    34.289792575832710
 Root    440 :    34.344357683943220
 Root    441 :    34.405592833819560
 Root    442 :    34.440007507330750
 Root    443 :    34.487140102605970
 Root    444 :    34.614336815229800
 Root    445 :    34.641327965097630
 Root    446 :    34.702976364509940
 Root    447 :    34.761885789786110
 Root    448 :    34.804053019300820
 Root    449 :    34.990920616426490
 Root    450 :    35.035555734763410
 Root    451 :    35.089112996490570
 Root    452 :    35.144280715390900
 Root    453 :    35.263523532651810
 Root    454 :    35.291574966866420
 Root    455 :    35.348332224010460
 Root    456 :    35.451462973179890
 Root    457 :    35.489205086208930
 Root    458 :    35.520767611159790
 Root    459 :    35.764441567884250
 Root    460 :    35.822710215099560
 Root    461 :    35.931209077362220
 Root    462 :    36.001489953345640
 Root    463 :    36.068079265369860
 Root    464 :    36.108834776333080
 Root    465 :    36.193226228549560
 Root    466 :    36.305923883921310
 Root    467 :    36.339244233642030
 Root    468 :    36.404914513574030
 Root    469 :    36.430171247441680
 Root    470 :    36.469148800078230
 Root    471 :    36.515299727263280
 Root    472 :    36.583896964892790
 Root    473 :    36.646956388012310
 Root    474 :    36.774012534024480
 Root    475 :    36.881312619901440
 Root    476 :    36.934216535985800
 Root    477 :    36.962804851962970
 Root    478 :    37.068772721056470
 Root    479 :    37.264154187321400
 Root    480 :    37.320949244842550
 Root    481 :    37.395670275471510
 Root    482 :    37.484378392139070
 Root    483 :    37.564316215899770
 Root    484 :    37.589694931404770
 Root    485 :    37.693155827044310
 Root    486 :    37.797817854745230
 Root    487 :    37.826122643618180
 Root    488 :    37.945216737471110
 Root    489 :    38.004310372737760
 Root    490 :    38.053472875489400
 Root    491 :    38.196349742324410
 Root    492 :    38.288652937995270
 Root    493 :    38.422811442465600
 Root    494 :    38.442347857483110
 Root    495 :    38.479403343863570
 Root    496 :    38.564348999286760
 Root    497 :    38.590665961349340
 Root    498 :    38.601973611277360
 Root    499 :    38.687662911138820
 Root    500 :    38.872319238257270
 Root    501 :    39.035597475445240
 Root    502 :    39.057658338109430
 Root    503 :    39.121607261012380
 Root    504 :    39.173720932519140
 Root    505 :    39.211243078693000
 Root    506 :    39.290050460269760
 Root    507 :    39.401231150575980
 Root    508 :    39.420728012568330
 Root    509 :    39.488452068187040
 Root    510 :    39.612941277621020
 Root    511 :    39.618533556573570
 Root    512 :    39.654611461777540
 Root    513 :    39.762324692354770
 Root    514 :    39.885509382247670
 Root    515 :    39.900195294487240
 Root    516 :    40.039084347648440
 Root    517 :    40.131620120572950
 Root    518 :    40.271536079608790
 Root    519 :    40.298463394985340
 Root    520 :    40.399547287627930
 Root    521 :    40.440157521582840
 Root    522 :    40.594659688966820
 Root    523 :    40.690267567574610
 Root    524 :    40.786258968771900
 Root    525 :    40.858817169708440
 Root    526 :    40.915907679575890
 Root    527 :    40.955858337320780
 Root    528 :    41.089614216138500
 Root    529 :    41.135603560554560
 Root    530 :    41.217213207238910
 Root    531 :    41.241859034842420
 Root    532 :    41.264126730228460
 Root    533 :    41.356140453158230
 Root    534 :    41.511845627376220
 Root    535 :    41.621424607211400
 Root    536 :    41.662330713742800
 Root    537 :    41.707852024437410
 Root    538 :    41.751842500153340
 Root    539 :    41.889767240342150
 Root    540 :    41.934376616127960
 Root    541 :    42.005682844055850
 Root    542 :    42.136141165297960
 Root    543 :    42.216815498344500
 Root    544 :    42.313827035722030
 Root    545 :    42.432192460047230
 Root    546 :    42.572524486727700
 Root    547 :    42.720101915538930
 Root    548 :    42.795730320471370
 Root    549 :    42.938180319379670
 Root    550 :    43.061932876850750
[...]
     15  -0.217178D+00  0.330904D+00 -0.352584D+00  0.356693D-01 -0.189785D+00
     16   0.364064D-02 -0.171328D-01  0.183001D-01  0.897254D-02  0.621245D-01
               911           912           913           914           915 
      1  -0.151430D+03 -0.151418D+03 -0.151411D+03 -0.151395D+03 -0.151390D+03
      2  -0.345054D-01 -0.275446D-01  0.339172D-03  0.545485D-01  0.141772D-01
      3   0.308967D-01  0.368135D-01  0.204863D-01  0.177089D-01  0.388988D-01
      4   0.759078D-01  0.332524D-01  0.672108D-01 -0.101283D-01 -0.102616D-01
      5   0.106764D+00  0.897115D-01 -0.584301D-03 -0.169639D+00 -0.341240D-01
      6  -0.996760D-01 -0.112163D+00 -0.548825D-01 -0.685034D-01 -0.113782D+00
      7  -0.234253D+00 -0.116496D+00 -0.205254D+00  0.376049D-01  0.416370D-01
      8   0.532659D-01  0.144439D+00  0.738054D-02 -0.125685D+00 -0.134630D+00
      9   0.628266D+00  0.462536D+00  0.266998D+00 -0.221202D+00 -0.106563D+00
     10  -0.428799D+00  0.150487D-01  0.163460D+00 -0.385304D+00 -0.172127D+00
     11   0.703873D+00 -0.985630D-01  0.217437D+00 -0.952632D+00 -0.267189D-01
     12   0.992088D-01 -0.790391D-01 -0.107325D+00  0.109010D+00  0.189078D+00
     13   0.146142D+00  0.208065D+00  0.648697D-01  0.305665D-01 -0.747921D-01
     14  -0.495935D+00 -0.144136D+00  0.115521D+00 -0.389741D+00 -0.692280D-01
     15  -0.789550D+00 -0.512360D+00 -0.314786D+00  0.249330D+00  0.844517D-01
     16   0.930110D-01  0.180583D+00  0.132546D-01  0.238834D-01 -0.785888D-01
               916           917           918           919           920 
      1  -0.151389D+03 -0.151385D+03 -0.151380D+03 -0.151372D+03 -0.151366D+03
      2   0.281152D-01 -0.584759D-01  0.295734D-01 -0.234701D-01 -0.111389D-01
      3   0.859954D-02 -0.655503D-01 -0.397590D-01  0.321650D-01  0.190541D-01
      4  -0.991184D-02 -0.305877D-01 -0.116423D+00  0.436405D-02 -0.328206D-01
      5  -0.790175D-01  0.182106D+00 -0.898153D-01  0.697918D-01  0.302533D-01
      6  -0.289744D-01  0.196439D+00  0.123434D+00 -0.101683D+00 -0.467864D-01
      7   0.462511D-01  0.944422D-01  0.355421D+00 -0.969325D-02  0.990716D-01
      8  -0.157400D-01 -0.574839D-01 -0.598962D-01 -0.307460D-01  0.363687D-01
      9  -0.638067D-01 -0.216937D+00 -0.977589D+00 -0.109563D+00 -0.269296D+00
     10  -0.731634D-02  0.387460D+00  0.817609D-01 -0.357011D+00  0.171604D+00
     11   0.864631D-01  0.118896D+01 -0.401217D+00 -0.450605D+00  0.175764D+00
     12  -0.150474D+00 -0.164072D-01 -0.104146D+00 -0.244284D+00 -0.367771D+00
     13  -0.450979D-01 -0.147733D+00 -0.313568D+00  0.215558D+00 -0.844344D-01
     14  -0.534566D-01  0.143081D+00  0.379852D+00 -0.606155D+00  0.142951D-01
     15  -0.555120D-01  0.108353D+00  0.105806D+01  0.663958D-01  0.297900D+00
     16  -0.142760D+00 -0.745328D-01 -0.955350D-01 -0.328237D-01 -0.403456D-01
               921           922           923           924           925 
      1  -0.151361D+03 -0.151354D+03 -0.151351D+03 -0.151338D+03 -0.151331D+03
      2  -0.794013D-01  0.104701D+00  0.351622D-01  0.120000D-03 -0.129433D+00
      3  -0.309072D-01 -0.457934D-01  0.450289D-01  0.784037D-01 -0.290126D-01
      4   0.640854D-01  0.445855D-01 -0.295865D-02  0.616743D-01  0.529347D-01
      5   0.253824D+00 -0.339233D+00 -0.103754D+00  0.601595D-02  0.409113D+00
      6   0.105350D+00  0.152770D+00 -0.141005D+00 -0.236463D+00  0.870806D-01
      7  -0.209204D+00 -0.139167D+00  0.388878D-02 -0.192653D+00 -0.168423D+00
      8   0.953586D-01  0.100464D+00  0.525408D-01  0.894884D-02  0.465093D-01
      9   0.398318D+00  0.417950D+00  0.740883D-01  0.426538D+00  0.145255D+00
     10   0.344428D+00  0.904669D-01 -0.234355D+00 -0.477434D+00  0.562988D+00
     11   0.628824D+00 -0.119707D+01  0.341772D+00 -0.376962D+00  0.192437D+01
     12  -0.124506D+00 -0.303729D-01  0.207629D+00  0.796819D-02  0.125810D+00
     13   0.153767D+00  0.796793D-01  0.947901D-01  0.129083D+00  0.912279D-01
     14   0.103650D+00  0.325145D+00 -0.222032D+00 -0.652353D+00  0.935946D-01
     15  -0.549738D+00 -0.254121D+00 -0.143136D+00 -0.455197D+00 -0.531707D+00
     16  -0.557836D-02 -0.822536D-02  0.150127D+00  0.116146D+00  0.436972D-01
               926           927           928           929           930 
      1  -0.151325D+03 -0.151321D+03 -0.151316D+03 -0.151303D+03 -0.151298D+03
      2  -0.171562D-01  0.631723D-01  0.268322D-01 -0.142171D-01 -0.348564D-02
      3   0.448338D-01  0.680177D-01 -0.173890D-01  0.327876D-01 -0.158538D-01
      4   0.555626D-01 -0.585556D-01 -0.718967D-02  0.248515D-01 -0.615937D-01
      5   0.523918D-01 -0.197832D+00 -0.794518D-01  0.522130D-01 -0.671887D-02
      6  -0.126071D+00 -0.219154D+00  0.556408D-01 -0.119284D+00  0.476304D-01
      7  -0.166640D+00  0.198417D+00  0.218971D-01 -0.728667D-01  0.194436D+00
      8   0.120646D+00 -0.196628D+00 -0.215660D-01 -0.466904D-01 -0.762484D-01
      9   0.420492D+00 -0.446329D+00 -0.403496D-01  0.257509D+00 -0.180610D+00
     10  -0.153971D+00 -0.378769D+00  0.495204D-01 -0.580974D+00  0.312036D+00
     11  -0.371481D+00 -0.161943D+01 -0.253919D+00  0.348597D+00 -0.717255D-01
     12   0.164646D-01  0.173768D+00 -0.102106D+00  0.123338D+00  0.133097D-01
     13   0.169369D+00 -0.696833D-01  0.363494D-01  0.188905D+00 -0.202872D+00
     14  -0.419420D+00 -0.239908D+00  0.593300D-01 -0.368557D+00  0.371409D+00
     15  -0.514934D+00  0.679458D+00  0.679747D-01 -0.268400D+00  0.148598D+00
     16   0.181923D+00 -0.103707D+00 -0.601501D-01  0.107090D+00 -0.146136D+00
               931           932           933           934           935 
      1  -0.151282D+03 -0.151279D+03 -0.151276D+03 -0.151260D+03 -0.151252D+03
      2  -0.326553D-01  0.922712D-01 -0.462944D-01  0.272839D-01  0.727094D-01
      3   0.182770D-01  0.460919D-01 -0.587119D-02 -0.397807D-02 -0.319615D-01
      4   0.469660D-01 -0.705283D-01  0.607060D-01  0.148181D-02 -0.696674D-01
      5   0.106229D+00 -0.298354D+00  0.158467D+00 -0.811084D-01 -0.244675D+00
      6  -0.515670D-01 -0.140226D+00  0.174926D-01  0.968932D-02  0.114351D+00
      7  -0.158215D+00  0.231901D+00 -0.184439D+00 -0.255198D-02  0.226162D+00
      8   0.144476D+00 -0.139559D+00  0.909768D-01 -0.115854D+00 -0.584146D-01
      9   0.511687D+00 -0.600172D+00  0.347857D+00 -0.448797D+00  0.145831D+00
     10   0.253686D+00 -0.665967D+00 -0.176995D+00 -0.195049D+00 -0.338636D-01
     11   0.451965D-02 -0.182954D+01  0.552904D+00  0.182534D+00 -0.953865D+00
     12   0.991645D-02  0.412424D+00 -0.666253D-01 -0.142324D+00 -0.160979D+00
     13   0.810431D-01 -0.800021D-01  0.935520D-01 -0.967744D-01 -0.447112D-01
     14   0.625313D-01 -0.356668D+00 -0.245080D+00 -0.213406D+00  0.437486D-01
     15  -0.646251D+00  0.732057D+00 -0.457444D+00  0.429569D+00  0.303311D-01
     16   0.186708D+00  0.322481D-01  0.114216D+00 -0.120558D+00  0.124230D-01
               936           937           938           939           940 
      1  -0.151244D+03 -0.151229D+03 -0.151222D+03 -0.151219D+03 -0.151214D+03
      2   0.363217D-01  0.241557D-01  0.205758D-01 -0.355613D-01 -0.153361D-02
      3  -0.303579D-02  0.281116D-01  0.199266D-02 -0.223413D-01 -0.106510D-01
      4   0.127065D-01 -0.145499D-01 -0.112170D-01 -0.374299D-01  0.179609D-01
      5  -0.108327D+00 -0.403858D-01 -0.819300D-01  0.109830D+00 -0.125422D-01
      6   0.224701D-01 -0.872256D-01 -0.692645D-02  0.518554D-01  0.352240D-01
      7  -0.352812D-01  0.426333D-01  0.363762D-01  0.102564D+00 -0.544263D-01
      8  -0.412138D-01  0.239536D-01  0.102518D-01  0.666844D-01 -0.245904D-01
      9   0.178645D+00  0.115397D-01 -0.162684D+00  0.166721D+00  0.118665D+00
     10  -0.148892D+00 -0.198392D+00 -0.365867D-01 -0.732841D-01  0.438627D-01
     11  -0.181766D+00  0.990511D+00 -0.671942D+00  0.200251D+00 -0.316156D+00
     12   0.775931D-01 -0.150749D+00 -0.301466D-01  0.409681D-01  0.488621D-01
     13   0.927443D-01  0.127930D+00  0.888656D-01  0.742211D-01  0.566060D-01
     14   0.314331D-01 -0.183701D+00  0.121291D-02 -0.154799D+00  0.782744D-01
     15  -0.691782D-01 -0.118219D+00  0.162888D+00 -0.249795D+00 -0.752329D-01
     16   0.278831D-01 -0.369233D-01  0.504214D-01  0.230548D-01  0.121598D-01
               941           942           943           944           945 
      1  -0.151210D+03 -0.151192D+03 -0.151178D+03 -0.151171D+03 -0.151164D+03
      2   0.630581D-02 -0.491600D-01  0.433278D-02  0.908922D-01  0.807115D-01
      3   0.993935D-02 -0.112899D-01  0.106959D+00  0.138517D+00  0.885214D-01
      4  -0.253308D-01  0.472066D-01  0.259140D-01  0.145814D+00  0.516990D-01
      5  -0.274693D-01  0.170266D+00 -0.187592D-02 -0.281813D+00 -0.272303D+00
      6  -0.428417D-01  0.412072D-01 -0.334081D+00 -0.463176D+00 -0.277742D+00
      7   0.900275D-01 -0.166774D+00 -0.904531D-01 -0.479134D+00 -0.167403D+00
      8  -0.721172D-02  0.263761D+00 -0.421658D-01  0.377526D-01  0.104027D+00
      9  -0.285572D+00  0.110393D+00  0.406785D+00  0.128381D+01  0.383425D+00
     10  -0.299280D+00  0.877223D-02 -0.163585D+00 -0.138631D+01 -0.375604D+00
     11  -0.621827D+00  0.805257D+00 -0.460718D+00 -0.144894D+01 -0.137162D+01
     12   0.122371D+00 -0.191645D+00  0.182355D+00  0.285049D+00  0.256257D+00
     13  -0.142868D-01  0.122039D+00 -0.167236D-01  0.385332D+00  0.611803D-01
     14  -0.294740D+00 -0.118951D+00 -0.136546D+00 -0.131278D+01 -0.269955D+00
     15   0.370896D+00 -0.210857D+00 -0.381941D+00 -0.123738D+01 -0.216790D+00
     16  -0.578968D-01  0.510699D-01  0.601261D-01  0.315338D+00  0.232169D+00
               946           947           948           949           950 
      1  -0.151142D+03 -0.151140D+03 -0.151115D+03 -0.151095D+03 -0.151065D+03
      2  -0.307397D-01  0.972653D-01 -0.326145D-01 -0.420010D-01  0.183852D-01
      3  -0.827296D-01  0.540308D-01 -0.225389D-02 -0.817001D-01 -0.371280D-01
      4   0.205394D-01  0.142415D+00  0.173603D-01 -0.780378D-01  0.648659D-01
      5   0.962770D-01 -0.326747D+00  0.117987D+00  0.136984D+00 -0.687620D-01
      6   0.280505D+00 -0.168502D+00  0.113575D-01  0.274325D+00  0.117453D+00
      7  -0.806155D-01 -0.467775D+00 -0.460749D-01  0.255948D+00 -0.195913D+00
      8   0.130226D-01  0.211133D+00  0.275564D-01 -0.554708D-01 -0.757859D-01
      9   0.328550D+00  0.723116D+00 -0.420335D+00 -0.479412D+00 -0.137763D+00
     10   0.692029D+00 -0.569768D+00  0.503166D+00  0.646991D+00  0.925516D-02
     11   0.549827D+00 -0.144212D+01  0.352086D+00  0.655899D+00 -0.350476D+00
     12  -0.370873D+00  0.200213D+00 -0.400247D-01 -0.340036D+00  0.167536D-01
     13   0.136664D+00  0.300784D+00 -0.136396D+00 -0.809115D-01  0.866151D-02
     14   0.700731D+00 -0.230879D+00  0.253489D+00  0.477181D+00  0.145298D-01
     15  -0.511993D+00 -0.658240D+00  0.348464D+00  0.509320D+00  0.631943D-01
     16   0.397470D-01  0.320954D+00 -0.132699D+00 -0.189585D+00 -0.587373D-01
               951           952           953           954           955 
      1  -0.151050D+03 -0.151043D+03 -0.151027D+03 -0.151022D+03 -0.151019D+03
      2   0.958107D-02  0.771443D-01 -0.310916D-01 -0.118307D-01  0.184253D-01
      3   0.269803D-01 -0.272885D-01  0.915837D-02  0.689954D-01 -0.226702D-01
      4   0.287061D-01  0.405742D-02  0.438633D-02  0.398112D-01  0.692912D-02
      5  -0.219159D-01 -0.269383D+00  0.102621D+00  0.561935D-01 -0.741374D-01
      6  -0.910480D-01  0.102506D+00 -0.352551D-01 -0.241865D+00  0.672788D-01
      7  -0.929148D-01 -0.220578D-01 -0.933158D-02 -0.129321D+00 -0.293293D-01
      8  -0.754549D-02  0.165149D+00 -0.945156D-01  0.453472D-01  0.948828D-01
      9   0.653603D-01  0.277888D+00 -0.214308D+00  0.293727D+00  0.229582D+00
     10  -0.160733D+00  0.233184D+00 -0.238142D+00 -0.605757D+00 -0.324406D+00
     11   0.480297D-01 -0.116470D+01  0.404574D+00 -0.880936D-01 -0.117608D+00
     12  -0.145764D+00 -0.207516D+00  0.402383D-01  0.485419D+00  0.124979D-01
     13   0.399626D-01  0.135254D+00 -0.791682D-01  0.934407D-01  0.118500D-01
     14  -0.149705D+00  0.504176D+00 -0.115109D+00 -0.596044D+00 -0.162043D+00
     15  -0.271190D-01 -0.199626D+00  0.326525D+00 -0.352553D+00 -0.244145D+00
     16  -0.106860D-01  0.718080D-01 -0.625415D-01  0.228781D+00  0.304223D-01
               956           957           958           959           960 
      1  -0.150977D+03 -0.150970D+03 -0.150944D+03 -0.150924D+03 -0.150922D+03
      2  -0.125000D+00 -0.142658D-01 -0.611722D-01  0.618757D-01 -0.723596D-01
      3   0.742013D-01 -0.104144D-01  0.487389D-01  0.314265D-02  0.777361D-01
      4  -0.115613D-01  0.265365D-02  0.883073D-02  0.643539D-03  0.337626D-02
      5   0.448502D+00  0.579130D-01  0.225832D+00 -0.213951D+00  0.277962D+00
      6  -0.271781D+00  0.359525D-01 -0.188484D+00  0.724389D-02 -0.288027D+00
      7   0.425788D-01 -0.220175D-02 -0.231230D-01  0.176091D-02 -0.172573D-01
      8  -0.752409D-01 -0.522398D-01 -0.883002D-01 -0.154274D-01  0.225698D-01
      9  -0.136341D+00 -0.257901D+00 -0.103487D-01  0.528297D-01  0.798525D-01
     10  -0.257265D+00 -0.560914D-02 -0.415284D+00  0.719828D-01 -0.561998D+00
     11   0.183530D+01  0.746634D+00  0.110389D+01 -0.714198D+00  0.107080D+01
     12  -0.610634D-03 -0.304745D+00  0.201710D+00 -0.244766D+00  0.431130D-01
     13  -0.288561D-01  0.682241D-01 -0.738629D-01  0.658768D-01  0.113507D+00
     14  -0.466829D+00  0.636598D-01 -0.572599D+00  0.115459D+00 -0.662033D+00
     15  -0.684757D-01  0.279410D+00 -0.740067D-01  0.673539D-01 -0.211801D+00
     16   0.204086D-01 -0.125453D+00 -0.206737D-01 -0.106858D+00  0.182722D+00
               961           962           963           964           965 
      1  -0.150911D+03 -0.150887D+03 -0.150819D+03 -0.150805D+03 -0.150795D+03
      2  -0.290620D-01 -0.204333D-01 -0.332131D-01  0.652945D-02 -0.691017D-01
      3  -0.345012D-01  0.177040D-01 -0.271854D-01  0.529917D-02 -0.851730D-01
      4  -0.207615D-01  0.305514D-01  0.165742D-01 -0.227820D-01 -0.900384D-01
      5   0.952655D-01  0.698862D-01  0.123851D+00 -0.242182D-01  0.261420D+00
      6   0.120440D+00 -0.580136D-01  0.917639D-01 -0.179841D-01  0.327458D+00
      7   0.709620D-01 -0.101179D+00 -0.527861D-01  0.744930D-01  0.339982D+00
      8  -0.557933D-01  0.445649D-02 -0.351163D-03  0.817692D-01 -0.108202D+00
      9  -0.274251D+00 -0.876572D-01  0.649604D-01 -0.434895D-01 -0.797118D+00
     10   0.358730D+00 -0.237512D-01  0.150925D+00 -0.137960D-01  0.908526D+00
     11   0.215341D+00  0.135654D+00  0.657845D+00 -0.157489D+00  0.114869D+01
     12  -0.259741D+00  0.168333D-01 -0.475630D-01 -0.690061D-01 -0.126076D+00
     13   0.296451D+00 -0.684743D-01  0.132908D-02  0.107302D+00 -0.303611D+00
     14   0.714649D-01 -0.117626D-01  0.389984D-01 -0.435726D-01  0.759330D+00
     15   0.304710D+00  0.163931D+00  0.628042D-01  0.329247D-01  0.588459D+00
     16   0.400878D-01  0.616233D-02 -0.392215D-01  0.383241D-01 -0.221378D+00
               966           967           968           969           970 
      1  -0.150782D+03 -0.150777D+03 -0.150702D+03 -0.150691D+03 -0.150650D+03
      2  -0.100855D-02  0.140575D-01 -0.289650D-01  0.105014D+00  0.214300D-01
      3   0.114643D-01 -0.104895D-01  0.315749D-02 -0.156206D+00  0.314637D-02
      4   0.257322D-01 -0.328446D-01 -0.181131D-02  0.698743D-01  0.251171D-02
      5  -0.226437D-01 -0.817803D-01  0.116610D+00 -0.426112D+00 -0.962869D-01
      6  -0.224032D-01  0.517432D-01 -0.171794D-01  0.612844D+00 -0.517948D-02
      7  -0.891471D-01  0.120700D+00  0.110017D-01 -0.263351D+00  0.123920D-02
      8   0.188680D-01 -0.163613D-01 -0.440549D-01  0.192367D+00 -0.860162D-01
      9   0.182052D+00 -0.186944D+00 -0.114556D+00  0.624640D+00 -0.152378D+00
     10  -0.705576D-01 -0.448965D-01 -0.247078D-01  0.113344D+01 -0.559717D-01
     11  -0.631354D+00 -0.641503D+00  0.586017D+00 -0.213095D+01 -0.455813D+00
     12  -0.124172D+00 -0.252647D+00  0.741244D-01 -0.445671D+00 -0.127445D-02
     13   0.508157D-01  0.940412D-01 -0.103299D-01  0.153878D+00 -0.305621D-01
     14   0.431135D+00  0.246995D+00 -0.228097D+00  0.154826D+01  0.249920D-01
     15  -0.342293D-01  0.195136D+00  0.421675D-01 -0.424627D+00  0.687204D-01
     16   0.185716D-01 -0.848063D-01  0.438074D-01 -0.203586D+00 -0.997798D-01
               971           972           973           974           975 
      1  -0.150630D+03 -0.150597D+03 -0.150565D+03 -0.150525D+03 -0.150497D+03
      2  -0.161892D-01  0.613810D-01 -0.270120D-01 -0.228712D-01 -0.321313D-01
      3   0.569165D-02  0.837411D-02 -0.434825D-01 -0.632183D-01 -0.478782D-02
      4   0.891093D-02 -0.718332D-01  0.223668D-01  0.109225D+00  0.179377D-01
      5   0.422579D-01 -0.257307D+00  0.111083D+00  0.102869D+00  0.135018D+00
      6  -0.603726D-02 -0.147521D-01  0.161965D+00  0.237565D+00  0.163291D-01
      7  -0.324231D-01  0.283530D+00 -0.799854D-01 -0.428121D+00 -0.759842D-01
      8   0.368580D-02 -0.992714D-01  0.584497D-01  0.254962D+00  0.255428D-01
      9   0.677814D-01 -0.550505D+00  0.190560D+00  0.954271D+00  0.139829D+00
     10   0.112588D+00 -0.121100D+00  0.390550D+00  0.595162D+00  0.613615D-01
     11  -0.297536D+00 -0.117615D+01  0.437021D+00  0.369069D+00  0.680476D+00
     12  -0.225326D+00 -0.754509D-01 -0.285696D-01 -0.267837D+00  0.385197D-01
     13   0.743173D-01 -0.188874D+00  0.436830D-02  0.353912D+00  0.332206D-01
     14   0.412239D+00  0.115435D+00  0.357951D+00  0.552692D+00 -0.561048D-01
     15  -0.123516D-01  0.668608D+00 -0.274065D+00 -0.106170D+01 -0.207816D+00
     16  -0.294777D-01 -0.149467D-01 -0.677403D-01 -0.100117D-01  0.151489D-01
               976           977           978           979           980 
      1  -0.150467D+03 -0.150446D+03 -0.150327D+03 -0.150176D+03 -0.150021D+03
      2  -0.122928D-01 -0.178091D-01  0.679850D-02 -0.376591D-02  0.672394D-02
      3  -0.470080D-01 -0.291086D-01  0.193446D-01  0.238825D-02  0.195086D-01
      4   0.398160D-01  0.551438D-01 -0.333914D-01  0.272879D-02 -0.268836D-01
      5   0.682393D-01  0.288678D-01 -0.360895D-01  0.134935D-01 -0.518965D-01
      6   0.171525D+00  0.144360D+00 -0.728868D-01 -0.110834D-01 -0.624027D-01
      7  -0.163971D+00 -0.215209D+00  0.136336D+00 -0.118473D-01  0.111839D+00
      8   0.130667D+00  0.145301D+00 -0.745114D-01  0.125766D-01 -0.518311D-01
      9   0.390588D+00  0.510409D+00 -0.300771D+00  0.309214D-01 -0.233086D+00
     10   0.432457D+00  0.393086D+00 -0.190309D+00  0.310904D-02 -0.152827D+00
     11   0.308798D+00  0.650128D-01 -0.390898D+00 -0.159675D+00 -0.141758D+00
     12  -0.163433D+00 -0.203952D+00 -0.146754D-01 -0.703676D-01  0.137454D-01
     13   0.152031D+00  0.807963D-01 -0.900754D-01  0.448981D-01 -0.946294D-01
     14   0.462198D+00  0.277540D+00  0.326315D-02  0.822886D-01 -0.886408D-01
     15  -0.474153D+00 -0.606294D+00  0.375765D+00 -0.192152D-01  0.276933D+00
     16   0.126627D-01 -0.110500D+00 -0.628950D-01 -0.675440D-01  0.151439D+00
 Unable to Open any file for archive entry.
 1\1\GINC-HEL25\SP\RM062X TD-FC\Gen\C2H6O1\SABYASACHI\21-Mar-2022\0\\#P
  TD(Nstates=10000) m062x/Gen SCF(maxcycles=100) Int(Grid=ultrafine)\\x
 GDB7_00001_tier4.com\\0,1\C,0,-1.208422,-0.239069,-0.021917\C,0,0.0838
 93,0.553452,0.046734\O,0,1.233467,-0.256002,-0.105864\H,0,-2.071999,0.
 425136,0.0517\H,0,-1.27067,-0.957756,0.799731\H,0,-1.270625,-0.78828,-
 0.962327\H,0,0.13003,1.119197,0.986112\H,0,0.125952,1.277026,-0.768547
 \H,0,1.236751,-0.913605,0.591341\\Version=EM64L-G16RevC.01\State=1-A\H
 F=-154.8552955\RMSD=8.079e-09\PG=C01 [X(C2H6O1)]\\@
 The archive entry for this job was punched.


 SUCCESS IS COUNTED SWEETEST
 BY THOSE WHO NE'ER SUCCEED.
 TO COMPREHEND NECTAR
 REQUIRES SOREST NEED.
           EMILY DICKINSON
 Job cpu time:       0 days  0 hours 53 minutes 19.0 seconds.
 Elapsed time:       0 days  0 hours  6 minutes 40.2 seconds.
 File lengths (MBytes):  RWF=   1237 Int=      0 D2E=      0 Chk=    291 Scr=      1
 Normal termination of Gaussian 16 at Mon Mar 21 20:08:53 2022.
