 Entering Gaussian System, Link 0=g16
 Input=bigQM7w_TDwB97XD_def2TZVP_000030.com
 Output=bigQM7w_TDwB97XD_def2TZVP_000030.log
 Initial command:
 /home/rr/g16/l1.exe "/scratch/rr/PBS_7918683.helios/Gau-4943.inp" -scrdir="/scratch/rr/PBS_7918683.helios/"
 Entering Link 1 = /home/rr/g16/l1.exe PID=      4946.
  
 Copyright (c) 1988-2019, Gaussian, Inc.  All Rights Reserved.
  
 This is part of the Gaussian(R) 16 program.  It is based on
 the Gaussian(R) 09 system (copyright 2009, Gaussian, Inc.),
 the Gaussian(R) 03 system (copyright 2003, Gaussian, Inc.),
 the Gaussian(R) 98 system (copyright 1998, Gaussian, Inc.),
 the Gaussian(R) 94 system (copyright 1995, Gaussian, Inc.),
 the Gaussian 92(TM) system (copyright 1992, Gaussian, Inc.),
 the Gaussian 90(TM) system (copyright 1990, Gaussian, Inc.),
 the Gaussian 88(TM) system (copyright 1988, Gaussian, Inc.),
 the Gaussian 86(TM) system (copyright 1986, Carnegie Mellon
 University), and the Gaussian 82(TM) system (copyright 1983,
 Carnegie Mellon University). Gaussian is a federally registered
 trademark of Gaussian, Inc.
  
 This software contains proprietary and confidential information,
 including trade secrets, belonging to Gaussian, Inc.
  
 This software is provided under written license and may be
 used, copied, transmitted, or stored only in accord with that
 written license.
  
 The following legend is applicable only to US Government
 contracts under FAR:
  
                    RESTRICTED RIGHTS LEGEND
  
 Use, reproduction and disclosure by the US Government is
 subject to restrictions as set forth in subparagraphs (a)
 and (c) of the Commercial Computer Software - Restricted
 Rights clause in FAR 52.227-19.
  
 Gaussian, Inc.
 340 Quinnipiac St., Bldg. 40, Wallingford CT 06492
  
  
 ---------------------------------------------------------------
 Warning -- This program may not be used in any manner that
 competes with the business of Gaussian, Inc. or will provide
 assistance to any competitor of Gaussian, Inc.  The licensee
 of this program is prohibited from giving any competitor of
 Gaussian, Inc. access to this program.  By using this program,
 the user acknowledges that Gaussian, Inc. is engaged in the
 business of creating and licensing software in the field of
 computational chemistry and represents and warrants to the
 licensee that it is not a competitor of Gaussian, Inc. and that
 it will not use this program in any manner prohibited above.
 ---------------------------------------------------------------
  

 Cite this work as:
 Gaussian 16, Revision C.01,
 M. J. Frisch, G. W. Trucks, H. B. Schlegel, G. E. Scuseria, 
 M. A. Robb, J. R. Cheeseman, G. Scalmani, V. Barone, 
 G. A. Petersson, H. Nakatsuji, X. Li, M. Caricato, A. V. Marenich, 
 J. Bloino, B. G. Janesko, R. Gomperts, B. Mennucci, H. P. Hratchian, 
 J. V. Ortiz, A. F. Izmaylov, J. L. Sonnenberg, D. Williams-Young, 
 F. Ding, F. Lipparini, F. Egidi, J. Goings, B. Peng, A. Petrone, 
 T. Henderson, D. Ranasinghe, V. G. Zakrzewski, J. Gao, N. Rega, 
 G. Zheng, W. Liang, M. Hada, M. Ehara, K. Toyota, R. Fukuda, 
 J. Hasegawa, M. Ishida, T. Nakajima, Y. Honda, O. Kitao, H. Nakai, 
 T. Vreven, K. Throssell, J. A. Montgomery, Jr., J. E. Peralta, 
 F. Ogliaro, M. J. Bearpark, J. J. Heyd, E. N. Brothers, K. N. Kudin, 
 V. N. Staroverov, T. A. Keith, R. Kobayashi, J. Normand, 
 K. Raghavachari, A. P. Rendell, J. C. Burant, S. S. Iyengar, 
 J. Tomasi, M. Cossi, J. M. Millam, M. Klene, C. Adamo, R. Cammi, 
 J. W. Ochterski, R. L. Martin, K. Morokuma, O. Farkas, 
 J. B. Foresman, and D. J. Fox, Gaussian, Inc., Wallingford CT, 2019.
 
 ******************************************
 Gaussian 16:  EM64L-G16RevC.01  3-Jul-2019
                27-Feb-2022 
 ******************************************
 %mem=64gb
 %nproc=8
 Will use up to    8 processors via shared memory.
 ----------------------------------------------------------------------
 #P TD(Nstates=10000) wB97XD/Gen SCF(maxcycles=100) Int(Grid=ultrafine)
 ----------------------------------------------------------------------
 1/38=1,172=1/1;
 2/12=2,17=6,18=5,40=1/2;
 3/5=7,11=9,25=1,30=1,74=-58,75=-5/1,2,3,8;
 4//1;
 5/5=2,7=100,38=5/2;
 8/6=1,10=1,108=10000/1;
 9/41=10000,42=1,70=2/14;
 6/7=2,8=2,9=2,10=2/1;
 99/5=1,9=1/99;
 Leave Link    1 at Sun Feb 27 06:35:51 2022, MaxMem=  8589934592 cpu:               0.4 elap:               0.1
 (Enter /home/rr/g16/l101.exe)
 ---------------------
 xGDB7_00001_tier4.com
 ---------------------
 Symbolic Z-matrix:
 Charge =  0 Multiplicity = 1
 6                     1.23667   0.        0. 
 6                    -0.21874  -0.00001  -0.00001 
 6                    -1.41578   0.       0. 
 1                     1.62205   0.97904   0.28809 
 1                     1.62207  -0.24002  -0.9919 
 1                     1.62204  -0.73902   0.70382 
 1                    -2.47906  -0.00001   0.00001 
 
 ITRead=  0  0  0  0  0  0  0
 MicOpt= -1 -1 -1 -1 -1 -1 -1
 NAtoms=      7 NQM=        7 NQMF=       0 NMMI=      0 NMMIF=      0
                NMic=       0 NMicF=      0.
                    Isotopes and Nuclear Properties:
 (Nuclear quadrupole moments (NQMom) in fm**2, nuclear magnetic moments (NMagM)
  in nuclear magnetons)

  Atom         1           2           3           4           5           6           7
 IAtWgt=          12          12          12           1           1           1           1
 AtmWgt=  12.0000000  12.0000000  12.0000000   1.0078250   1.0078250   1.0078250   1.0078250
 NucSpn=           0           0           0           1           1           1           1
 AtZEff=  -0.0000000  -0.0000000  -0.0000000  -0.0000000  -0.0000000  -0.0000000  -0.0000000
 NQMom=    0.0000000   0.0000000   0.0000000   0.0000000   0.0000000   0.0000000   0.0000000
 NMagM=    0.0000000   0.0000000   0.0000000   2.7928460   2.7928460   2.7928460   2.7928460
 AtZNuc=   6.0000000   6.0000000   6.0000000   1.0000000   1.0000000   1.0000000   1.0000000
 Leave Link  101 at Sun Feb 27 06:35:51 2022, MaxMem=  8589934592 cpu:               0.9 elap:               0.1
 (Enter /home/rr/g16/l202.exe)
                          Input orientation:                          
 ---------------------------------------------------------------------
 Center     Atomic      Atomic             Coordinates (Angstroms)
 Number     Number       Type             X           Y           Z
 ---------------------------------------------------------------------
      1          6           0        1.236673    0.000003    0.000003
      2          6           0       -0.218742   -0.000006   -0.000005
      3          6           0       -1.415780    0.000004   -0.000001
      4          1           0        1.622045    0.979039    0.288094
      5          1           0        1.622070   -0.240023   -0.991898
      6          1           0        1.622037   -0.739019    0.703815
      7          1           0       -2.479058   -0.000005    0.000008
 ---------------------------------------------------------------------
                    Distance matrix (angstroms):
                    1          2          3          4          5
     1  C    0.000000
     2  C    1.455415   0.000000
     3  C    2.652453   1.197038   0.000000
     4  H    1.090880   2.104763   3.204667   0.000000
     5  H    1.090876   2.104768   3.204685   1.767623   0.000000
     6  H    1.090876   2.104749   3.204660   1.767639   1.767608
     7  H    3.715731   2.260316   1.063278   4.226176   4.226197
                    6          7
     6  H    0.000000
     7  H    4.226164   0.000000
 This structure is nearly, but not quite of a higher symmetry.
 Consider Symm=Loose if the higher symmetry is desired.
 Stoichiometry    C3H4
 Framework group  C1[X(C3H4)]
 Deg. of freedom    15
 Full point group                 C1      NOp   1
 Largest Abelian subgroup         C1      NOp   1
 Largest concise Abelian subgroup C1      NOp   1
                         Standard orientation:                         
 ---------------------------------------------------------------------
 Center     Atomic      Atomic             Coordinates (Angstroms)
 Number     Number       Type             X           Y           Z
 ---------------------------------------------------------------------
      1          6           0        0.000284   -0.018657   -1.236532
      2          6           0       -0.000055    0.003295    0.218717
      3          6           0       -0.000323    0.021367    1.415619
      4          1           0        0.273656    0.958689   -1.636635
      5          1           0       -0.987794   -0.279414   -1.618263
      6          1           0        0.715256   -0.752703   -1.610700
      7          1           0       -0.000556    0.037402    2.478776
 ---------------------------------------------------------------------
 Rotational constants (GHZ):         160.4916800           8.6297027           8.6296934
 Leave Link  202 at Sun Feb 27 06:35:51 2022, MaxMem=  8589934592 cpu:               0.2 elap:               0.1
 (Enter /home/rr/g16/l301.exe)
 General basis read from cards:  (5D, 7F)
 Centers:       4      5      6      7
 S 3 1.00
     Exponent=  3.4061341000D+01 Coefficients=  6.0251978000D-03
     Exponent=  5.1235746000D+00 Coefficients=  4.5021094000D-02
     Exponent=  1.1646626000D+00 Coefficients=  2.0189726000D-01
 S 1 1.00
     Exponent=  3.2723041000D-01 Coefficients=  1.0000000000D+00
 S 1 1.00
     Exponent=  1.0307241000D-01 Coefficients=  1.0000000000D+00
 P 1 1.00
     Exponent=  8.0000000000D-01 Coefficients=  1.0000000000D+00
 P 1 1.00
     Exponent=  9.5774129632D-02 Coefficients=  1.0000000000D+00
 ****
 Centers:       1      2      3
 S 6 1.00
     Exponent=  1.3575349682D+04 Coefficients=  2.2245814352D-04
     Exponent=  2.0352333680D+03 Coefficients=  1.7232738252D-03
     Exponent=  4.6322562359D+02 Coefficients=  8.9255715314D-03
     Exponent=  1.3120019598D+02 Coefficients=  3.5727984502D-02
     Exponent=  4.2853015891D+01 Coefficients=  1.1076259931D-01
     Exponent=  1.5584185766D+01 Coefficients=  2.4295627626D-01
 S 2 1.00
     Exponent=  6.2067138508D+00 Coefficients=  4.1440263448D-01
     Exponent=  2.5764896527D+00 Coefficients=  2.3744968655D-01
 S 1 1.00
     Exponent=  5.7696339419D-01 Coefficients=  1.0000000000D+00
 S 1 1.00
     Exponent=  2.2972831358D-01 Coefficients=  1.0000000000D+00
 S 1 1.00
     Exponent=  9.5164440028D-02 Coefficients=  1.0000000000D+00
 S 1 1.00
     Exponent=  4.8475401370D-02 Coefficients=  1.0000000000D+00
 P 4 1.00
     Exponent=  3.4697232244D+01 Coefficients=  5.3333657805D-03
     Exponent=  7.9582622826D+00 Coefficients=  3.5864109092D-02
     Exponent=  2.3780826883D+00 Coefficients=  1.4215873329D-01
     Exponent=  8.1433208183D-01 Coefficients=  3.4270471845D-01
 P 1 1.00
     Exponent=  2.8887547253D-01 Coefficients=  4.6445822433D-01
 P 1 1.00
     Exponent=  1.0056823671D-01 Coefficients=  2.4955789874D-01
 D 1 1.00
     Exponent=  1.0970000000D+00 Coefficients=  1.0000000000D+00
 D 1 1.00
     Exponent=  3.1800000000D-01 Coefficients=  1.0000000000D+00
 D 1 1.00
     Exponent=  9.0985336424D-02 Coefficients=  1.0000000000D+00
 F 1 1.00
     Exponent=  7.6100000000D-01 Coefficients=  1.0000000000D+00
 ****
 Ernie: Thresh=  0.10000D-02 Tol=  0.10000D-05 Strict=F.
 There are   165 symmetry adapted cartesian basis functions of A   symmetry.
 There are   147 symmetry adapted basis functions of A   symmetry.
   147 basis functions,   218 primitive gaussians,   165 cartesian basis functions
    11 alpha electrons       11 beta electrons
       nuclear repulsion energy        58.9346497608 Hartrees.
 IExCor= 4639 DFT=T Ex+Corr=wB97XD ExCW=0 ScaHFX=  1.000000
 ScaDFX=  1.000000  1.000000  1.000000  1.000000 ScalE2=  1.000000  1.000000
 IRadAn=      5 IRanWt=     -1 IRanGd=            0 ICorTp=0 IEmpDi=121
 HFx  wShort=  0.000000 wLong=  0.200000 cFull=  0.222036 cShort=  0.000000 cLong=  0.777964
 DFx  wShort=  0.000000 wLong=  0.200000 cFull=  0.000000 cShort=  0.000000 cLong=  1.000000
 NAtoms=    7 NActive=    7 NUniq=    7 SFac= 1.00D+00 NAtFMM=   60 NAOKFM=F Big=F
 Integral buffers will be    131072 words long.
 Raffenetti 1 integral format.
 Two-electron integral symmetry is turned on.
 R6Disp:  Grimme-D2 Dispersion energy=       -0.0010673845 Hartrees.
 Nuclear repulsion after empirical dispersion term =       58.9335823763 Hartrees.
 Leave Link  301 at Sun Feb 27 06:35:51 2022, MaxMem=  8589934592 cpu:               1.0 elap:               0.2
 (Enter /home/rr/g16/l302.exe)
 NPDir=0 NMtPBC=     1 NCelOv=     1 NCel=       1 NClECP=     1 NCelD=      1
         NCelK=      1 NCelE2=     1 NClLst=     1 CellRange=     0.0.
 One-electron integrals computed using PRISM.
 One-electron integral symmetry used in STVInt
 NBasis=   147 RedAO= T EigKep=  8.03D-06  NBF=   147
 NBsUse=   146 1.00D-06 EigRej=  6.31D-07 NBFU=   146
 Precomputing XC quadrature grid using
 IXCGrd= 4 IRadAn=           5 IRanWt=          -1 IRanGd=           0 AccXCQ= 0.00D+00.
 Generated NRdTot=       0 NPtTot=           0 NUsed=           0 NTot=          32
 NSgBfM=   165   165   165   165   165 MxSgAt=     7 MxSgA2=     7.
 Leave Link  302 at Sun Feb 27 06:35:52 2022, MaxMem=  8589934592 cpu:               2.3 elap:               0.4
 (Enter /home/rr/g16/l303.exe)
 DipDrv:  MaxL=1.
 Leave Link  303 at Sun Feb 27 06:35:52 2022, MaxMem=  8589934592 cpu:               0.4 elap:               0.1
 (Enter /home/rr/g16/l308.exe)
 Leave Link  308 at Sun Feb 27 06:35:52 2022, MaxMem=  8589934592 cpu:               0.4 elap:               0.1
 (Enter /home/rr/g16/l401.exe)
 ExpMin= 4.85D-02 ExpMax= 1.36D+04 ExpMxC= 4.63D+02 IAcc=3 IRadAn=         5 AccDes= 0.00D+00
 Harris functional with IExCor= 4639 and IRadAn=       5 diagonalized for initial guess.
 HarFok:  IExCor= 4639 AccDes= 0.00D+00 IRadAn=         5 IDoV= 1 UseB2=F ITyADJ=14
 ICtDFT=  3500011 ScaDFX=  1.000000  1.000000  1.000000  1.000000
 FoFCou: FMM=F IPFlag=           0 FMFlag=      100000 FMFlg1=           0
         NFxFlg=           0 DoJE=T BraDBF=F KetDBF=T FulRan=T
         wScrn=  0.000000 ICntrl=       500 IOpCl=  0 I1Cent=   200000004 NGrid=           0
         NMat0=    1 NMatS0=      1 NMatT0=    0 NMatD0=    1 NMtDS0=    0 NMtDT0=    0
 Petite list used in FoFCou.
 Harris En= -111.142761632574    
 JPrj=0 DoOrth=F DoCkMO=F.
 Leave Link  401 at Sun Feb 27 06:35:53 2022, MaxMem=  8589934592 cpu:               5.4 elap:               0.8
 (Enter /home/rr/g16/l502.exe)
 Keep R1 ints in memory in canonical form, NReq=127907438.
 FoFCou: FMM=F IPFlag=           0 FMFlag=           0 FMFlg1=           0
         NFxFlg=           0 DoJE=F BraDBF=F KetDBF=F FulRan=T
         wScrn=  0.000000 ICntrl=       600 IOpCl=  0 I1Cent=           0 NGrid=           0
         NMat0=    1 NMatS0=  10878 NMatT0=    0 NMatD0=    1 NMtDS0=    0 NMtDT0=    0
 Symmetry not used in FoFCou.
 Two-electron integral symmetry not used.
 Closed shell SCF:
 Using DIIS extrapolation, IDIIS=  1040.
 NGot=  8589934592 LenX=  8471535320 LenY=  8471507654
 Requested convergence on RMS density matrix=1.00D-08 within 100 cycles.
 Requested convergence on MAX density matrix=1.00D-06.
 Requested convergence on             energy=1.00D-06.
 No special actions if energy rises.

 Cycle   1  Pass 1  IDiag  1:
 E= -116.612093902492    
 DIIS: error= 6.07D-02 at cycle   1 NSaved=   1.
 NSaved= 1 IEnMin= 1 EnMin= -116.612093902492     IErMin= 1 ErrMin= 6.07D-02
 ErrMax= 6.07D-02  0.00D+00 EMaxC= 1.00D-01 BMatC= 2.58D-01 BMatP= 2.58D-01
 IDIUse=3 WtCom= 3.93D-01 WtEn= 6.07D-01
 Coeff-Com:  0.100D+01
 Coeff-En:   0.100D+01
 Coeff:      0.100D+01
 Gap=     0.378 Goal=   None    Shift=    0.000
 GapD=    0.378 DampG=1.000 DampE=0.500 DampFc=0.5000 IDamp=-1.
 Damping current iteration by 5.00D-01
 RMSDP=5.30D-03 MaxDP=1.56D-01              OVMax= 6.00D-02

 Cycle   2  Pass 1  IDiag  1:
 E= -116.634520534268     Delta-E=       -0.022426631775 Rises=F Damp=T
 DIIS: error= 3.03D-02 at cycle   2 NSaved=   2.
 NSaved= 2 IEnMin= 2 EnMin= -116.634520534268     IErMin= 2 ErrMin= 3.03D-02
 ErrMax= 3.03D-02  0.00D+00 EMaxC= 1.00D-01 BMatC= 5.71D-02 BMatP= 2.58D-01
 IDIUse=3 WtCom= 6.97D-01 WtEn= 3.03D-01
 Coeff-Com: -0.827D+00 0.183D+01
 Coeff-En:   0.000D+00 0.100D+01
 Coeff:     -0.576D+00 0.158D+01
 Gap=     0.431 Goal=   None    Shift=    0.000
 RMSDP=2.65D-03 MaxDP=9.95D-02 DE=-2.24D-02 OVMax= 3.52D-02

 Cycle   3  Pass 1  IDiag  1:
 E= -116.653698377610     Delta-E=       -0.019177843342 Rises=F Damp=F
 DIIS: error= 3.66D-03 at cycle   3 NSaved=   3.
 NSaved= 3 IEnMin= 3 EnMin= -116.653698377610     IErMin= 3 ErrMin= 3.66D-03
 ErrMax= 3.66D-03  0.00D+00 EMaxC= 1.00D-01 BMatC= 1.64D-03 BMatP= 5.71D-02
 IDIUse=3 WtCom= 9.63D-01 WtEn= 3.66D-02
 Coeff-Com: -0.290D+00 0.632D+00 0.658D+00
 Coeff-En:   0.000D+00 0.000D+00 0.100D+01
 Coeff:     -0.279D+00 0.609D+00 0.670D+00
 Gap=     0.421 Goal=   None    Shift=    0.000
 RMSDP=2.61D-04 MaxDP=6.69D-03 DE=-1.92D-02 OVMax= 1.87D-02

 Cycle   4  Pass 1  IDiag  1:
 E= -116.654846926428     Delta-E=       -0.001148548818 Rises=F Damp=F
 DIIS: error= 1.59D-03 at cycle   4 NSaved=   4.
 NSaved= 4 IEnMin= 4 EnMin= -116.654846926428     IErMin= 4 ErrMin= 1.59D-03
 ErrMax= 1.59D-03  0.00D+00 EMaxC= 1.00D-01 BMatC= 3.25D-04 BMatP= 1.64D-03
 IDIUse=3 WtCom= 9.84D-01 WtEn= 1.59D-02
 Coeff-Com: -0.118D+00 0.259D+00 0.374D+00 0.485D+00
 Coeff-En:   0.000D+00 0.000D+00 0.120D+00 0.880D+00
 Coeff:     -0.116D+00 0.254D+00 0.370D+00 0.491D+00
 Gap=     0.419 Goal=   None    Shift=    0.000
 RMSDP=1.00D-04 MaxDP=2.12D-03 DE=-1.15D-03 OVMax= 6.09D-03

 Cycle   5  Pass 1  IDiag  1:
 E= -116.655147703060     Delta-E=       -0.000300776632 Rises=F Damp=F
 DIIS: error= 1.62D-04 at cycle   5 NSaved=   5.
 NSaved= 5 IEnMin= 5 EnMin= -116.655147703060     IErMin= 5 ErrMin= 1.62D-04
 ErrMax= 1.62D-04  0.00D+00 EMaxC= 1.00D-01 BMatC= 2.47D-06 BMatP= 3.25D-04
 IDIUse=3 WtCom= 9.98D-01 WtEn= 1.62D-03
 Coeff-Com:  0.181D-01-0.398D-01-0.280D-01 0.394D-01 0.101D+01
 Coeff-En:   0.000D+00 0.000D+00 0.000D+00 0.000D+00 0.100D+01
 Coeff:      0.181D-01-0.398D-01-0.279D-01 0.393D-01 0.101D+01
 Gap=     0.420 Goal=   None    Shift=    0.000
 RMSDP=4.17D-05 MaxDP=1.14D-03 DE=-3.01D-04 OVMax= 6.40D-04

 Cycle   6  Pass 1  IDiag  1:
 E= -116.655151426444     Delta-E=       -0.000003723384 Rises=F Damp=F
 DIIS: error= 3.15D-05 at cycle   6 NSaved=   6.
 NSaved= 6 IEnMin= 6 EnMin= -116.655151426444     IErMin= 6 ErrMin= 3.15D-05
 ErrMax= 3.15D-05  0.00D+00 EMaxC= 1.00D-01 BMatC= 5.15D-08 BMatP= 2.47D-06
 IDIUse=1 WtCom= 1.00D+00 WtEn= 0.00D+00
 Coeff-Com:  0.509D-02-0.111D-01-0.152D-01-0.182D-01 0.349D-01 0.100D+01
 Coeff:      0.509D-02-0.111D-01-0.152D-01-0.182D-01 0.349D-01 0.100D+01
 Gap=     0.420 Goal=   None    Shift=    0.000
 RMSDP=9.74D-06 MaxDP=1.87D-04 DE=-3.72D-06 OVMax= 1.56D-04

 Cycle   7  Pass 1  IDiag  1:
 E= -116.655151538771     Delta-E=       -0.000000112327 Rises=F Damp=F
 DIIS: error= 5.54D-06 at cycle   7 NSaved=   7.
 NSaved= 7 IEnMin= 7 EnMin= -116.655151538771     IErMin= 7 ErrMin= 5.54D-06
 ErrMax= 5.54D-06  0.00D+00 EMaxC= 1.00D-01 BMatC= 2.62D-09 BMatP= 5.15D-08
 IDIUse=1 WtCom= 1.00D+00 WtEn= 0.00D+00
 Coeff-Com: -0.806D-04 0.190D-03-0.459D-03-0.340D-02-0.344D-01 0.107D+00
 Coeff-Com:  0.932D+00
 Coeff:     -0.806D-04 0.190D-03-0.459D-03-0.340D-02-0.344D-01 0.107D+00
 Coeff:      0.932D+00
 Gap=     0.420 Goal=   None    Shift=    0.000
 RMSDP=1.70D-06 MaxDP=4.61D-05 DE=-1.12D-07 OVMax= 2.32D-05

 Cycle   8  Pass 1  IDiag  1:
 E= -116.655151542246     Delta-E=       -0.000000003475 Rises=F Damp=F
 DIIS: error= 1.84D-06 at cycle   8 NSaved=   8.
 NSaved= 8 IEnMin= 8 EnMin= -116.655151542246     IErMin= 8 ErrMin= 1.84D-06
 ErrMax= 1.84D-06  0.00D+00 EMaxC= 1.00D-01 BMatC= 4.05D-10 BMatP= 2.62D-09
 IDIUse=1 WtCom= 1.00D+00 WtEn= 0.00D+00
 Coeff-Com: -0.346D-03 0.761D-03 0.854D-03-0.517D-04-0.139D-01-0.205D-01
 Coeff-Com:  0.314D+00 0.719D+00
 Coeff:     -0.346D-03 0.761D-03 0.854D-03-0.517D-04-0.139D-01-0.205D-01
 Coeff:      0.314D+00 0.719D+00
 Gap=     0.420 Goal=   None    Shift=    0.000
 RMSDP=2.89D-07 MaxDP=9.08D-06 DE=-3.48D-09 OVMax= 7.86D-06

 Cycle   9  Pass 1  IDiag  1:
 E= -116.655151542672     Delta-E=       -0.000000000426 Rises=F Damp=F
 DIIS: error= 2.90D-07 at cycle   9 NSaved=   9.
 NSaved= 9 IEnMin= 9 EnMin= -116.655151542672     IErMin= 9 ErrMin= 2.90D-07
 ErrMax= 2.90D-07  0.00D+00 EMaxC= 1.00D-01 BMatC= 1.06D-11 BMatP= 4.05D-10
 IDIUse=1 WtCom= 1.00D+00 WtEn= 0.00D+00
 Coeff-Com: -0.226D-05 0.463D-05 0.647D-04 0.161D-03 0.141D-02-0.512D-02
 Coeff-Com: -0.508D-01 0.462D-01 0.101D+01
 Coeff:     -0.226D-05 0.463D-05 0.647D-04 0.161D-03 0.141D-02-0.512D-02
 Coeff:     -0.508D-01 0.462D-01 0.101D+01
 Gap=     0.420 Goal=   None    Shift=    0.000
 RMSDP=1.04D-07 MaxDP=4.09D-06 DE=-4.26D-10 OVMax= 1.21D-06

 Cycle  10  Pass 1  IDiag  1:
 E= -116.655151542688     Delta-E=       -0.000000000016 Rises=F Damp=F
 DIIS: error= 3.38D-08 at cycle  10 NSaved=  10.
 NSaved=10 IEnMin=10 EnMin= -116.655151542688     IErMin=10 ErrMin= 3.38D-08
 ErrMax= 3.38D-08  0.00D+00 EMaxC= 1.00D-01 BMatC= 1.27D-13 BMatP= 1.06D-11
 IDIUse=1 WtCom= 1.00D+00 WtEn= 0.00D+00
 Coeff-Com:  0.941D-05-0.205D-04-0.231D-04-0.957D-05 0.341D-03 0.693D-03
 Coeff-Com: -0.882D-02-0.200D-01-0.125D-01 0.104D+01
 Coeff:      0.941D-05-0.205D-04-0.231D-04-0.957D-05 0.341D-03 0.693D-03
 Coeff:     -0.882D-02-0.200D-01-0.125D-01 0.104D+01
 Gap=     0.420 Goal=   None    Shift=    0.000
 RMSDP=2.16D-08 MaxDP=9.50D-07 DE=-1.60D-11 OVMax= 2.40D-07

 Cycle  11  Pass 1  IDiag  1:
 E= -116.655151542687     Delta-E=        0.000000000001 Rises=F Damp=F
 DIIS: error= 5.25D-09 at cycle  11 NSaved=  11.
 NSaved=11 IEnMin=10 EnMin= -116.655151542688     IErMin=11 ErrMin= 5.25D-09
 ErrMax= 5.25D-09  0.00D+00 EMaxC= 1.00D-01 BMatC= 3.23D-15 BMatP= 1.27D-13
 IDIUse=1 WtCom= 1.00D+00 WtEn= 0.00D+00
 Coeff-Com: -0.146D-05 0.320D-05 0.321D-05-0.134D-05-0.711D-04-0.498D-04
 Coeff-Com:  0.218D-02 0.320D-02-0.161D-01-0.171D+00 0.118D+01
 Coeff:     -0.146D-05 0.320D-05 0.321D-05-0.134D-05-0.711D-04-0.498D-04
 Coeff:      0.218D-02 0.320D-02-0.161D-01-0.171D+00 0.118D+01
 Gap=     0.420 Goal=   None    Shift=    0.000
 RMSDP=3.41D-09 MaxDP=5.45D-08 DE= 8.53D-13 OVMax= 4.64D-08

 SCF Done:  E(RwB97XD) =  -116.655151543     A.U. after   11 cycles
            NFock= 11  Conv=0.34D-08     -V/T= 2.0053
 KE= 1.160376796326D+02 PE=-3.881243800125D+02 EE= 9.649796646101D+01
 Leave Link  502 at Sun Feb 27 06:36:01 2022, MaxMem=  8589934592 cpu:              55.3 elap:               7.9
 (Enter /home/rr/g16/l801.exe)
 DoSCS=F DFT=T ScalE2(SS,OS)=  1.000000  1.000000
 ExpMin= 4.85D-02 ExpMax= 1.36D+04 ExpMxC= 4.63D+02 IAcc=3 IRadAn=         5 AccDes= 0.00D+00
 HarFok:  IExCor=  205 AccDes= 0.00D+00 IRadAn=         5 IDoV=-2 UseB2=F ITyADJ=14
 ICtDFT= 12500011 ScaDFX=  1.000000  1.000000  1.000000  1.000000
 Largest valence mixing into a core orbital is  6.22D-05
 Largest core mixing into a valence orbital is  1.18D-05
 Range of M.O.s used for correlation:     4   146
 NBasis=   147 NAE=    11 NBE=    11 NFC=     3 NFV=     0
 NROrb=    143 NOA=     8 NOB=     8 NVA=   135 NVB=   135

 **** Warning!!: The largest alpha MO coefficient is  0.12249501D+03

 Leave Link  801 at Sun Feb 27 06:36:01 2022, MaxMem=  8589934592 cpu:               0.6 elap:               0.1
 (Enter /home/rr/g16/l914.exe)
 RHF ground state
 Keep R1, R2, and R3 ints in memory in canonical form, NReq=2594453854.
 FoFCou: FMM=F IPFlag=           0 FMFlag=           0 FMFlg1=           0
         NFxFlg=           0 DoJE=F BraDBF=F KetDBF=F FulRan=T
         wScrn=  0.000000 ICntrl=       600 IOpCl=  0 I1Cent=           0 NGrid=           0
         NMat0=    1 NMatS0=  10878 NMatT0=    0 NMatD0=    1 NMtDS0=    0 NMtDT0=    0
 Symmetry not used in FoFCou.
 Two-electron integral symmetry not used.
 MDV=  8589934592 DFT=T DoStab=F Mixed=T DoRPA=T DoScal=F NonHer=T
 Making orbital integer symmetry assigments:
 Orbital symmetries:
       Occupied  (A) (A) (A) (A) (A) (A) (A) (A) (A) (A) (A)
       Virtual   (A) (A) (A) (A) (A) (A) (A) (A) (A) (A) (A) (A)
                 (A) (A) (A) (A) (A) (A) (A) (A) (A) (A) (A) (A)
                 (A) (A) (A) (A) (A) (A) (A) (A) (A) (A) (A) (A)
                 (A) (A) (A) (A) (A) (A) (A) (A) (A) (A) (A) (A)
                 (A) (A) (A) (A) (A) (A) (A) (A) (A) (A) (A) (A)
                 (A) (A) (A) (A) (A) (A) (A) (A) (A) (A) (A) (A)
                 (A) (A) (A) (A) (A) (A) (A) (A) (A) (A) (A) (A)
                 (A) (A) (A) (A) (A) (A) (A) (A) (A) (A) (A) (A)
                 (A) (A) (A) (A) (A) (A) (A) (A) (A) (A) (A) (A)
                 (A) (A) (A) (A) (A) (A) (A) (A) (A) (A) (A) (A)
                 (A) (A) (A) (A) (A) (A) (A) (A) (A) (A) (A) (A)
                 (A) (A) (A)
  1080 initial guesses have been made.
 Convergence on wavefunction:    0.001000000000000
 Davidson Disk Diagonalization:  ConvIn= 1.00D-03 SkipCon=T Conv= 1.00D-03.
 Max sub-space:  6480 roots to seek:  2160 dimension of matrix:         2160
 *** WARNING: Number of orthogonal guesses is         1080
 Iteration     1 Dimension  1080 NMult     0 NNew   1080
 CISAX will form  1080 AO SS matrices at one time.
 NMat=  1080 NSing=  1080 JSym2X= 0.
 New state      1 was old state      5
 New state      2 was old state      8
 New state      3 was old state      6
 New state      4 was old state      1
 New state      5 was old state      2
 New state      6 was old state      3
 New state      7 was old state      4
 New state      8 was old state      9
 New state      9 was old state     10
 New state     10 was old state      7
 New state     13 was old state     14
 New state     14 was old state     13
 New state     15 was old state     17
 New state     16 was old state     20
 New state     17 was old state     19
 New state     19 was old state     15
 New state     20 was old state     16
 New state     21 was old state     22
 New state     22 was old state     21
 New state     23 was old state     24
 New state     24 was old state     25
 New state     25 was old state     26
 New state     26 was old state     27
 New state     27 was old state     28
 New state     28 was old state     23
 New state     29 was old state     35
 New state     30 was old state     49
 New state     31 was old state     50
 New state     32 was old state     29
 New state     33 was old state     30
 New state     34 was old state     31
 New state     35 was old state     36
 New state     36 was old state     37
 New state     37 was old state     41
 New state     38 was old state     42
 New state     39 was old state     34
 New state     40 was old state     44
 New state     41 was old state     43
 New state     42 was old state     32
 New state     43 was old state     33
 New state     44 was old state     45
 New state     45 was old state     47
 New state     46 was old state     48
 New state     47 was old state     38
 New state     48 was old state     54
 New state     49 was old state     55
 New state     50 was old state     53
 New state     53 was old state     39
 New state     54 was old state     40
 New state     55 was old state     57
 New state     56 was old state     46
 New state     57 was old state     58
 New state     58 was old state     59
 New state     59 was old state     72
 New state     60 was old state     56
 New state     61 was old state     64
 New state     62 was old state     63
 New state     63 was old state     73
 New state     64 was old state     75
 New state     65 was old state     74
 New state     66 was old state     60
 New state     67 was old state     62
 New state     68 was old state     61
 New state     69 was old state     67
 New state     70 was old state     68
 New state     71 was old state     66
 New state     72 was old state     83
 New state     73 was old state     84
 New state     74 was old state     78
 New state     75 was old state     79
 New state     76 was old state     65
 New state     77 was old state     70
 New state     78 was old state     71
 New state     79 was old state     82
 New state     80 was old state     85
 New state     81 was old state     86
 New state     82 was old state     76
 New state     83 was old state     77
 New state     84 was old state     89
 New state     85 was old state     87
 New state     86 was old state     88
 New state     87 was old state     80
 New state     88 was old state     81
 New state     89 was old state     69
 New state     90 was old state     93
 New state     91 was old state     92
 New state     92 was old state     94
 New state     93 was old state     95
 New state     94 was old state     90
 New state     95 was old state     97
 New state     97 was old state     99
 New state     98 was old state    102
 New state     99 was old state    103
 New state    100 was old state     98
 New state    101 was old state    100
 New state    102 was old state    101
 New state    103 was old state     91
 New state    104 was old state    106
 New state    105 was old state    107
 New state    106 was old state    109
 New state    107 was old state    105
 New state    108 was old state    104
 New state    109 was old state    108
 New state    110 was old state    135
 New state    111 was old state    136
 New state    112 was old state    113
 New state    113 was old state    114
 New state    114 was old state    115
 New state    115 was old state    116
 New state    116 was old state    117
 New state    117 was old state    119
 New state    118 was old state    120
 New state    119 was old state    130
 New state    120 was old state    129
 New state    121 was old state    110
 New state    122 was old state    125
 New state    123 was old state    126
 New state    124 was old state    118
 New state    125 was old state    122
 New state    126 was old state    121
 New state    127 was old state    123
 New state    128 was old state    124
 New state    129 was old state    128
 New state    130 was old state    127
 New state    132 was old state    133
 New state    133 was old state    132
 New state    134 was old state    137
 New state    135 was old state    138
 New state    136 was old state    134
 New state    137 was old state    112
 New state    138 was old state    111
 New state    140 was old state    142
 New state    141 was old state    143
 New state    142 was old state    149
 New state    143 was old state    150
 New state    144 was old state    148
 New state    145 was old state    144
 New state    147 was old state    153
 New state    148 was old state    154
 New state    149 was old state    160
 New state    150 was old state    161
 New state    151 was old state    162
 New state    152 was old state    163
 New state    153 was old state    151
 New state    154 was old state    173
 New state    155 was old state    174
 New state    156 was old state    152
 New state    157 was old state    156
 New state    158 was old state    157
 New state    160 was old state    145
 New state    161 was old state    170
 New state    162 was old state    171
 New state    163 was old state    147
 New state    164 was old state    158
 New state    165 was old state    140
 New state    166 was old state    141
 New state    167 was old state    172
 New state    168 was old state    178
 New state    169 was old state    179
 New state    170 was old state    180
 New state    171 was old state    181
 New state    172 was old state    175
 New state    173 was old state    176
 New state    174 was old state    164
 New state    175 was old state    165
 New state    176 was old state    155
 New state    177 was old state    167
 New state    178 was old state    166
 New state    179 was old state    168
 New state    180 was old state    169
 New state    181 was old state    184
 New state    183 was old state    185
 New state    184 was old state    186
 New state    185 was old state    183
 New state    186 was old state    193
 New state    187 was old state    194
 New state    188 was old state    187
 New state    191 was old state    192
 New state    192 was old state    191
 New state    193 was old state    195
 New state    194 was old state    196
 New state    195 was old state    188
 New state    196 was old state    197
 New state    197 was old state    198
 New state    198 was old state    177
 New state    199 was old state    211
 New state    200 was old state    212
 New state    201 was old state    221
 New state    202 was old state    200
 New state    203 was old state    201
 New state    204 was old state    203
 New state    206 was old state    204
 New state    207 was old state    209
 New state    208 was old state    210
 New state    209 was old state    199
 New state    210 was old state    226
 New state    211 was old state    227
 New state    212 was old state    208
 New state    213 was old state    218
 New state    214 was old state    219
 New state    215 was old state    223
 New state    216 was old state    220
 New state    217 was old state    222
 New state    218 was old state    206
 New state    219 was old state    202
 New state    220 was old state    238
 New state    221 was old state    236
 New state    222 was old state    224
 New state    223 was old state    225
 New state    224 was old state    214
 New state    225 was old state    231
 New state    226 was old state    230
 New state    227 was old state    237
 New state    228 was old state    207
 New state    230 was old state    228
 New state    231 was old state    213
 New state    232 was old state    215
 New state    233 was old state    216
 New state    234 was old state    217
 New state    235 was old state    232
 New state    236 was old state    233
 New state    237 was old state    234
 New state    238 was old state    235
 New state    242 was old state    243
 New state    243 was old state    249
 New state    244 was old state    248
 New state    245 was old state    261
 New state    246 was old state    260
 New state    247 was old state    246
 New state    248 was old state    245
 New state    249 was old state    244
 New state    250 was old state    252
 New state    251 was old state    253
 New state    252 was old state    242
 New state    253 was old state    250
 New state    254 was old state    251
 New state    255 was old state    254
 New state    256 was old state    255
 New state    257 was old state    262
 New state    258 was old state    263
 New state    259 was old state    247
 New state    260 was old state    257
 New state    261 was old state    258
 New state    262 was old state    259
 New state    263 was old state    264
 New state    264 was old state    265
 New state    265 was old state    274
 New state    266 was old state    275
 New state    267 was old state    256
 New state    268 was old state    280
 New state    269 was old state    281
 New state    270 was old state    272
 New state    271 was old state    273
 New state    272 was old state    270
 New state    273 was old state    277
 New state    274 was old state    279
 New state    275 was old state    268
 New state    276 was old state    269
 New state    277 was old state    278
 New state    278 was old state    284
 New state    279 was old state    267
 New state    280 was old state    266
 New state    281 was old state    271
 New state    282 was old state    289
 New state    283 was old state    290
 New state    284 was old state    292
 New state    285 was old state    291
 New state    286 was old state    282
 New state    287 was old state    283
 New state    288 was old state    287
 New state    289 was old state    288
 New state    290 was old state    307
 New state    291 was old state    285
 New state    292 was old state    293
 New state    293 was old state    294
 New state    294 was old state    306
 New state    295 was old state    305
 New state    296 was old state    286
 New state    297 was old state    298
 New state    298 was old state    299
 New state    299 was old state    297
 New state    300 was old state    295
 New state    301 was old state    296
 New state    302 was old state    300
 New state    303 was old state    301
 New state    304 was old state    327
 New state    305 was old state    328
 New state    306 was old state    302
 New state    307 was old state    303
 New state    308 was old state    304
 New state    309 was old state    310
 New state    310 was old state    312
 New state    311 was old state    313
 New state    312 was old state    314
 New state    313 was old state    308
 New state    314 was old state    309
 New state    315 was old state    311
 New state    316 was old state    315
 New state    317 was old state    322
 New state    318 was old state    320
 New state    319 was old state    321
 New state    320 was old state    323
 New state    321 was old state    324
 New state    322 was old state    317
 New state    323 was old state    318
 New state    324 was old state    319
 New state    327 was old state    316
 New state    328 was old state    332
 New state    329 was old state    333
 No map to state    330
 New state    331 was old state    329
 New state    332 was old state    330
 New state    333 was old state    331
 New state    334 was old state    349
 New state    335 was old state    336
 New state    336 was old state    348
 New state    337 was old state    350
 New state    338 was old state    343
 New state    339 was old state    337
 New state    340 was old state    338
 New state    341 was old state    334
 New state    342 was old state    335
 New state    343 was old state    342
 New state    344 was old state    339
 New state    345 was old state    344
 New state    346 was old state    358
 New state    347 was old state    359
 New state    348 was old state    340
 New state    349 was old state    341
 New state    350 was old state    345
 New state    351 was old state    346
 New state    352 was old state    360
 New state    353 was old state    361
 New state    354 was old state    362
 New state    355 was old state    356
 New state    356 was old state    357
 New state    357 was old state    347
 New state    358 was old state    363
 New state    359 was old state    354
 New state    360 was old state    355
 New state    361 was old state    364
 New state    362 was old state    352
 New state    363 was old state    353
 New state    364 was old state    365
 New state    365 was old state    366
 New state    366 was old state    367
 New state    367 was old state    368
 New state    368 was old state    369
 New state    369 was old state    377
 New state    370 was old state    375
 New state    371 was old state    378
 New state    372 was old state    376
 New state    373 was old state    388
 New state    374 was old state    370
 New state    375 was old state    371
 New state    376 was old state    379
 New state    377 was old state    372
 New state    378 was old state    373
 New state    379 was old state    374
 New state    380 was old state    383
 New state    381 was old state    382
 New state    382 was old state    380
 New state    383 was old state    381
 New state    384 was old state    389
 New state    385 was old state    390
 New state    386 was old state    401
 New state    387 was old state    384
 New state    388 was old state    408
 New state    389 was old state    407
 New state    390 was old state    387
 New state    391 was old state    405
 New state    392 was old state    406
 New state    393 was old state    395
 New state    394 was old state    392
 New state    395 was old state    393
 New state    396 was old state    399
 New state    397 was old state    400
 New state    398 was old state    386
 New state    399 was old state    385
 New state    400 was old state    398
 New state    401 was old state    394
 New state    402 was old state    397
 New state    403 was old state    402
 New state    404 was old state    396
 No map to state    405
 New state    406 was old state    403
 New state    407 was old state    404
 New state    408 was old state    391
 New state    412 was old state    416
 New state    413 was old state    417
 New state    414 was old state    419
 New state    415 was old state    418
 New state    416 was old state    420
 New state    417 was old state    412
 New state    418 was old state    413
 New state    419 was old state    414
 New state    420 was old state    423
 New state    423 was old state    424
 New state    424 was old state    415
 New state    426 was old state    429
 New state    427 was old state    430
 New state    428 was old state    426
 New state    429 was old state    427
 New state    430 was old state    431
 New state    431 was old state    432
 New state    432 was old state    428
 New state    433 was old state    435
 New state    434 was old state    437
 New state    435 was old state    433
 New state    436 was old state    434
 New state    437 was old state    436
 New state    438 was old state    439
 New state    439 was old state    438
 New state    440 was old state    443
 New state    441 was old state    444
 New state    442 was old state    441
 New state    443 was old state    442
 New state    444 was old state    440
 New state    445 was old state    446
 New state    446 was old state    445
 New state    449 was old state    454
 New state    452 was old state    455
 New state    453 was old state    457
 New state    454 was old state    456
 New state    455 was old state    449
 New state    456 was old state    452
 New state    457 was old state    453
 New state    459 was old state    469
 New state    460 was old state    470
 New state    461 was old state    460
 New state    462 was old state    461
 New state    463 was old state    464
 New state    464 was old state    465
 New state    465 was old state    462
 New state    466 was old state    468
 New state    468 was old state    466
 New state    469 was old state    459
 New state    470 was old state    471
 New state    471 was old state    472
 New state    472 was old state    463
 New state    473 was old state    474
 New state    474 was old state    475
 New state    475 was old state    473
 New state    476 was old state    477
 New state    477 was old state    478
 New state    478 was old state    476
 New state    489 was old state    492
 New state    490 was old state    491
 New state    491 was old state    489
 New state    492 was old state    490
 New state    495 was old state    499
 New state    496 was old state    500
 New state    497 was old state    502
 New state    498 was old state    495
 New state    499 was old state    497
 New state    500 was old state    498
 New state    501 was old state    496
 New state    502 was old state    501
 New state    507 was old state    508
 New state    508 was old state    509
 New state    509 was old state    510
 New state    510 was old state    507
 New state    511 was old state    524
 New state    512 was old state    525
 New state    515 was old state    526
 New state    516 was old state    515
 New state    517 was old state    516
 New state    518 was old state    511
 New state    519 was old state    512
 New state    522 was old state    519
 New state    524 was old state    518
 New state    525 was old state    517
 New state    526 was old state    528
 New state    527 was old state    529
 New state    528 was old state    522
 New state    529 was old state    527
 New state    533 was old state    536
 New state    534 was old state    537
 New state    536 was old state    534
 New state    537 was old state    533
 New state    540 was old state    542
 New state    541 was old state    543
 New state    542 was old state    550
 New state    543 was old state    540
 New state    544 was old state    541
 New state    545 was old state    544
 New state    546 was old state    545
 New state    547 was old state    555
 New state    548 was old state    556
 New state    549 was old state    547
 New state    550 was old state    549
 New state    551 was old state    548
 New state    552 was old state    558
 New state    553 was old state    557
 New state    554 was old state    553
 New state    555 was old state    551
 New state    556 was old state    546
 New state    557 was old state    552
 New state    558 was old state    554
 New state    559 was old state    564
 New state    560 was old state    563
 New state    561 was old state    566
 New state    562 was old state    560
 New state    563 was old state    561
 New state    564 was old state    559
 New state    565 was old state    568
 New state    566 was old state    569
 New state    568 was old state    570
 New state    569 was old state    571
 New state    570 was old state    574
 New state    571 was old state    572
 New state    572 was old state    573
 New state    573 was old state    565
 New state    574 was old state    562
 New state    575 was old state    576
 New state    576 was old state    578
 New state    578 was old state    583
 New state    579 was old state    582
 New state    580 was old state    579
 New state    581 was old state    580
 New state    582 was old state    581
 New state    583 was old state    575
 New state    584 was old state    585
 New state    585 was old state    586
 New state    586 was old state    584
 New state    590 was old state    601
 New state    591 was old state    602
 New state    592 was old state    597
 New state    593 was old state    596
 New state    594 was old state    603
 New state    595 was old state    604
 New state    596 was old state    600
 New state    597 was old state    593
 New state    598 was old state    592
 New state    599 was old state    590
 New state    600 was old state    591
 New state    601 was old state    594
 New state    602 was old state    595
 New state    603 was old state    598
 New state    604 was old state    599
 New state    607 was old state    608
 New state    608 was old state    607
 New state    610 was old state    615
 New state    611 was old state    616
 New state    612 was old state    611
 New state    613 was old state    612
 New state    614 was old state    610
 New state    615 was old state    614
 New state    616 was old state    613
 New state    619 was old state    621
 New state    620 was old state    622
 New state    621 was old state    619
 New state    622 was old state    620
 New state    623 was old state    627
 New state    624 was old state    628
 New state    625 was old state    630
 New state    626 was old state    624
 New state    627 was old state    625
 New state    628 was old state    623
 New state    630 was old state    626
 New state    633 was old state    634
 New state    634 was old state    633
 New state    635 was old state    636
 New state    636 was old state    635
 New state    637 was old state    643
 New state    638 was old state    644
 New state    639 was old state    637
 New state    640 was old state    638
 New state    641 was old state    639
 New state    642 was old state    640
 New state    643 was old state    641
 New state    644 was old state    642
 New state    648 was old state    650
 New state    649 was old state    648
 New state    650 was old state    649
 New state    651 was old state    652
 New state    652 was old state    653
 New state    653 was old state    655
 New state    654 was old state    651
 New state    655 was old state    654
 New state    656 was old state    663
 New state    657 was old state    662
 New state    658 was old state    657
 New state    659 was old state    656
 New state    660 was old state    675
 New state    661 was old state    674
 New state    662 was old state    658
 New state    663 was old state    659
 New state    664 was old state    660
 New state    665 was old state    661
 New state    666 was old state    668
 New state    667 was old state    671
 New state    668 was old state    670
 New state    670 was old state    673
 New state    671 was old state    672
 New state    672 was old state    665
 New state    673 was old state    664
 New state    674 was old state    666
 New state    675 was old state    667
 New state    676 was old state    679
 New state    677 was old state    678
 New state    678 was old state    676
 New state    679 was old state    677
 New state    682 was old state    683
 New state    683 was old state    684
 New state    684 was old state    685
 New state    685 was old state    687
 New state    687 was old state    693
 New state    688 was old state    682
 New state    689 was old state    694
 New state    690 was old state    692
 New state    691 was old state    695
 New state    692 was old state    688
 New state    693 was old state    689
 New state    694 was old state    691
 New state    695 was old state    690
 New state    696 was old state    701
 New state    697 was old state    702
 New state    698 was old state    696
 New state    699 was old state    709
 New state    700 was old state    698
 New state    701 was old state    699
 New state    702 was old state    697
 New state    703 was old state    700
 New state    704 was old state    703
 New state    705 was old state    704
 New state    706 was old state    710
 New state    707 was old state    705
 New state    708 was old state    706
 New state    709 was old state    714
 New state    710 was old state    707
 New state    711 was old state    708
 New state    712 was old state    713
 New state    713 was old state    711
 New state    714 was old state    712
 New state    715 was old state    716
 New state    716 was old state    715
 New state    717 was old state    728
 New state    718 was old state    724
 New state    719 was old state    720
 New state    720 was old state    721
 New state    721 was old state    719
 New state    722 was old state    725
 New state    723 was old state    726
 New state    724 was old state    727
 New state    725 was old state    729
 New state    726 was old state    731
 New state    727 was old state    730
 New state    728 was old state    722
 New state    729 was old state    723
 New state    730 was old state    732
 New state    731 was old state    717
 New state    732 was old state    718
 New state    733 was old state    735
 New state    734 was old state    736
 New state    735 was old state    733
 New state    736 was old state    734
 New state    738 was old state    746
 New state    739 was old state    745
 New state    740 was old state    738
 New state    741 was old state    747
 New state    742 was old state    748
 New state    743 was old state    749
 New state    744 was old state    750
 New state    745 was old state    742
 New state    746 was old state    743
 New state    747 was old state    741
 New state    748 was old state    744
 New state    749 was old state    751
 New state    750 was old state    752
 New state    751 was old state    757
 New state    752 was old state    739
 New state    753 was old state    740
 New state    754 was old state    759
 New state    755 was old state    753
 New state    756 was old state    754
 New state    757 was old state    755
 New state    758 was old state    756
 New state    759 was old state    758
 New state    760 was old state    761
 New state    761 was old state    760
 New state    762 was old state    763
 New state    763 was old state    762
 New state    766 was old state    767
 New state    767 was old state    766
 New state    768 was old state    775
 New state    769 was old state    773
 New state    770 was old state    774
 New state    771 was old state    772
 New state    772 was old state    768
 New state    773 was old state    769
 New state    774 was old state    776
 New state    775 was old state    770
 New state    776 was old state    771
 New state    780 was old state    790
 New state    781 was old state    789
 New state    782 was old state    780
 New state    783 was old state    781
 New state    784 was old state    788
 New state    785 was old state    786
 New state    786 was old state    787
 New state    787 was old state    793
 New state    788 was old state    791
 New state    789 was old state    792
 New state    790 was old state    782
 New state    791 was old state    783
 New state    792 was old state    794
 New state    793 was old state    795
 New state    794 was old state    784
 New state    795 was old state    785
 New state    797 was old state    798
 New state    798 was old state    813
 New state    799 was old state    811
 New state    801 was old state    799
 New state    802 was old state    797
 New state    803 was old state    805
 New state    804 was old state    806
 New state    805 was old state    801
 New state    806 was old state    802
 New state    808 was old state    810
 New state    809 was old state    814
 New state    810 was old state    812
 New state    811 was old state    808
 New state    812 was old state    809
 New state    813 was old state    803
 New state    814 was old state    804
 New state    816 was old state    820
 New state    817 was old state    821
 New state    818 was old state    817
 New state    819 was old state    816
 New state    820 was old state    818
 New state    821 was old state    819
 New state    823 was old state    825
 New state    824 was old state    826
 New state    825 was old state    827
 New state    826 was old state    828
 New state    827 was old state    834
 New state    828 was old state    823
 New state    829 was old state    824
 New state    830 was old state    829
 New state    831 was old state    837
 New state    832 was old state    838
 New state    833 was old state    832
 New state    834 was old state    830
 New state    835 was old state    831
 New state    836 was old state    833
 New state    837 was old state    839
 New state    838 was old state    840
 New state    839 was old state    835
 New state    840 was old state    836
 New state    841 was old state    842
 New state    842 was old state    841
 New state    843 was old state    852
 New state    844 was old state    845
 New state    845 was old state    843
 New state    847 was old state    855
 New state    848 was old state    844
 New state    849 was old state    856
 New state    850 was old state    857
 New state    851 was old state    860
 New state    852 was old state    854
 New state    854 was old state    859
 New state    855 was old state    858
 New state    856 was old state    848
 New state    857 was old state    849
 New state    858 was old state    847
 New state    859 was old state    850
 New state    860 was old state    851
 New state    861 was old state    863
 New state    863 was old state    866
 New state    865 was old state    861
 New state    866 was old state    865
 New state    869 was old state    872
 New state    870 was old state    871
 New state    871 was old state    869
 New state    872 was old state    870
 New state    876 was old state    879
 New state    879 was old state    876
 New state    880 was old state    884
 New state    881 was old state    885
 New state    882 was old state    883
 New state    883 was old state    882
 New state    884 was old state    881
 New state    885 was old state    880
 New state    886 was old state    888
 New state    887 was old state    889
 New state    888 was old state    890
 New state    889 was old state    886
 New state    890 was old state    887
 New state    894 was old state    896
 New state    895 was old state    897
 New state    896 was old state    894
 New state    897 was old state    895
 New state    900 was old state    907
 New state    901 was old state    908
 New state    902 was old state    901
 New state    903 was old state    900
 New state    904 was old state    902
 New state    905 was old state    903
 New state    906 was old state    911
 New state    907 was old state    912
 New state    908 was old state    906
 New state    909 was old state    913
 New state    910 was old state    914
 New state    911 was old state    904
 New state    912 was old state    905
 New state    913 was old state    909
 New state    914 was old state    915
 New state    915 was old state    910
 New state    919 was old state    922
 New state    920 was old state    921
 New state    921 was old state    919
 New state    922 was old state    920
 New state    923 was old state    924
 New state    924 was old state    926
 New state    925 was old state    923
 New state    926 was old state    925
 New state    927 was old state    928
 New state    928 was old state    927
 New state    929 was old state    930
 New state    930 was old state    929
 New state    932 was old state    934
 New state    933 was old state    935
 New state    934 was old state    937
 New state    935 was old state    938
 New state    936 was old state    941
 New state    937 was old state    940
 New state    938 was old state    936
 New state    939 was old state    933
 New state    940 was old state    932
 New state    941 was old state    939
 New state    946 was old state    947
 New state    947 was old state    946
 New state    951 was old state    952
 New state    952 was old state    951
 New state    953 was old state    954
 New state    954 was old state    953
 New state    955 was old state    956
 New state    956 was old state    955
 New state    957 was old state    958
 New state    958 was old state    959
 New state    959 was old state    957
 New state    968 was old state    970
 New state    969 was old state    968
 New state    970 was old state    969
 New state    975 was old state    976
 New state    976 was old state    975
 New state    983 was old state    985
 New state    984 was old state    986
 New state    985 was old state    983
 New state    986 was old state    984
 New state    987 was old state    988
 New state    988 was old state    987
 New state    991 was old state    992
 New state    992 was old state    991
 New state    995 was old state   1002
 New state    996 was old state   1001
 New state    997 was old state    995
 New state    998 was old state    996
 New state    999 was old state    998
 New state   1000 was old state    997
 New state   1001 was old state    999
 New state   1002 was old state   1000
 New state   1019 was old state   1023
 New state   1020 was old state   1021
 New state   1021 was old state   1022
 New state   1022 was old state   1026
 New state   1023 was old state   1025
 New state   1025 was old state   1019
 New state   1026 was old state   1020
 New state   1029 was old state   1035
 New state   1030 was old state   1036
 New state   1031 was old state   1030
 New state   1033 was old state   1031
 New state   1034 was old state   1037
 New state   1035 was old state   1033
 New state   1036 was old state   1034
 New state   1037 was old state   1029
 New state   1046 was old state   1050
 New state   1047 was old state   1049
 New state   1048 was old state   1046
 New state   1049 was old state   1047
 New state   1050 was old state   1048
 New state   1051 was old state   1053
 New state   1052 was old state   1051
 New state   1053 was old state   1052
 New state   1059 was old state   1060
 New state   1060 was old state   1059
 New state   1064 was old state   1067
 New state   1065 was old state   1064
 New state   1066 was old state   1065
 New state   1067 was old state   1066
 New state   1073 was old state   1074
 New state   1074 was old state   1073
 New state   1075 was old state   1077
 New state   1076 was old state   1075
 New state   1077 was old state   1076
 Excitation Energies [eV] at current iteration:
 Root      1 :     6.727231004956847
 Root      2 :     6.968528848601411
 Root      3 :     6.968532317547253
 Root      4 :     7.266955975661557
 Root      5 :     7.266965234055839
 Root      6 :     8.265736985784804
 Root      7 :     8.265744653960526
 Root      8 :     8.924783675312693
 Root      9 :     8.924794229183519
 Root     10 :     9.354643806222670
 Root     11 :     9.880507838469939
 Root     12 :     9.880516813760213
 Root     13 :     9.915428344813952
 Root     14 :    10.264970300202220
 Root     15 :    10.346627579971290
 Root     16 :    10.401583417200730
 Root     17 :    10.401606380465450
 Root     18 :    10.496360096825320
 Root     19 :    10.588489866910370
 Root     20 :    10.588517441679440
 Root     21 :    11.007391006935550
 Root     22 :    11.007402836409130
 Root     23 :    11.040345479012350
 Root     24 :    11.557634885205860
 Root     25 :    11.557735309838220
 Root     26 :    11.863854847073140
 Root     27 :    11.863866891881020
 Root     28 :    11.901769129900290
 Root     29 :    12.178515075608050
 Root     30 :    12.298629246721790
 Root     31 :    12.298683265656480
 Root     32 :    12.301249217913050
 Root     33 :    12.349099607099490
 Root     34 :    12.349106225301310
 Root     35 :    12.533690009963140
 Root     36 :    12.533715388924120
 Root     37 :    12.598649389528060
 Root     38 :    12.662451689752510
 Root     39 :    12.891126218034720
 Root     40 :    12.894279485798900
 Root     41 :    12.894305811970160
 Root     42 :    12.969601725964980
 Root     43 :    12.969682836730120
 Root     44 :    13.240235834314560
 Root     45 :    13.240239234861560
 Root     46 :    13.303938880259380
 Root     47 :    13.486724706025280
 Root     48 :    13.795703461723520
 Root     49 :    13.795735320032670
 Root     50 :    13.817743447304970
 Root     51 :    13.883841724837380
 Root     52 :    13.883855337431580
 Root     53 :    13.934170512277890
 Root     54 :    13.934249019555080
 Root     55 :    13.946703747407130
 Root     56 :    14.032635461084420
 Root     57 :    14.236638791526600
 Root     58 :    14.236649829882680
 Root     59 :    14.279756841853340
 Root     60 :    14.324409570606150
 Root     61 :    14.419551764754210
 Root     62 :    14.419556775832340
 Root     63 :    14.618637121422880
 Root     64 :    14.618659347414960
 Root     65 :    14.641390938571850
 Root     66 :    14.822530482820410
 Root     67 :    14.884737830805160
 Root     68 :    14.884755863454360
 Root     69 :    14.947427458807960
 Root     70 :    14.977332316578690
 Root     71 :    14.977358685371090
 Root     72 :    15.175839280994920
 Root     73 :    15.175855238261530
 Root     74 :    15.235856184137250
 Root     75 :    15.235890991107390
 Root     76 :    15.248550352402040
 Root     77 :    15.313105704781610
 Root     78 :    15.313140038186470
 Root     79 :    15.467570350633440
 Root     80 :    15.492277711855210
 Root     81 :    15.492347327844750
 Root     82 :    15.577183339756770
 Root     83 :    15.577224484065820
 Root     84 :    15.589436381765030
 Root     85 :    15.589451175756170
 Root     86 :    15.634478572136040
 Root     87 :    15.755490814386420
 Root     88 :    15.755513513350540
 Root     89 :    15.763713187192990
 Root     90 :    15.974379555405720
 Root     91 :    16.049601781366750
 Root     92 :    16.049611614385670
 Root     93 :    16.128454929709860
 Root     94 :    16.165160358447680
 Root     95 :    16.284644365054740
 Root     96 :    16.284645899277160
 Root     97 :    16.430994260678230
 Root     98 :    16.442585123762850
 Root     99 :    16.442680640617650
 Root    100 :    16.459279701963290
 Root    101 :    16.519329360260220
 Root    102 :    16.519354863680530
 Root    103 :    16.530222171487650
 Root    104 :    17.063975491974380
 Root    105 :    17.064081229690240
 Root    106 :    17.215398466391310
 Root    107 :    17.393692857737270
 Root    108 :    17.393695007464520
 Root    109 :    17.550637654324060
 Root    110 :    17.694785398614120
 Root    111 :    17.694804356319310
 Root    112 :    17.784044522835650
 Root    113 :    17.831668390625950
 Root    114 :    17.831898510266080
 Root    115 :    17.831919114093720
 Root    116 :    17.857416339652120
 Root    117 :    17.857427937776010
 Root    118 :    17.907760750731680
 Root    119 :    17.910887659929300
 Root    120 :    17.910915003415520
 Root    121 :    18.010023302937200
 Root    122 :    18.047516798440740
 Root    123 :    18.047604628930960
 Root    124 :    18.085295028704210
 Root    125 :    18.096796484077170
 Root    126 :    18.123257862026830
 Root    127 :    18.123269176178810
 Root    128 :    18.133561943060360
 Root    129 :    18.357552161566010
 Root    130 :    18.357557261341720
 Root    131 :    18.521324485495910
 Root    132 :    18.521329103193810
 Root    133 :    18.539584650006460
 Root    134 :    18.628283998501260
 Root    135 :    18.628301919381840
 Root    136 :    18.631060626723990
 Root    137 :    18.777325923957540
 Root    138 :    18.777339898870600
 Root    139 :    18.809981290711030
 Root    140 :    18.872869107595400
 Root    141 :    18.872966888716140
 Root    142 :    18.899608139995050
 Root    143 :    19.176824055288130
 Root    144 :    19.176836541879880
 Root    145 :    19.285887461233320
 Root    146 :    19.306632646085100
 Root    147 :    19.335726011481790
 Root    148 :    19.335793515812470
 Root    149 :    19.420369254065850
 Root    150 :    19.420386999297880
 Root    151 :    19.525930603357480
 Root    152 :    19.525997753983510
 Root    153 :    19.557391349726350
 Root    154 :    19.662567009409960
 Root    155 :    19.662585716966320
 Root    156 :    19.719727858456650
 Root    157 :    19.814873842778590
 Root    158 :    19.814877770153850
 Root    159 :    19.871130769323670
 Root    160 :    19.910425318511210
 Root    161 :    19.926877973704220
 Root    162 :    19.926882975954600
 Root    163 :    19.983555676779200
 Root    164 :    20.035633082668070
 Root    165 :    20.066995743415910
 Root    166 :    20.067092367691520
 Root    167 :    20.142260224169050
 Root    168 :    20.178586936242660
 Root    169 :    20.211107842896310
 Root    170 :    20.211116394599220
 Root    171 :    20.263059215628020
 Root    172 :    20.359713527392480
 Root    173 :    20.359722765838420
 Root    174 :    20.431845051653860
 Root    175 :    20.431952684544260
 Root    176 :    20.536880399923480
 Root    177 :    20.674954806558630
 Root    178 :    20.674957285605200
 Root    179 :    20.688423371431780
 Root    180 :    20.711687130171870
 Root    181 :    20.972565203478720
 Root    182 :    21.112784365621430
 Root    183 :    21.137886926025100
 Root    184 :    21.137921357187270
 Root    185 :    21.250711943956590
 Root    186 :    21.267210990258640
 Root    187 :    21.267242765894340
 Root    188 :    21.341891787576150
 Root    189 :    21.407395670387770
 Root    190 :    21.407402996782440
 Root    191 :    21.527197824923610
 Root    192 :    21.697666541739800
 Root    193 :    21.787083463781040
 Root    194 :    21.787115579507740
 Root    195 :    21.835044808824660
 Root    196 :    21.850669752358450
 Root    197 :    21.850681249289780
 Root    198 :    22.100775465560530
 Root    199 :    22.193150230095990
 Root    200 :    22.193160423675440
 Root    201 :    22.210106360166440
 Root    202 :    22.410070009552650
 Root    203 :    22.410124987985370
 Root    204 :    22.488765261262830
 Root    205 :    22.488785775315960
 Root    206 :    22.517668192586430
 Root    207 :    22.554201867924270
 Root    208 :    22.554210873688510
 Root    209 :    22.601907834412760
 Root    210 :    22.613641234180640
 Root    211 :    22.613650230683830
 Root    212 :    22.679382188958660
 Root    213 :    22.806894389907470
 Root    214 :    22.806911036856730
 Root    215 :    22.814908506096060
 Root    216 :    22.875223815394200
 Root    217 :    22.875265352520030
 Root    218 :    22.875721706870230
 Root    219 :    22.953312490979540
 Root    220 :    22.972209934283670
 Root    221 :    22.972214044497240
 Root    222 :    23.019747393931860
 Root    223 :    23.019807029702660
 Root    224 :    23.115224450361670
 Root    225 :    23.119949138012710
 Root    226 :    23.119965289938330
 Root    227 :    23.129022383439640
 Root    228 :    23.247724354857940
 Root    229 :    23.284042592751770
 Root    230 :    23.284080569835450
 Root    231 :    23.388630702913590
 Root    232 :    23.493331609806910
 Root    233 :    23.493336348269910
 Root    234 :    23.633965296023810
 Root    235 :    23.684647203949900
 Root    236 :    23.713780738831440
 Root    237 :    23.713839827486710
 Root    238 :    23.991341355610930
 Root    239 :    24.047239623470790
 Root    240 :    24.047255244606900
 Root    241 :    24.442522304425510
 Root    242 :    24.513743690474390
 Root    243 :    24.514253269352030
 Root    244 :    24.514269878207180
 Root    245 :    24.549628227162300
 Root    246 :    24.549635004664060
 Root    247 :    24.592456838942410
 Root    248 :    24.592461963300610
 Root    249 :    24.715244717825180
 Root    250 :    24.774041180727500
 Root    251 :    24.774089751274150
 Root    252 :    24.844586311882180
 Root    253 :    24.989667339369280
 Root    254 :    24.989702885874530
 Root    255 :    25.152938376080670
 Root    256 :    25.152978990500180
 Root    257 :    25.206785027007150
 Root    258 :    25.206800336809800
 Root    259 :    25.213752619635440
 Root    260 :    25.276750512866090
 Root    261 :    25.278688214375100
 Root    262 :    25.278701059050760
 Root    263 :    25.378539167011510
 Root    264 :    25.378563073923550
 Root    265 :    25.510574968105920
 Root    266 :    25.510643646116950
 Root    267 :    25.511461365896760
 Root    268 :    25.603920958172580
 Root    269 :    25.603947092221560
 Root    270 :    25.629477643717650
 Root    271 :    25.629513337007510
 Root    272 :    25.929099934414510
 Root    273 :    25.959034955125040
 Root    274 :    25.959045338695500
 Root    275 :    25.992624012433820
 Root    276 :    25.992627998295990
 Root    277 :    25.996429094270560
 Root    278 :    26.116830285097900
 Root    279 :    26.213758111449380
 Root    280 :    26.213782297636020
 Root    281 :    26.268294199794100
 Root    282 :    26.407325748440030
 Root    283 :    26.421867994162830
 Root    284 :    26.421899848849130
 Root    285 :    26.454854129473380
 Root    286 :    26.477047251193760
 Root    287 :    26.663531776564080
 Root    288 :    26.711770604513570
 Root    289 :    26.711827696453820
 Root    290 :    26.854497970870700
 Root    291 :    26.932261212601440
 Root    292 :    27.051933231989390
 Root    293 :    27.051947518282770
 Root    294 :    27.102638190964970
 Root    295 :    27.102649142844490
 Root    296 :    27.126444419011500
 Root    297 :    27.240621949798430
 Root    298 :    27.240637010538420
 Root    299 :    27.480377011189360
 Root    300 :    27.581985981998050
 Root    301 :    27.582005359184530
 Root    302 :    27.604087424041250
 Root    303 :    27.604103256423290
 Root    304 :    27.611714436257350
 Root    305 :    27.622836608352210
 Root    306 :    27.660600745997290
 Root    307 :    27.748662947791850
 Root    308 :    27.748737484244090
 Root    309 :    27.819123101121080
 Root    310 :    27.910123690710860
 Root    311 :    27.910155051767780
 Root    312 :    27.974344595475480
 Root    313 :    28.117368878927200
 Root    314 :    28.117401783558930
 Root    315 :    28.226315058476180
 Root    316 :    28.259410071742880
 Root    317 :    28.347167371691140
 Root    318 :    28.393166921594640
 Root    319 :    28.393274068235060
 Root    320 :    28.743233596331850
 Root    321 :    28.743244505571380
 Root    322 :    28.840133158207170
 Root    323 :    28.883758175410240
 Root    324 :    28.883801341280520
 Root    325 :    29.052827991477170
 Root    326 :    29.052854387609130
 Root    327 :    29.133842683804310
 Root    328 :    29.293784044627180
 Root    329 :    29.293876203302660
 Root    330 :    29.347253490437970
 Root    331 :    29.458585056789090
 Root    332 :    29.458601598053650
 Root    333 :    29.508518148057490
 Root    334 :    29.759701530177890
 Root    335 :    29.772037715460300
 Root    336 :    29.901218535722320
 Root    337 :    29.901244580466640
 Root    338 :    29.916283389427160
 Root    339 :    29.976955897886490
 Root    340 :    29.977015566691520
 Root    341 :    29.989309287034620
 Root    342 :    29.989396502892400
 Root    343 :    29.993650788717490
 Root    344 :    30.122339721379870
 Root    345 :    30.297427556128150
 Root    346 :    30.312990392820520
 Root    347 :    30.313021016178020
 Root    348 :    30.416125902817990
 Root    349 :    30.416152878805870
 Root    350 :    30.495992492929390
 Root    351 :    30.496005619805440
 Root    352 :    30.601560959302620
 Root    353 :    30.601640641165520
 Root    354 :    30.629638358465170
 Root    355 :    30.740452003027180
 Root    356 :    30.740504631424970
 Root    357 :    30.950125826161590
 Root    358 :    30.987929083822010
 Root    359 :    31.035187934318840
 Root    360 :    31.035211551011450
 Root    361 :    31.102751692008500
 Root    362 :    31.179356596255850
 Root    363 :    31.179463964970660
 Root    364 :    31.312644494004690
 Root    365 :    31.312666354241450
 Root    366 :    31.482382944815170
 Root    367 :    31.651388871248250
 Root    368 :    31.651527162930630
 Root    369 :    31.817945220160630
 Root    370 :    31.837975059034260
 Root    371 :    31.874740384066670
 Root    372 :    31.874753003190840
 Root    373 :    32.113717507456510
 Root    374 :    32.114023351714540
 Root    375 :    32.114084819520510
 Root    376 :    32.232964978412460
 Root    377 :    32.415238259731970
 Root    378 :    32.415263955382360
 Root    379 :    32.557122162742230
 Root    380 :    32.626418388327740
 Root    381 :    32.626436385765570
 Root    382 :    32.750990971941140
 Root    383 :    32.751043562985970
 Root    384 :    32.872104379623240
 Root    385 :    32.872171220573410
 Root    386 :    32.921198362066310
 Root    387 :    32.939101227450930
 Root    388 :    33.112375495501720
 Root    389 :    33.112422321745850
 Root    390 :    33.229375321901310
 Root    391 :    33.351164132602260
 Root    392 :    33.351211914785020
 Root    393 :    33.353566069583130
 Root    394 :    33.402188040229920
 Root    395 :    33.405172587316040
 Root    396 :    33.406623323526270
 Root    397 :    33.406688028473280
 Root    398 :    33.667633923388690
 Root    399 :    33.667689134495970
 Root    400 :    33.670327356328910
 Root    401 :    33.731383786247520
 Root    402 :    33.731408145400340
 Root    403 :    34.048002655933020
 Root    404 :    34.086423202239180
 Root    405 :    34.086496046538740
 Root    406 :    34.352528248056910
 Root    407 :    34.352634724772900
 Root    408 :    34.504542423628700
 Root    409 :    34.773358370068880
 Root    410 :    34.773428165480140
 Root    411 :    35.244518041703060
 Root    412 :    35.265109739100050
 Root    413 :    35.265129588232330
 Root    414 :    35.306201153588700
 Root    415 :    35.399715110701110
 Root    416 :    35.399748163476150
 Root    417 :    35.563807881429090
 Root    418 :    35.567583133066480
 Root    419 :    35.567657864926080
 Root    420 :    35.909317294195330
 Root    421 :    35.993688345215220
 Root    422 :    36.075833164025450
 Root    423 :    36.075878937611630
 Root    424 :    36.396979357662320
 Root    425 :    36.582003775970350
 Root    426 :    36.927398456891990
 Root    427 :    36.927534748400870
 Root    428 :    36.970247994617600
 Root    429 :    37.209037496737460
 Root    430 :    37.385985200111920
 Root    431 :    37.386079763922570
 Root    432 :    37.617298479746990
 Root    433 :    37.990323183245510
 Root    434 :    37.991029446898870
 Root    435 :    38.047891041839720
 Root    436 :    38.047923676068380
 Root    437 :    38.160541410185770
 Root    438 :    38.224571754598910
 Root    439 :    38.224652460454290
 Root    440 :    38.379835259737400
 Root    441 :    38.379934001057380
 Root    442 :    38.678562524550040
 Root    443 :    38.678715656012120
 Root    444 :    38.797592189094670
 Root    445 :    38.854728324843370
 Root    446 :    38.854756825408120
 Root    447 :    39.272228798572970
 Root    448 :    39.472566451663080
 Root    449 :    39.586589986090590
 Root    450 :    39.616485507277390
 Root    451 :    39.616655052051630
 Root    452 :    39.650100171099320
 Root    453 :    39.914984149220610
 Root    454 :    39.914993680966620
 Root    455 :    40.035519848484210
 Root    456 :    40.068156419765330
 Root    457 :    40.068176396935260
 Root    458 :    40.365590017492700
 Root    459 :    40.390749161152030
 Root    460 :    40.390789161338130
 Root    461 :    40.686507512586250
 Root    462 :    40.686528695870780
 Root    463 :    40.749982747483260
 Root    464 :    40.750043547992930
 Root    465 :    40.781053514517850
 Root    466 :    40.848677452329150
 Root    467 :    40.848724187672750
 Root    468 :    40.902990870167340
 Root    469 :    40.951922369949510
 Root    470 :    40.994345686707400
 Root    471 :    40.994367585605100
 Root    472 :    41.071168246175220
 Root    473 :    41.193727678778910
 Root    474 :    41.193749842951040
 Root    475 :    41.253807411885340
 Root    476 :    42.753407443583430
 Root    477 :    42.753451986355290
 Root    478 :    42.901650156612910
 Root    479 :    43.160740290876840
 Root    480 :    43.160765626774830
 Root    481 :    44.073621131499730
 Root    482 :    44.073785823722620
 Root    483 :    44.115373488929900
 Root    484 :    44.140501741284350
 Root    485 :    44.287217461015610
 Root    486 :    44.287261047570710
 Root    487 :    44.451646773084940
 Root    488 :    44.451709778186580
 Root    489 :    44.564232416434490
 Root    490 :    44.564311540904080
 Root    491 :    44.886073757090710
 Root    492 :    44.886117006363090
 Root    493 :    45.472328203771820
 Root    494 :    45.472344316459210
 Root    495 :    45.534361439386680
 Root    496 :    45.534387315165110
 Root    497 :    45.689658434921630
 Root    498 :    45.690953610670860
 Root    499 :    46.023170477397750
 Root    500 :    46.023338943811500
 Root    501 :    46.031886911719820
 Root    502 :    46.771192948528880
 Root    503 :    47.334747576575870
 Root    504 :    47.334814265155980
 Root    505 :    47.622472535120320
 Root    506 :    47.622514046329870
 Root    507 :    47.897629765894380
 Root    508 :    47.897658675877960
 Root    509 :    48.094333357290000
 Root    510 :    48.756945537012900
 Root    511 :    49.577260325415830
 Root    512 :    49.577261075365510
 Root    513 :    49.918707035612480
 Root    514 :    49.918728388326640
 Root    515 :    50.069588744888140
 Root    516 :    50.165040691918000
 Root    517 :    50.165066586017110
 Root    518 :    50.391192378457740
 Root    519 :    50.391302801054690
 Root    520 :    50.539329527478430
 Root    521 :    50.539343278750910
 Root    522 :    50.654305522611840
 Root    523 :    50.708488010837340
 Root    524 :    50.731215660420250
 Root    525 :    50.731361101104430
 Root    526 :    51.082841037135790
 Root    527 :    51.082913443413010
 Root    528 :    51.174004643236590
 Root    529 :    51.551168544062660
 Root    530 :    51.821091516202710
 Root    531 :    51.821158133149040
 Root    532 :    52.439245975185800
[...]
     14   0.120996D+00 -0.103658D-01  0.126930D+00  0.136982D-01 -0.260557D-04
     15  -0.103920D-01 -0.120997D+00  0.136879D-01 -0.126946D+00 -0.504170D-04
     16  -0.295812D-01 -0.214184D-01  0.528288D-03  0.567072D-03  0.254730D-05
              1011          1012          1013          1014          1015 
      1  -0.111525D+03 -0.111525D+03 -0.111477D+03 -0.111477D+03 -0.111475D+03
      2  -0.143453D-05 -0.137595D-05  0.744212D-05 -0.208855D-04  0.610827D-02
      3  -0.550292D-02  0.513000D-02  0.497323D-02  0.469751D-03 -0.548693D-05
      4   0.513101D-02  0.550223D-02  0.467716D-03 -0.497400D-02 -0.162768D-04
      5   0.769136D-05  0.718225D-05 -0.138717D-04  0.442065D-04 -0.119434D-01
      6   0.225836D-01 -0.210531D-01 -0.333295D-01 -0.314637D-02  0.335456D-04
      7  -0.210574D-01 -0.225804D-01 -0.313671D-02  0.333365D-01  0.112582D-03
      8   0.000000D+00  0.219073D-05 -0.371949D-05  0.321605D-05  0.000000D+00
      9   0.134520D+00  0.144272D+00  0.245517D-02 -0.261706D-01 -0.897771D-04
     10   0.144274D+00 -0.134509D+00 -0.261951D-01 -0.247794D-02  0.256866D-04
     11  -0.244792D-04 -0.895076D-05 -0.151743D-03  0.425651D-03 -0.121899D+00
     12  -0.102521D-03 -0.279453D-02  0.131446D-01 -0.124943D-01 -0.531371D-01
     13   0.109745D-03  0.279437D-02 -0.132674D-01  0.128409D-01 -0.530183D-01
     14   0.220205D+00 -0.205307D+00 -0.566853D-01 -0.535388D-02  0.513117D-04
     15  -0.205317D+00 -0.220206D+00 -0.532664D-02  0.566571D-01  0.193107D-03
     16   0.278732D-02 -0.106934D-03  0.126759D-01  0.132160D-01  0.232586D-04
              1016          1017          1018          1019          1020 
      1  -0.111407D+03 -0.111407D+03 -0.111393D+03 -0.111390D+03 -0.111390D+03
      2  -0.209141D-05  0.000000D+00 -0.388294D-01 -0.143004D-04 -0.205440D-05
      3  -0.282095D-03 -0.225637D-04  0.238852D-05 -0.138651D-02  0.143642D-02
      4  -0.203732D-04  0.280952D-03 -0.113483D-05 -0.144136D-02 -0.138554D-02
      5   0.915337D-05 -0.313947D-05  0.188106D+00  0.670687D-04  0.119626D-04
      6   0.280568D-01  0.214726D-02 -0.117595D-04  0.198142D-02 -0.204157D-02
      7   0.213649D-02 -0.280510D-01  0.000000D+00  0.206584D-02  0.197644D-02
      8   0.276969D-05 -0.314611D-05  0.000000D+00  0.000000D+00  0.000000D+00
      9   0.115554D-01 -0.151140D+00 -0.678587D-04  0.122533D-01  0.118263D-01
     10  -0.151155D+00 -0.115275D-01  0.377177D-04 -0.118302D-01  0.123137D-01
     11  -0.382961D-04  0.436600D-04 -0.909173D+00 -0.361590D-03 -0.178066D-04
     12  -0.305668D-01  0.303693D-01  0.897670D-01 -0.448893D-01 -0.246068D-02
     13   0.305851D-01 -0.304103D-01  0.896906D-01  0.449827D-01  0.243234D-02
     14  -0.205576D+00 -0.156839D-01  0.353752D-04 -0.186420D-02  0.194419D-02
     15  -0.157103D-01  0.205564D+00  0.629944D-04 -0.193294D-02 -0.186997D-02
     16  -0.303961D-01 -0.305837D-01  0.978251D-05 -0.244318D-02  0.449331D-01
              1021          1022          1023          1024          1025 
      1  -0.111387D+03 -0.111378D+03 -0.111378D+03 -0.111366D+03 -0.111349D+03
      2   0.390201D-01  0.000000D+00 -0.153086D-04  0.000000D+00  0.000000D+00
      3   0.000000D+00  0.789290D-02 -0.439837D-03  0.193129D-05  0.594980D-02
      4   0.106112D-05  0.438901D-03  0.789229D-02  0.000000D+00 -0.109145D-01
      5  -0.198799D+00 -0.188126D-05  0.771553D-04  0.000000D+00 -0.696613D-05
      6   0.000000D+00 -0.385675D-01  0.214770D-02 -0.997376D-05 -0.277210D-01
      7  -0.131609D-04 -0.214651D-02 -0.385671D-01 -0.189558D-05  0.508538D-01
      8   0.000000D+00 -0.152568D-05  0.000000D+00  0.755019D-03  0.143640D-05
      9  -0.151200D-04  0.467007D-02  0.839038D-01 -0.588454D-05 -0.180016D+00
     10   0.491792D-05 -0.838940D-01  0.467202D-02 -0.185097D-04 -0.981348D-01
     11   0.821927D+00 -0.165626D-04 -0.336454D-03  0.000000D+00 -0.603795D-04
     12  -0.221949D-01  0.317301D-02  0.328801D-02  0.000000D+00 -0.179977D-01
     13  -0.222361D-01 -0.316530D-02 -0.324939D-02  0.000000D+00  0.179919D-01
     14   0.493897D-05  0.254464D-01 -0.141323D-02  0.164098D-04 -0.551910D-01
     15   0.585789D-04  0.141953D-02  0.254415D-01  0.615975D-05  0.101238D+00
     16   0.135050D-04  0.329506D-02 -0.316726D-02  0.398947D-05  0.478867D-01
              1026          1027          1028          1029          1030 
      1  -0.111349D+03 -0.111343D+03 -0.111252D+03 -0.111176D+03 -0.111176D+03
      2   0.951378D-05 -0.518093D-01 -0.112597D-01  0.243031D-05  0.149564D-05
      3  -0.109134D-01 -0.154246D-05  0.000000D+00 -0.150406D-01  0.538897D-02
      4  -0.594871D-02 -0.192405D-05  0.129951D-05 -0.538743D-02 -0.150390D-01
      5  -0.534886D-04  0.290064D+00  0.704303D-01 -0.125390D-04 -0.564569D-05
      6   0.508513D-01  0.717219D-05  0.204898D-05  0.787410D-01 -0.282145D-01
      7   0.277191D-01  0.998450D-05 -0.600054D-05  0.282011D-01  0.787293D-01
      8  -0.209611D-05  0.000000D+00  0.000000D+00  0.000000D+00  0.000000D+00
      9  -0.981107D-01 -0.361975D-04 -0.104841D-04 -0.951138D-01 -0.265503D+00
     10   0.180000D+00  0.214833D-04 -0.203465D-05  0.265537D+00 -0.951390D-01
     11   0.373574D-04 -0.112962D+00 -0.415305D+00  0.112265D-03  0.376715D-03
     12  -0.478913D-01  0.490075D-01  0.564476D-01  0.295587D-02  0.165760D-02
     13   0.478734D-01  0.490245D-01  0.564466D-01 -0.300202D-02 -0.171667D-02
     14   0.101212D+00  0.315728D-05 -0.159706D-05  0.111664D+00 -0.400112D-01
     15   0.551606D-01  0.263421D-04  0.655837D-05  0.399883D-01  0.111630D+00
     16  -0.179955D-01  0.562865D-05 -0.310613D-05  0.168323D-02 -0.298152D-02
              1031          1032          1033          1034          1035 
      1  -0.111168D+03 -0.111168D+03 -0.111168D+03 -0.111163D+03 -0.111161D+03
      2   0.121708D-01 -0.207535D-03  0.418950D-04 -0.976022D-02 -0.293796D-05
      3   0.400868D-04  0.276289D-02  0.311051D-02 -0.248797D-05  0.683151D-02
      4  -0.720214D-04 -0.311175D-02  0.278524D-02 -0.150689D-04  0.136171D-01
      5  -0.660288D-01  0.112634D-02 -0.227240D-03  0.463718D-01  0.109608D-04
      6  -0.306367D-03 -0.217772D-01 -0.244956D-01  0.128110D-04 -0.413735D-01
      7   0.548601D-03  0.245011D-01 -0.219092D-01  0.880193D-04 -0.824675D-01
      8   0.000000D+00  0.000000D+00 -0.113906D-05  0.000000D+00  0.127575D-04
      9  -0.134959D-02 -0.601406D-01  0.537510D-01 -0.214383D-03  0.144978D+00
     10  -0.755127D-03 -0.534609D-01 -0.601093D-01  0.262679D-04 -0.727315D-01
     11  -0.370505D+00  0.633343D-02 -0.123280D-02 -0.756419D+00 -0.620390D-03
     12  -0.384564D-01  0.149436D-03  0.381945D-02  0.109556D+00 -0.198558D-01
     13  -0.384257D-01  0.117750D-02 -0.409013D-02  0.109530D+00  0.199756D-01
     14  -0.742479D-03 -0.541813D-01 -0.608672D-01  0.955217D-05 -0.579212D-01
     15   0.131665D-02  0.608851D-01 -0.543672D-01  0.130923D-03 -0.115446D+00
     16   0.630511D-04  0.398563D-02  0.530729D-03 -0.853799D-05  0.502698D-02
              1036          1037          1038          1039          1040 
      1  -0.111161D+03 -0.111161D+03 -0.111093D+03 -0.111093D+03 -0.111081D+03
      2   0.000000D+00  0.000000D+00  0.562590D-05  0.100552D-04 -0.336807D-01
      3   0.136194D-01 -0.203092D-03  0.457314D-01 -0.131007D-01  0.369233D-05
      4  -0.683506D-02 -0.422514D-04  0.131011D-01  0.457312D-01  0.165688D-04
      5   0.170642D-05 -0.283837D-05 -0.324527D-04 -0.577942D-04  0.193682D+00
      6  -0.824912D-01  0.123179D-02 -0.194986D+00  0.558576D-01 -0.161048D-04
      7   0.413976D-01  0.251340D-03 -0.558593D-01 -0.194985D+00 -0.707242D-04
      8   0.102582D-04  0.954309D-03  0.000000D+00 -0.101939D-05  0.000000D+00
      9  -0.727894D-01 -0.431760D-03 -0.804328D-01 -0.280777D+00 -0.108606D-03
     10  -0.145036D+00  0.218525D-02  0.280777D+00 -0.804372D-01  0.297851D-04
     11   0.235392D-03  0.228119D-04  0.160152D-03  0.264175D-03 -0.749711D+00
     12  -0.503888D-02  0.215300D-03 -0.113596D-02 -0.751654D-03  0.157961D-01
     13   0.500897D-02 -0.223794D-03  0.112787D-02  0.733878D-03  0.157960D-01
     14  -0.115517D+00  0.174589D-02  0.336781D+00 -0.964816D-01  0.389877D-04
     15   0.579671D-01  0.331217D-03  0.964753D-01  0.336780D+00  0.128291D-03
     16  -0.199141D-01  0.166369D-03 -0.740947D-03  0.113488D-02  0.000000D+00
              1041          1042          1043          1044          1045 
      1  -0.111076D+03 -0.111006D+03 -0.110932D+03 -0.110932D+03 -0.110895D+03
      2   0.138653D-01  0.931319D-02  0.267036D-05  0.150534D-05 -0.173074D-01
      3   0.000000D+00  0.000000D+00  0.160520D-01 -0.382939D-02  0.000000D+00
      4   0.253202D-05  0.000000D+00  0.382918D-02  0.160518D-01  0.246535D-05
      5  -0.827579D-01 -0.237829D-01 -0.152542D-04 -0.690774D-05  0.894694D-01
      6   0.000000D+00  0.430967D-05 -0.822847D-01  0.196298D-01 -0.470518D-05
      7  -0.101997D-04 -0.409819D-05 -0.196289D-01 -0.822834D-01 -0.126428D-04
      8   0.000000D+00  0.000000D+00 -0.134078D-05  0.000000D+00  0.000000D+00
      9  -0.271108D-04  0.000000D+00 -0.516544D-01 -0.216528D+00 -0.240896D-04
     10  -0.200343D-05 -0.483874D-05  0.216530D+00 -0.516540D-01  0.118878D-04
     11  -0.128707D+00  0.323293D+00  0.859601D-04  0.118295D-03 -0.123401D+01
     12   0.425702D-01  0.287168D-01 -0.604080D-05 -0.357481D-05 -0.528362D-01
     13   0.425723D-01  0.287144D-01  0.703286D-05  0.114568D-04 -0.528356D-01
     14  -0.342994D-05  0.101189D-05  0.164224D+00 -0.391754D-01  0.114910D-04
     15   0.335304D-04 -0.392588D-05  0.391775D-01  0.164223D+00  0.158179D-04
     16   0.639953D-05 -0.364143D-05 -0.354500D-05  0.941062D-05 -0.304364D-05
              1046          1047          1048          1049          1050 
      1  -0.110847D+03 -0.110847D+03 -0.110837D+03 -0.110837D+03 -0.110827D+03
      2   0.172210D-05  0.000000D+00  0.960872D-05  0.209979D-04 -0.490248D-01
      3   0.715220D-02 -0.101296D-02 -0.259750D-02  0.114219D-02  0.100249D-05
      4   0.101269D-02  0.715219D-02 -0.114221D-02 -0.259745D-02 -0.148853D-05
      5  -0.949079D-05  0.574670D-05 -0.478654D-04 -0.107866D-03  0.246267D+00
      6  -0.325463D-01  0.460959D-02  0.121241D-01 -0.533110D-02 -0.492847D-05
      7  -0.460817D-02 -0.325465D-01  0.533134D-02  0.121232D-01  0.675506D-05
      8   0.000000D+00  0.000000D+00  0.209901D-05  0.000000D+00  0.000000D+00
      9   0.369337D-02  0.261026D-01 -0.416310D-02 -0.946485D-02 -0.129692D-04
     10  -0.261017D-01  0.369885D-02  0.946510D-02 -0.416164D-02  0.308012D-05
     11  -0.306664D-04  0.113167D-04  0.575799D-04  0.820902D-04 -0.153364D+00
     12   0.860091D-02  0.750985D-02  0.148575D-01  0.708948D-02 -0.439238D-01
     13  -0.859775D-02 -0.750886D-02 -0.148431D-01 -0.704819D-02 -0.439361D-01
     14   0.331772D-02 -0.467871D-03 -0.183482D-01  0.806618D-02  0.194737D-05
     15   0.471932D-03  0.331466D-02 -0.806861D-02 -0.183466D-01 -0.268637D-05
     16   0.750983D-02 -0.859832D-02  0.706955D-02 -0.148492D-01 -0.106574D-05
              1051          1052          1053          1054          1055 
      1  -0.110631D+03 -0.110612D+03 -0.110612D+03 -0.110570D+03 -0.110381D+03
      2  -0.155220D-01  0.000000D+00  0.000000D+00  0.306983D-01 -0.910086D-02
      3   0.000000D+00 -0.136742D-03 -0.675886D-02  0.000000D+00  0.000000D+00
      4   0.000000D+00 -0.675904D-02  0.137616D-03  0.000000D+00  0.000000D+00
      5   0.101025D+00 -0.399505D-05 -0.209736D-05 -0.247742D+00  0.342632D-01
      6  -0.141319D-05  0.662083D-03  0.327419D-01  0.592985D-05  0.000000D+00
      7   0.000000D+00  0.327429D-01 -0.667091D-03 -0.216820D-05  0.166977D-05
      8   0.000000D+00 -0.108704D-05 -0.187565D-05  0.000000D+00  0.000000D+00
      9   0.284656D-05 -0.111401D+00  0.226848D-02  0.635444D-05 -0.267074D-05
     10  -0.237767D-05  0.225329D-02  0.111400D+00 -0.132444D-04 -0.246835D-05
     11   0.210207D+00  0.115648D-05  0.126983D-04  0.373474D+00  0.660742D+00
     12  -0.145744D+00 -0.693838D-02 -0.574641D-02 -0.382572D-01  0.290368D-01
     13  -0.145744D+00  0.692066D-02  0.573608D-02 -0.382573D-01  0.290379D-01
     14  -0.336892D-05  0.184791D-02  0.913807D-01 -0.816444D-05 -0.906091D-05
     15  -0.366406D-05  0.913861D-01 -0.186187D-02 -0.442610D-05  0.172127D-05
     16   0.229163D-05  0.574377D-02 -0.693174D-02 -0.232074D-05  0.172023D-05
              1056          1057          1058          1059          1060 
      1  -0.110281D+03 -0.938950D+02 -0.938950D+02 -0.938349D+02 -0.938349D+02
      2  -0.487263D-02  0.000000D+00  0.000000D+00  0.000000D+00  0.000000D+00
      3   0.000000D+00  0.108968D-02  0.306074D-02  0.124101D-01 -0.113279D-01
      4   0.000000D+00  0.306120D-02 -0.108945D-02  0.113281D-01  0.124101D-01
      5   0.583542D-01 -0.100213D-05  0.196142D-05 -0.225506D-05 -0.392611D-05
      6  -0.358834D-05 -0.118431D-01 -0.332666D-01 -0.146606D+00  0.133821D+00
      7  -0.215772D-05 -0.332721D-01  0.118416D-01 -0.133824D+00 -0.146606D+00
      8   0.000000D+00  0.000000D+00  0.000000D+00  0.000000D+00  0.000000D+00
      9   0.379197D-05  0.281796D+00 -0.100305D+00 -0.129651D+00 -0.142041D+00
     10   0.000000D+00 -0.100306D+00 -0.281793D+00  0.142042D+00 -0.129661D+00
     11  -0.415312D-01 -0.743768D-05  0.585008D-05  0.213573D-05 -0.105479D-04
     12  -0.207956D-01 -0.272463D-01 -0.105748D-01 -0.981485D-02 -0.116844D-02
     13  -0.207971D-01  0.272441D-01  0.105773D-01  0.981029D-02  0.117051D-02
     14  -0.272937D-05 -0.103442D+00 -0.290602D+00  0.134148D+00 -0.122456D+00
     15  -0.894990D-05 -0.290606D+00  0.103440D+00  0.122445D+00  0.134147D+00
     16  -0.212710D-05  0.105761D-01 -0.272460D-01 -0.117102D-02  0.981107D-02
              1061          1062          1063          1064          1065 
      1  -0.937975D+02 -0.937975D+02 -0.937825D+02 -0.936384D+02 -0.935777D+02
      2  -0.142453D-05  0.125812D-05  0.124934D-01 -0.104638D-01 -0.458741D-02
      3  -0.174865D-02 -0.503073D-02  0.000000D+00  0.000000D+00  0.000000D+00
      4  -0.502996D-02  0.174881D-02 -0.115920D-05  0.000000D+00  0.000000D+00
      5   0.190569D-04 -0.172817D-04 -0.169116D+00  0.121644D+00  0.450120D-01
      6   0.208651D-01  0.600281D-01 -0.519524D-05 -0.103066D-05  0.000000D+00
      7   0.600190D-01 -0.208675D-01  0.135120D-04  0.000000D+00  0.000000D+00
      8   0.000000D+00  0.000000D+00  0.000000D+00  0.000000D+00  0.000000D+00
      9  -0.323706D+00  0.112530D+00 -0.483295D-04 -0.260501D-05  0.000000D+00
     10   0.112532D+00  0.323702D+00 -0.191593D-04  0.000000D+00  0.000000D+00
     11   0.663233D-04 -0.592195D-04 -0.576282D+00 -0.938926D+00 -0.805186D-01
     12   0.907207D-02  0.359436D-02 -0.414594D-01 -0.235322D-01  0.789911D-01
     13  -0.905937D-02 -0.360154D-02 -0.414609D-01 -0.235322D-01  0.789904D-01
     14   0.119062D+00  0.342488D+00 -0.215978D-04  0.303807D-05  0.169607D-05
     15   0.342491D+00 -0.119061D+00  0.508268D-04  0.271107D-05  0.000000D+00
     16  -0.359616D-02  0.906835D-02 -0.269573D-05  0.000000D+00  0.000000D+00
              1066          1067          1068          1069          1070 
      1  -0.935455D+02 -0.935455D+02 -0.935188D+02 -0.934652D+02 -0.933827D+02
      2   0.000000D+00  0.000000D+00 -0.587207D-02  0.338273D-03  0.421045D-03
      3   0.610427D-04  0.832998D-03  0.000000D+00  0.000000D+00  0.000000D+00
      4   0.833037D-03 -0.610581D-04  0.000000D+00  0.000000D+00  0.000000D+00
      5   0.558022D-05  0.000000D+00  0.721741D-01  0.111742D-01  0.229744D-02
      6  -0.261946D-03 -0.357362D-02  0.000000D+00  0.000000D+00  0.000000D+00
      7  -0.357395D-02  0.261885D-03  0.000000D+00  0.000000D+00  0.000000D+00
      8   0.000000D+00  0.000000D+00  0.000000D+00  0.000000D+00  0.000000D+00
      9  -0.547609D-01  0.401357D-02  0.254542D-05  0.000000D+00  0.000000D+00
     10   0.401316D-02  0.547601D-01  0.000000D+00  0.000000D+00  0.150882D-05
     11  -0.260921D-04  0.182287D-05 -0.321693D+00 -0.267042D+00  0.843963D-01
     12  -0.889350D-03 -0.659100D-03 -0.518060D-01 -0.160090D+00  0.152611D+00
     13   0.886378D-03  0.659855D-03 -0.518061D-01 -0.160089D+00  0.152611D+00
     14   0.413709D-02  0.564470D-01  0.000000D+00  0.000000D+00  0.172183D-05
     15   0.564476D-01 -0.413689D-02 -0.285497D-05  0.000000D+00  0.000000D+00
     16   0.659640D-03 -0.887263D-03  0.000000D+00  0.000000D+00  0.000000D+00
              1071          1072          1073          1074          1075 
      1  -0.933439D+02 -0.932138D+02 -0.928530D+02 -0.928530D+02 -0.926644D+02
      2  -0.393251D-02 -0.310246D-02  0.000000D+00  0.000000D+00  0.121993D-01
      3   0.000000D+00  0.000000D+00  0.783663D-02  0.243102D-03  0.000000D+00
      4   0.000000D+00  0.000000D+00 -0.243121D-03  0.783657D-02  0.000000D+00
      5   0.880458D-02  0.836315D-02  0.000000D+00  0.000000D+00 -0.154583D+00
      6   0.000000D+00  0.000000D+00 -0.986605D-01 -0.306070D-02  0.000000D+00
      7   0.000000D+00  0.000000D+00  0.306068D-02 -0.986604D-01  0.201432D-05
      8   0.000000D+00  0.000000D+00 -0.111618D-05  0.135458D-05  0.000000D+00
      9   0.000000D+00  0.000000D+00  0.522980D-03 -0.168592D-01  0.000000D+00
     10   0.000000D+00  0.000000D+00  0.168593D-01  0.523052D-03 -0.174128D-05
     11  -0.219996D+00  0.411016D-01  0.318140D-05 -0.100712D-05  0.267923D+00
     12  -0.155478D+00 -0.298962D-01  0.202119D-02  0.248859D-02 -0.596211D-01
     13  -0.155478D+00 -0.298961D-01 -0.201561D-02 -0.248600D-02 -0.596218D-01
     14   0.000000D+00  0.000000D+00  0.106091D-01  0.329147D-03  0.199725D-05
     15   0.000000D+00  0.000000D+00 -0.329106D-03  0.106093D-01  0.269307D-05
     16   0.000000D+00  0.000000D+00  0.248884D-02 -0.201574D-02  0.000000D+00
              1076          1077          1078          1079          1080 
      1  -0.926208D+02 -0.926208D+02 -0.925248D+02 -0.923758D+02 -0.922894D+02
      2   0.000000D+00  0.000000D+00  0.338438D-02 -0.319162D-03  0.520665D-02
      3   0.137132D-03  0.274603D-02  0.000000D+00  0.000000D+00  0.000000D+00
      4   0.274611D-02 -0.137064D-03  0.000000D+00  0.000000D+00  0.000000D+00
      5  -0.606787D-05  0.000000D+00 -0.383797D-01  0.434640D-01 -0.451275D-01
      6  -0.205249D-02 -0.411093D-01  0.000000D+00  0.000000D+00  0.000000D+00
      7  -0.411097D-01  0.205235D-02  0.000000D+00  0.000000D+00  0.000000D+00
      8   0.000000D+00  0.000000D+00  0.000000D+00  0.000000D+00  0.000000D+00
      9   0.152800D-01 -0.762478D-03  0.000000D+00  0.000000D+00  0.000000D+00
     10  -0.763294D-03 -0.152805D-01  0.000000D+00 -0.151717D-05  0.000000D+00
     11   0.153622D-04  0.000000D+00  0.252782D+00  0.507182D-01 -0.139588D+00
     12  -0.946032D-02 -0.737477D-02  0.132046D+00 -0.675167D-01 -0.113649D+00
     13   0.945806D-02  0.737716D-02  0.132046D+00 -0.675166D-01 -0.113649D+00
     14  -0.577622D-03 -0.115657D-01 -0.188084D-05 -0.275224D-05  0.000000D+00
     15  -0.115661D-01  0.577271D-03  0.000000D+00  0.000000D+00  0.000000D+00
     16   0.737692D-02 -0.945759D-02  0.000000D+00  0.000000D+00  0.000000D+00
 Unable to Open any file for archive entry.
 1\1\GINC-HEL14\SP\RwB97XD TD-FC\Gen\C3H4\RR\27-Feb-2022\0\\#P TD(Nstat
 es=10000) wB97XD/Gen SCF(maxcycles=100) Int(Grid=ultrafine)\\xGDB7_000
 01_tier4.com\\0,1\C,0,1.236673,0.000003,0.000003\C,0,-0.218742,-0.0000
 06,-0.000005\C,0,-1.41578,0.000004,-0.000001\H,0,1.622045,0.979039,0.2
 88094\H,0,1.62207,-0.240023,-0.991898\H,0,1.622037,-0.739019,0.703815\
 H,0,-2.479058,-0.000005,0.000008\\Version=EM64L-G16RevC.01\State=1-A\H
 F=-116.6551515\RMSD=3.409e-09\PG=C01 [X(C3H4)]\\@
 The archive entry for this job was punched.


 BRING ME INTO THE COMPANY OF THOSE WHO SEEK TRUTH,
 AND DELIVER ME FROM THOSE WHO HAVE FOUND IT.
 Job cpu time:       0 days  0 hours 49 minutes 20.8 seconds.
 Elapsed time:       0 days  0 hours  6 minutes 11.5 seconds.
 File lengths (MBytes):  RWF=   1570 Int=      0 D2E=      0 Chk=    520 Scr=      1
 Normal termination of Gaussian 16 at Sun Feb 27 06:42:03 2022.
