 Entering Gaussian System, Link 0=g16
 Input=bigQM7w_TDwB97XD_def2TZVP_000003.com
 Output=bigQM7w_TDwB97XD_def2TZVP_000003.log
 Initial command:
 /home/rr/g16/l1.exe "/scratch/rr/PBS_7918656.helios/Gau-13057.inp" -scrdir="/scratch/rr/PBS_7918656.helios/"
 Entering Link 1 = /home/rr/g16/l1.exe PID=     13060.
  
 Copyright (c) 1988-2019, Gaussian, Inc.  All Rights Reserved.
  
 This is part of the Gaussian(R) 16 program.  It is based on
 the Gaussian(R) 09 system (copyright 2009, Gaussian, Inc.),
 the Gaussian(R) 03 system (copyright 2003, Gaussian, Inc.),
 the Gaussian(R) 98 system (copyright 1998, Gaussian, Inc.),
 the Gaussian(R) 94 system (copyright 1995, Gaussian, Inc.),
 the Gaussian 92(TM) system (copyright 1992, Gaussian, Inc.),
 the Gaussian 90(TM) system (copyright 1990, Gaussian, Inc.),
 the Gaussian 88(TM) system (copyright 1988, Gaussian, Inc.),
 the Gaussian 86(TM) system (copyright 1986, Carnegie Mellon
 University), and the Gaussian 82(TM) system (copyright 1983,
 Carnegie Mellon University). Gaussian is a federally registered
 trademark of Gaussian, Inc.
  
 This software contains proprietary and confidential information,
 including trade secrets, belonging to Gaussian, Inc.
  
 This software is provided under written license and may be
 used, copied, transmitted, or stored only in accord with that
 written license.
  
 The following legend is applicable only to US Government
 contracts under FAR:
  
                    RESTRICTED RIGHTS LEGEND
  
 Use, reproduction and disclosure by the US Government is
 subject to restrictions as set forth in subparagraphs (a)
 and (c) of the Commercial Computer Software - Restricted
 Rights clause in FAR 52.227-19.
  
 Gaussian, Inc.
 340 Quinnipiac St., Bldg. 40, Wallingford CT 06492
  
  
 ---------------------------------------------------------------
 Warning -- This program may not be used in any manner that
 competes with the business of Gaussian, Inc. or will provide
 assistance to any competitor of Gaussian, Inc.  The licensee
 of this program is prohibited from giving any competitor of
 Gaussian, Inc. access to this program.  By using this program,
 the user acknowledges that Gaussian, Inc. is engaged in the
 business of creating and licensing software in the field of
 computational chemistry and represents and warrants to the
 licensee that it is not a competitor of Gaussian, Inc. and that
 it will not use this program in any manner prohibited above.
 ---------------------------------------------------------------
  

 Cite this work as:
 Gaussian 16, Revision C.01,
 M. J. Frisch, G. W. Trucks, H. B. Schlegel, G. E. Scuseria, 
 M. A. Robb, J. R. Cheeseman, G. Scalmani, V. Barone, 
 G. A. Petersson, H. Nakatsuji, X. Li, M. Caricato, A. V. Marenich, 
 J. Bloino, B. G. Janesko, R. Gomperts, B. Mennucci, H. P. Hratchian, 
 J. V. Ortiz, A. F. Izmaylov, J. L. Sonnenberg, D. Williams-Young, 
 F. Ding, F. Lipparini, F. Egidi, J. Goings, B. Peng, A. Petrone, 
 T. Henderson, D. Ranasinghe, V. G. Zakrzewski, J. Gao, N. Rega, 
 G. Zheng, W. Liang, M. Hada, M. Ehara, K. Toyota, R. Fukuda, 
 J. Hasegawa, M. Ishida, T. Nakajima, Y. Honda, O. Kitao, H. Nakai, 
 T. Vreven, K. Throssell, J. A. Montgomery, Jr., J. E. Peralta, 
 F. Ogliaro, M. J. Bearpark, J. J. Heyd, E. N. Brothers, K. N. Kudin, 
 V. N. Staroverov, T. A. Keith, R. Kobayashi, J. Normand, 
 K. Raghavachari, A. P. Rendell, J. C. Burant, S. S. Iyengar, 
 J. Tomasi, M. Cossi, J. M. Millam, M. Klene, C. Adamo, R. Cammi, 
 J. W. Ochterski, R. L. Martin, K. Morokuma, O. Farkas, 
 J. B. Foresman, and D. J. Fox, Gaussian, Inc., Wallingford CT, 2019.
 
 ******************************************
 Gaussian 16:  EM64L-G16RevC.01  3-Jul-2019
                27-Feb-2022 
 ******************************************
 %mem=64gb
 %nproc=8
 Will use up to    8 processors via shared memory.
 ----------------------------------------------------------------------
 #P TD(Nstates=10000) wB97XD/Gen SCF(maxcycles=100) Int(Grid=ultrafine)
 ----------------------------------------------------------------------
 1/38=1,172=1/1;
 2/12=2,17=6,18=5,40=1/2;
 3/5=7,11=9,25=1,30=1,74=-58,75=-5/1,2,3,8;
 4//1;
 5/5=2,7=100,38=5/2;
 8/6=1,10=1,108=10000/1;
 9/41=10000,42=1,70=2/14;
 6/7=2,8=2,9=2,10=2/1;
 99/5=1,9=1/99;
 Leave Link    1 at Sun Feb 27 06:37:00 2022, MaxMem=  8589934592 cpu:               0.4 elap:               0.1
 (Enter /home/rr/g16/l101.exe)
 ---------------------
 xGDB7_00001_tier4.com
 ---------------------
 Symbolic Z-matrix:
 Charge =  0 Multiplicity = 1
 8                     0.        0.        0.11602 
 1                     0.        0.7619   -0.46406 
 1                     0.       -0.7619   -0.46406 
 
 ITRead=  0  0  0
 MicOpt= -1 -1 -1
 NAtoms=      3 NQM=        3 NQMF=       0 NMMI=      0 NMMIF=      0
                NMic=       0 NMicF=      0.
                    Isotopes and Nuclear Properties:
 (Nuclear quadrupole moments (NQMom) in fm**2, nuclear magnetic moments (NMagM)
  in nuclear magnetons)

  Atom         1           2           3
 IAtWgt=          16           1           1
 AtmWgt=  15.9949146   1.0078250   1.0078250
 NucSpn=           0           1           1
 AtZEff=  -0.0000000  -0.0000000  -0.0000000
 NQMom=    0.0000000   0.0000000   0.0000000
 NMagM=    0.0000000   2.7928460   2.7928460
 AtZNuc=   8.0000000   1.0000000   1.0000000
 Leave Link  101 at Sun Feb 27 06:37:00 2022, MaxMem=  8589934592 cpu:               0.9 elap:               0.2
 (Enter /home/rr/g16/l202.exe)
                          Input orientation:                          
 ---------------------------------------------------------------------
 Center     Atomic      Atomic             Coordinates (Angstroms)
 Number     Number       Type             X           Y           Z
 ---------------------------------------------------------------------
      1          8           0        0.000000    0.000000    0.116015
      2          1           0        0.000000    0.761895   -0.464058
      3          1           0        0.000000   -0.761895   -0.464058
 ---------------------------------------------------------------------
                    Distance matrix (angstroms):
                    1          2          3
     1  O    0.000000
     2  H    0.957585   0.000000
     3  H    0.957585   1.523790   0.000000
 Stoichiometry    H2O
 Framework group  C2V[C2(O),SGV(H2)]
 Deg. of freedom     2
 Full point group                 C2V     NOp   4
 Largest Abelian subgroup         C2V     NOp   4
 Largest concise Abelian subgroup C2      NOp   2
                         Standard orientation:                         
 ---------------------------------------------------------------------
 Center     Atomic      Atomic             Coordinates (Angstroms)
 Number     Number       Type             X           Y           Z
 ---------------------------------------------------------------------
      1          8           0        0.000000   -0.000000    0.116015
      2          1           0        0.000000    0.761895   -0.464058
      3          1           0       -0.000000   -0.761895   -0.464058
 ---------------------------------------------------------------------
 Rotational constants (GHZ):         839.0390262         431.9284530         285.1409139
 Leave Link  202 at Sun Feb 27 06:37:01 2022, MaxMem=  8589934592 cpu:               0.3 elap:               0.1
 (Enter /home/rr/g16/l301.exe)
 General basis read from cards:  (5D, 7F)
 Centers:       2      3
 S 3 1.00
     Exponent=  3.4061341000D+01 Coefficients=  6.0251978000D-03
     Exponent=  5.1235746000D+00 Coefficients=  4.5021094000D-02
     Exponent=  1.1646626000D+00 Coefficients=  2.0189726000D-01
 S 1 1.00
     Exponent=  3.2723041000D-01 Coefficients=  1.0000000000D+00
 S 1 1.00
     Exponent=  1.0307241000D-01 Coefficients=  1.0000000000D+00
 P 1 1.00
     Exponent=  8.0000000000D-01 Coefficients=  1.0000000000D+00
 P 1 1.00
     Exponent=  9.5774129632D-02 Coefficients=  1.0000000000D+00
 ****
 Centers:       1
 S 6 1.00
     Exponent=  2.7032382631D+04 Coefficients=  2.1726302465D-04
     Exponent=  4.0523871392D+03 Coefficients=  1.6838662199D-03
     Exponent=  9.2232722710D+02 Coefficients=  8.7395616265D-03
     Exponent=  2.6124070989D+02 Coefficients=  3.5239968808D-02
     Exponent=  8.5354641351D+01 Coefficients=  1.1153519115D-01
     Exponent=  3.1035035245D+01 Coefficients=  2.5588953961D-01
 S 2 1.00
     Exponent=  1.2260860728D+01 Coefficients=  3.9768730901D-01
     Exponent=  4.9987076005D+00 Coefficients=  2.4627849430D-01
 S 1 1.00
     Exponent=  1.1703108158D+00 Coefficients=  1.0000000000D+00
 S 1 1.00
     Exponent=  4.6474740994D-01 Coefficients=  1.0000000000D+00
 S 1 1.00
     Exponent=  1.8504536357D-01 Coefficients=  1.0000000000D+00
 S 1 1.00
     Exponent=  7.0288026270D-02 Coefficients=  1.0000000000D+00
 P 4 1.00
     Exponent=  6.3274954801D+01 Coefficients=  6.0685103418D-03
     Exponent=  1.4627049379D+01 Coefficients=  4.1912575824D-02
     Exponent=  4.4501223456D+00 Coefficients=  1.6153841088D-01
     Exponent=  1.5275799647D+00 Coefficients=  3.5706951311D-01
 P 1 1.00
     Exponent=  5.2935117943D-01 Coefficients=  4.4794207502D-01
 P 1 1.00
     Exponent=  1.7478421270D-01 Coefficients=  2.4446069663D-01
 P 1 1.00
     Exponent=  5.1112745706D-02 Coefficients=  1.0000000000D+00
 D 1 1.00
     Exponent=  2.3140000000D+00 Coefficients=  1.0000000000D+00
 D 1 1.00
     Exponent=  6.4500000000D-01 Coefficients=  1.0000000000D+00
 D 1 1.00
     Exponent=  1.4696477366D-01 Coefficients=  1.0000000000D+00
 F 1 1.00
     Exponent=  1.4280000000D+00 Coefficients=  1.0000000000D+00
 ****
 Ernie: Thresh=  0.10000D-02 Tol=  0.10000D-05 Strict=F.
 There are    29 symmetry adapted cartesian basis functions of A1  symmetry.
 There are     6 symmetry adapted cartesian basis functions of A2  symmetry.
 There are    12 symmetry adapted cartesian basis functions of B1  symmetry.
 There are    17 symmetry adapted cartesian basis functions of B2  symmetry.
 There are    25 symmetry adapted basis functions of A1  symmetry.
 There are     6 symmetry adapted basis functions of A2  symmetry.
 There are    11 symmetry adapted basis functions of B1  symmetry.
 There are    16 symmetry adapted basis functions of B2  symmetry.
    58 basis functions,    83 primitive gaussians,    64 cartesian basis functions
     5 alpha electrons        5 beta electrons
       nuclear repulsion energy         9.1891417035 Hartrees.
 IExCor= 4639 DFT=T Ex+Corr=wB97XD ExCW=0 ScaHFX=  1.000000
 ScaDFX=  1.000000  1.000000  1.000000  1.000000 ScalE2=  1.000000  1.000000
 IRadAn=      5 IRanWt=     -1 IRanGd=            0 ICorTp=0 IEmpDi=121
 HFx  wShort=  0.000000 wLong=  0.200000 cFull=  0.222036 cShort=  0.000000 cLong=  0.777964
 DFx  wShort=  0.000000 wLong=  0.200000 cFull=  0.000000 cShort=  0.000000 cLong=  1.000000
 NAtoms=    3 NActive=    3 NUniq=    2 SFac= 2.25D+00 NAtFMM=   60 NAOKFM=F Big=F
 Integral buffers will be    131072 words long.
 Raffenetti 1 integral format.
 Two-electron integral symmetry is turned on.
 R6Disp:  Grimme-D2 Dispersion energy=       -0.0000277894 Hartrees.
 Nuclear repulsion after empirical dispersion term =        9.1891139141 Hartrees.
 Leave Link  301 at Sun Feb 27 06:37:01 2022, MaxMem=  8589934592 cpu:               1.3 elap:               0.2
 (Enter /home/rr/g16/l302.exe)
 NPDir=0 NMtPBC=     1 NCelOv=     1 NCel=       1 NClECP=     1 NCelD=      1
         NCelK=      1 NCelE2=     1 NClLst=     1 CellRange=     0.0.
 One-electron integrals computed using PRISM.
 One-electron integral symmetry used in STVInt
 NBasis=    58 RedAO= T EigKep=  1.94D-03  NBF=    25     6    11    16
 NBsUse=    58 1.00D-06 EigRej= -1.00D+00 NBFU=    25     6    11    16
 Precomputing XC quadrature grid using
 IXCGrd= 4 IRadAn=           5 IRanWt=          -1 IRanGd=           0 AccXCQ= 0.00D+00.
 Generated NRdTot=       0 NPtTot=           0 NUsed=           0 NTot=          32
 NSgBfM=    64    64    64    64    64 MxSgAt=     3 MxSgA2=     3.
 Leave Link  302 at Sun Feb 27 06:37:01 2022, MaxMem=  8589934592 cpu:               1.8 elap:               0.3
 (Enter /home/rr/g16/l303.exe)
 DipDrv:  MaxL=1.
 Leave Link  303 at Sun Feb 27 06:37:02 2022, MaxMem=  8589934592 cpu:               0.7 elap:               0.2
 (Enter /home/rr/g16/l308.exe)
 Leave Link  308 at Sun Feb 27 06:37:02 2022, MaxMem=  8589934592 cpu:               0.6 elap:               0.2
 (Enter /home/rr/g16/l401.exe)
 ExpMin= 5.11D-02 ExpMax= 2.70D+04 ExpMxC= 9.22D+02 IAcc=3 IRadAn=         5 AccDes= 0.00D+00
 Harris functional with IExCor= 4639 and IRadAn=       5 diagonalized for initial guess.
 HarFok:  IExCor= 4639 AccDes= 0.00D+00 IRadAn=         5 IDoV= 1 UseB2=F ITyADJ=14
 ICtDFT=  3500011 ScaDFX=  1.000000  1.000000  1.000000  1.000000
 FoFCou: FMM=F IPFlag=           0 FMFlag=      100000 FMFlg1=           0
         NFxFlg=           0 DoJE=T BraDBF=F KetDBF=T FulRan=T
         wScrn=  0.000000 ICntrl=       500 IOpCl=  0 I1Cent=   200000004 NGrid=           0
         NMat0=    1 NMatS0=      1 NMatT0=    0 NMatD0=    1 NMtDS0=    0 NMtDT0=    0
 Petite list used in FoFCou.
 Harris En= -73.6337393329201    
 JPrj=0 DoOrth=F DoCkMO=F.
 Initial guess orbital symmetries:
       Occupied  (A1) (A1) (B2) (A1) (B1)
       Virtual   (A1) (B2) (A1) (B1) (B2) (A1) (A2) (A1) (B1) (A1)
                 (B2) (B2) (B2) (A1) (B1) (A1) (A2) (A1) (B1) (A1)
                 (B2) (B2) (A1) (A2) (A1) (B1) (B2) (A1) (B2) (B1)
                 (A2) (A1) (A1) (B2) (A1) (B1) (B2) (A1) (A1) (B2)
                 (B1) (A1) (B1) (A2) (B2) (B2) (A1) (B1) (A2) (A1)
                 (A1) (B2) (A1)
 The electronic state of the initial guess is 1-A1.
 Leave Link  401 at Sun Feb 27 06:37:03 2022, MaxMem=  8589934592 cpu:               4.3 elap:               0.8
 (Enter /home/rr/g16/l502.exe)
 Keep R1 ints in memory in symmetry-blocked form, NReq=10151228.
 FoFCou: FMM=F IPFlag=           0 FMFlag=           0 FMFlg1=           0
         NFxFlg=           0 DoJE=F BraDBF=F KetDBF=F FulRan=T
         wScrn=  0.000000 ICntrl=       600 IOpCl=  0 I1Cent=           0 NGrid=           0
         NMat0=    1 NMatS0=   1711 NMatT0=    0 NMatD0=    1 NMtDS0=    0 NMtDT0=    0
 Petite list used in FoFCou.
 Closed shell SCF:
 Using DIIS extrapolation, IDIIS=  1040.
 NGot=  8589934592 LenX=  8589537948 LenY=  8589533411
 Requested convergence on RMS density matrix=1.00D-08 within 100 cycles.
 Requested convergence on MAX density matrix=1.00D-06.
 Requested convergence on             energy=1.00D-06.
 No special actions if energy rises.
 Integral accuracy reduced to 1.0D-05 until final iterations.

 Cycle   1  Pass 0  IDiag  1:
 E= -76.4287485670462    
 DIIS: error= 7.30D-02 at cycle   1 NSaved=   1.
 NSaved= 1 IEnMin= 1 EnMin= -76.4287485670462     IErMin= 1 ErrMin= 7.30D-02
 ErrMax= 7.30D-02  0.00D+00 EMaxC= 1.00D-01 BMatC= 1.42D-01 BMatP= 1.42D-01
 IDIUse=3 WtCom= 2.70D-01 WtEn= 7.30D-01
 Coeff-Com:  0.100D+01
 Coeff-En:   0.100D+01
 Coeff:      0.100D+01
 Gap=     0.486 Goal=   None    Shift=    0.000
 GapD=    0.486 DampG=2.000 DampE=0.500 DampFc=1.0000 IDamp=-1.
 RMSDP=1.52D-03 MaxDP=2.13D-02              OVMax= 3.31D-02

 Cycle   2  Pass 0  IDiag  1:
 E= -76.4395014748656     Delta-E=       -0.010752907819 Rises=F Damp=F
 DIIS: error= 6.37D-03 at cycle   2 NSaved=   2.
 NSaved= 2 IEnMin= 2 EnMin= -76.4395014748656     IErMin= 2 ErrMin= 6.37D-03
 ErrMax= 6.37D-03  0.00D+00 EMaxC= 1.00D-01 BMatC= 2.83D-03 BMatP= 1.42D-01
 IDIUse=3 WtCom= 9.36D-01 WtEn= 6.37D-02
 Coeff-Com:  0.839D-01 0.916D+00
 Coeff-En:   0.000D+00 0.100D+01
 Coeff:      0.786D-01 0.921D+00
 Gap=     0.455 Goal=   None    Shift=    0.000
 RMSDP=5.35D-04 MaxDP=1.03D-02 DE=-1.08D-02 OVMax= 1.65D-02

 Cycle   3  Pass 0  IDiag  1:
 E= -76.4398076894714     Delta-E=       -0.000306214606 Rises=F Damp=F
 DIIS: error= 6.42D-03 at cycle   3 NSaved=   3.
 NSaved= 3 IEnMin= 3 EnMin= -76.4398076894714     IErMin= 2 ErrMin= 6.37D-03
 ErrMax= 6.42D-03  0.00D+00 EMaxC= 1.00D-01 BMatC= 1.73D-03 BMatP= 2.83D-03
 IDIUse=3 WtCom= 9.36D-01 WtEn= 6.42D-02
 Coeff-Com:  0.225D-01 0.466D+00 0.511D+00
 Coeff-En:   0.000D+00 0.434D+00 0.566D+00
 Coeff:      0.210D-01 0.464D+00 0.515D+00
 Gap=     0.471 Goal=   None    Shift=    0.000
 RMSDP=2.75D-04 MaxDP=5.49D-03 DE=-3.06D-04 OVMax= 9.71D-03

 Cycle   4  Pass 0  IDiag  1:
 E= -76.4408676203056     Delta-E=       -0.001059930834 Rises=F Damp=F
 DIIS: error= 5.36D-04 at cycle   4 NSaved=   4.
 NSaved= 4 IEnMin= 4 EnMin= -76.4408676203056     IErMin= 4 ErrMin= 5.36D-04
 ErrMax= 5.36D-04  0.00D+00 EMaxC= 1.00D-01 BMatC= 1.28D-05 BMatP= 1.73D-03
 IDIUse=3 WtCom= 9.95D-01 WtEn= 5.36D-03
 Coeff-Com:  0.219D-02 0.589D-01 0.119D+00 0.820D+00
 Coeff-En:   0.000D+00 0.000D+00 0.000D+00 0.100D+01
 Coeff:      0.218D-02 0.585D-01 0.119D+00 0.821D+00
 Gap=     0.470 Goal=   None    Shift=    0.000
 RMSDP=3.56D-05 MaxDP=4.13D-04 DE=-1.06D-03 OVMax= 1.03D-03

 Cycle   5  Pass 0  IDiag  1:
 E= -76.4408773546594     Delta-E=       -0.000009734354 Rises=F Damp=F
 DIIS: error= 9.33D-05 at cycle   5 NSaved=   5.
 NSaved= 5 IEnMin= 5 EnMin= -76.4408773546594     IErMin= 5 ErrMin= 9.33D-05
 ErrMax= 9.33D-05  0.00D+00 EMaxC= 1.00D-01 BMatC= 2.43D-07 BMatP= 1.28D-05
 IDIUse=1 WtCom= 1.00D+00 WtEn= 0.00D+00
 Coeff-Com: -0.133D-02-0.282D-01-0.292D-01-0.774D-01 0.114D+01
 Coeff:     -0.133D-02-0.282D-01-0.292D-01-0.774D-01 0.114D+01
 Gap=     0.470 Goal=   None    Shift=    0.000
 RMSDP=1.56D-05 MaxDP=2.14D-04 DE=-9.73D-06 OVMax= 5.01D-04

 Cycle   6  Pass 0  IDiag  1:
 E= -76.4408780181293     Delta-E=       -0.000000663470 Rises=F Damp=F
 DIIS: error= 2.33D-05 at cycle   6 NSaved=   6.
 NSaved= 6 IEnMin= 6 EnMin= -76.4408780181293     IErMin= 6 ErrMin= 2.33D-05
 ErrMax= 2.33D-05  0.00D+00 EMaxC= 1.00D-01 BMatC= 5.30D-09 BMatP= 2.43D-07
 IDIUse=1 WtCom= 1.00D+00 WtEn= 0.00D+00
 Coeff-Com:  0.237D-03 0.463D-02 0.308D-02-0.271D-02-0.233D+00 0.123D+01
 Coeff:      0.237D-03 0.463D-02 0.308D-02-0.271D-02-0.233D+00 0.123D+01
 Gap=     0.470 Goal=   None    Shift=    0.000
 RMSDP=3.43D-06 MaxDP=3.69D-05 DE=-6.63D-07 OVMax= 1.04D-04

 Initial convergence to 1.0D-05 achieved.  Increase integral accuracy.
 Cycle   7  Pass 1  IDiag  1:
 E= -76.4408846987083     Delta-E=       -0.000006680579 Rises=F Damp=F
 DIIS: error= 1.66D-05 at cycle   1 NSaved=   1.
 NSaved= 1 IEnMin= 1 EnMin= -76.4408846987083     IErMin= 1 ErrMin= 1.66D-05
 ErrMax= 1.66D-05  0.00D+00 EMaxC= 1.00D-01 BMatC= 1.11D-08 BMatP= 1.11D-08
 IDIUse=1 WtCom= 1.00D+00 WtEn= 0.00D+00
 Coeff-Com:  0.100D+01
 Coeff:      0.100D+01
 Gap=     0.470 Goal=   None    Shift=    0.000
 RMSDP=3.43D-06 MaxDP=3.69D-05 DE=-6.68D-06 OVMax= 2.20D-05

 Cycle   8  Pass 1  IDiag  1:
 E= -76.4408847044681     Delta-E=       -0.000000005760 Rises=F Damp=F
 DIIS: error= 3.09D-06 at cycle   2 NSaved=   2.
 NSaved= 2 IEnMin= 2 EnMin= -76.4408847044681     IErMin= 2 ErrMin= 3.09D-06
 ErrMax= 3.09D-06  0.00D+00 EMaxC= 1.00D-01 BMatC= 2.64D-10 BMatP= 1.11D-08
 IDIUse=1 WtCom= 1.00D+00 WtEn= 0.00D+00
 Coeff-Com: -0.353D-01 0.104D+01
 Coeff:     -0.353D-01 0.104D+01
 Gap=     0.470 Goal=   None    Shift=    0.000
 RMSDP=2.67D-07 MaxDP=4.28D-06 DE=-5.76D-09 OVMax= 9.47D-06

 Cycle   9  Pass 1  IDiag  1:
 E= -76.4408847045025     Delta-E=       -0.000000000034 Rises=F Damp=F
 DIIS: error= 2.16D-06 at cycle   3 NSaved=   3.
 NSaved= 3 IEnMin= 3 EnMin= -76.4408847045025     IErMin= 3 ErrMin= 2.16D-06
 ErrMax= 2.16D-06  0.00D+00 EMaxC= 1.00D-01 BMatC= 3.00D-10 BMatP= 2.64D-10
 IDIUse=1 WtCom= 1.00D+00 WtEn= 0.00D+00
 Coeff-Com: -0.362D-01 0.553D+00 0.483D+00
 Coeff:     -0.362D-01 0.553D+00 0.483D+00
 Gap=     0.470 Goal=   None    Shift=    0.000
 RMSDP=1.10D-07 MaxDP=2.07D-06 DE=-3.44D-11 OVMax= 3.93D-06

 Cycle  10  Pass 1  IDiag  1:
 E= -76.4408847046880     Delta-E=       -0.000000000185 Rises=F Damp=F
 DIIS: error= 2.22D-07 at cycle   4 NSaved=   4.
 NSaved= 4 IEnMin= 4 EnMin= -76.4408847046880     IErMin= 4 ErrMin= 2.22D-07
 ErrMax= 2.22D-07  0.00D+00 EMaxC= 1.00D-01 BMatC= 8.50D-13 BMatP= 2.64D-10
 IDIUse=1 WtCom= 1.00D+00 WtEn= 0.00D+00
 Coeff-Com:  0.118D-03-0.289D-01-0.173D-01 0.105D+01
 Coeff:      0.118D-03-0.289D-01-0.173D-01 0.105D+01
 Gap=     0.470 Goal=   None    Shift=    0.000
 RMSDP=2.42D-08 MaxDP=2.71D-07 DE=-1.85D-10 OVMax= 9.63D-07

 Cycle  11  Pass 1  IDiag  1:
 E= -76.4408847046904     Delta-E=       -0.000000000002 Rises=F Damp=F
 DIIS: error= 7.47D-08 at cycle   5 NSaved=   5.
 NSaved= 5 IEnMin= 5 EnMin= -76.4408847046904     IErMin= 5 ErrMin= 7.47D-08
 ErrMax= 7.47D-08  0.00D+00 EMaxC= 1.00D-01 BMatC= 7.86D-14 BMatP= 8.50D-13
 IDIUse=1 WtCom= 1.00D+00 WtEn= 0.00D+00
 Coeff-Com:  0.177D-02-0.252D-01-0.190D-01-0.867D-02 0.105D+01
 Coeff:      0.177D-02-0.252D-01-0.190D-01-0.867D-02 0.105D+01
 Gap=     0.470 Goal=   None    Shift=    0.000
 RMSDP=8.14D-09 MaxDP=9.57D-08 DE=-2.44D-12 OVMax= 3.57D-07

 SCF Done:  E(RwB97XD) =  -76.4408847047     A.U. after   11 cycles
            NFock= 11  Conv=0.81D-08     -V/T= 2.0040
 KE= 7.613772150237D+01 PE=-1.992219451928D+02 EE= 3.745422507159D+01
 Leave Link  502 at Sun Feb 27 06:37:05 2022, MaxMem=  8589934592 cpu:               8.0 elap:               1.2
 (Enter /home/rr/g16/l801.exe)
 DoSCS=F DFT=T ScalE2(SS,OS)=  1.000000  1.000000
 ExpMin= 5.11D-02 ExpMax= 2.70D+04 ExpMxC= 9.22D+02 IAcc=3 IRadAn=         5 AccDes= 0.00D+00
 HarFok:  IExCor=  205 AccDes= 0.00D+00 IRadAn=         5 IDoV=-2 UseB2=F ITyADJ=14
 ICtDFT= 12500011 ScaDFX=  1.000000  1.000000  1.000000  1.000000
 Largest valence mixing into a core orbital is  3.86D-05
 Largest core mixing into a valence orbital is  6.21D-06
 Range of M.O.s used for correlation:     2    58
 NBasis=    58 NAE=     5 NBE=     5 NFC=     1 NFV=     0
 NROrb=     57 NOA=     4 NOB=     4 NVA=    53 NVB=    53

 **** Warning!!: The largest alpha MO coefficient is  0.10588797D+02

 Leave Link  801 at Sun Feb 27 06:37:06 2022, MaxMem=  8589934592 cpu:               2.2 elap:               0.6
 (Enter /home/rr/g16/l914.exe)
 RHF ground state
 Keep R1, R2, and R3 ints in memory in symmetry-blocked form, NReq=91664136.
 FoFCou: FMM=F IPFlag=           0 FMFlag=           0 FMFlg1=           0
         NFxFlg=           0 DoJE=F BraDBF=F KetDBF=F FulRan=T
         wScrn=  0.000000 ICntrl=       600 IOpCl=  0 I1Cent=           0 NGrid=           0
         NMat0=    1 NMatS0=   1711 NMatT0=    0 NMatD0=    1 NMtDS0=    0 NMtDT0=    0
 Petite list used in FoFCou.
 MDV=  8589934592 DFT=T DoStab=F Mixed=T DoRPA=T DoScal=F NonHer=T
 Making orbital integer symmetry assigments:
 Orbital symmetries:
       Occupied  (A1) (A1) (B2) (A1) (B1)
       Virtual   (A1) (B2) (B1) (A1) (B2) (A1) (A2) (A1) (B1) (A1)
                 (B2) (B2) (B2) (A1) (B1) (A1) (A2) (A1) (B1) (A1)
                 (B2) (B2) (A1) (A2) (A1) (B1) (B2) (A1) (B2) (B1)
                 (A2) (A1) (A1) (B2) (A1) (B2) (B1) (A1) (A1) (B2)
                 (B1) (A1) (B1) (A2) (B2) (B2) (A1) (B1) (A2) (A1)
                 (A1) (B2) (A1)
   212 initial guesses have been made.
 Convergence on wavefunction:    0.001000000000000
 Davidson Disk Diagonalization:  ConvIn= 1.00D-03 SkipCon=T Conv= 1.00D-03.
 Max sub-space:  1272 roots to seek:   424 dimension of matrix:          424
 *** WARNING: Number of orthogonal guesses is          212
 Iteration     1 Dimension   212 NMult     0 NNew    212
 CISAX will form   212 AO SS matrices at one time.
 NMat=   212 NSing=   212 JSym2X=-1.
 New state      3 was old state      5
 New state      5 was old state      3
 New state     13 was old state     14
 New state     14 was old state     13
 New state     17 was old state     18
 New state     18 was old state     20
 New state     19 was old state     17
 New state     20 was old state     19
 New state     21 was old state     24
 New state     23 was old state     21
 New state     24 was old state     23
 New state     31 was old state     33
 New state     32 was old state     31
 New state     33 was old state     32
 New state     35 was old state     36
 New state     36 was old state     35
 New state     37 was old state     40
 New state     38 was old state     37
 New state     40 was old state     41
 New state     41 was old state     44
 New state     42 was old state     38
 New state     43 was old state     42
 New state     44 was old state     43
 New state     47 was old state     49
 New state     49 was old state     47
 New state     51 was old state     53
 New state     52 was old state     54
 New state     53 was old state     51
 New state     54 was old state     56
 New state     56 was old state     52
 New state     58 was old state     60
 New state     59 was old state     63
 New state     60 was old state     58
 New state     62 was old state     59
 New state     63 was old state     62
 New state     64 was old state     67
 New state     65 was old state     64
 New state     67 was old state     70
 New state     68 was old state     65
 New state     69 was old state     71
 New state     70 was old state     68
 New state     71 was old state     69
 New state     72 was old state     74
 New state     74 was old state     76
 New state     75 was old state     72
 New state     76 was old state     77
 New state     77 was old state     75
 New state     78 was old state     79
 New state     79 was old state     78
 New state     80 was old state     82
 New state     82 was old state     80
 New state     83 was old state     84
 New state     84 was old state     83
 New state     92 was old state     93
 New state     93 was old state     92
 New state     94 was old state     95
 New state     95 was old state     94
 New state     96 was old state     97
 New state     97 was old state     96
 New state     98 was old state     99
 New state     99 was old state    100
 New state    100 was old state     98
 New state    101 was old state    102
 New state    102 was old state    104
 New state    103 was old state    105
 New state    104 was old state    106
 New state    105 was old state    103
 New state    106 was old state    101
 New state    112 was old state    113
 New state    113 was old state    112
 New state    114 was old state    115
 New state    115 was old state    114
 New state    117 was old state    119
 New state    118 was old state    117
 New state    119 was old state    118
 New state    130 was old state    131
 New state    131 was old state    130
 New state    134 was old state    136
 New state    135 was old state    134
 New state    136 was old state    138
 New state    137 was old state    139
 New state    138 was old state    137
 New state    139 was old state    135
 New state    142 was old state    143
 New state    143 was old state    142
 New state    145 was old state    146
 New state    146 was old state    145
 New state    150 was old state    151
 New state    151 was old state    150
 New state    153 was old state    154
 New state    154 was old state    153
 New state    187 was old state    188
 New state    188 was old state    187
 New state    189 was old state    191
 New state    190 was old state    189
 New state    191 was old state    190
 New state    192 was old state    193
 New state    193 was old state    192
 New state    194 was old state    195
 New state    195 was old state    194
 New state    199 was old state    200
 New state    200 was old state    199
 Excitation Energies [eV] at current iteration:
 Root      1 :     7.552237566267279
 Root      2 :     9.151490457082099
 Root      3 :     9.666948809198205
 Root      4 :    10.066361451268490
 Root      5 :    10.325994487072310
 Root      6 :    11.286628890395370
 Root      7 :    11.449639459573930
 Root      8 :    12.042774495788290
 Root      9 :    12.271360598397430
 Root     10 :    12.277024264144180
 Root     11 :    13.075865773862950
 Root     12 :    13.210036577996420
 Root     13 :    13.539208707390760
 Root     14 :    13.813642948837900
 Root     15 :    13.869917782089010
 Root     16 :    14.339141068722790
 Root     17 :    14.807539888245800
 Root     18 :    15.099235311328250
 Root     19 :    15.198131461272420
 Root     20 :    15.202723742442390
 Root     21 :    15.966999432008180
 Root     22 :    16.015966021035230
 Root     23 :    16.063049841266770
 Root     24 :    16.156616927162420
 Root     25 :    16.473995829790850
 Root     26 :    16.935064581573400
 Root     27 :    17.249968533375010
 Root     28 :    17.964384174343920
 Root     29 :    18.229264190668590
 Root     30 :    18.780071098896650
 Root     31 :    18.814870782213210
 Root     32 :    18.943005208897740
 Root     33 :    19.170367027938650
 Root     34 :    19.226731780089740
 Root     35 :    19.707042076109690
 Root     36 :    19.746890027621210
 Root     37 :    20.752006645226520
 Root     38 :    20.830048259488270
 Root     39 :    20.948064110203750
 Root     40 :    20.949671334740970
 Root     41 :    21.552981819253950
 Root     42 :    21.633734802920030
 Root     43 :    21.642151524579030
 Root     44 :    22.635060638546270
 Root     45 :    22.929628420621870
 Root     46 :    23.234884413805680
 Root     47 :    24.742835566374220
 Root     48 :    25.081398440725170
 Root     49 :    25.311218848471580
 Root     50 :    25.668235001734090
 Root     51 :    25.833037318448850
 Root     52 :    26.056704195825670
 Root     53 :    26.239186571718800
 Root     54 :    26.812481392528630
 Root     55 :    27.306884637197460
 Root     56 :    27.345326074814870
 Root     57 :    27.425634628957240
 Root     58 :    27.923572186403720
 Root     59 :    28.467199592353770
 Root     60 :    28.858204588586460
 Root     61 :    29.445181814748140
 Root     62 :    29.553728254750320
 Root     63 :    30.379847974886580
 Root     64 :    30.710354851961260
 Root     65 :    30.988095334604400
 Root     66 :    31.305381971853540
 Root     67 :    31.611250668767050
 Root     68 :    31.728886054192740
 Root     69 :    31.934676918473560
 Root     70 :    32.481487802645770
 Root     71 :    32.719495960601020
 Root     72 :    32.918864638252440
 Root     73 :    33.197185287086330
 Root     74 :    33.403955493471440
 Root     75 :    33.454303245051410
 Root     76 :    34.775907631915700
 Root     77 :    35.039533424851290
 Root     78 :    35.334558227136700
 Root     79 :    35.927306129283320
 Root     80 :    38.372748662325880
 Root     81 :    38.499207268193740
 Root     82 :    38.838566532421370
 Root     83 :    39.158724250187870
 Root     84 :    39.225103991785190
 Root     85 :    40.452120815753160
 Root     86 :    40.776626335367180
 Root     87 :    44.675994254008960
 Root     88 :    45.268686573120970
 Root     89 :    45.708242252170560
 Root     90 :    45.883897702749170
 Root     91 :    47.786910410336260
 Root     92 :    49.053086836257090
 Root     93 :    49.123436250250770
 Root     94 :    49.800905118801500
 Root     95 :    50.546785580552200
 Root     96 :    51.824763133850600
 Root     97 :    52.622480208603090
 Root     98 :    52.708876800736370
 Root     99 :    53.141726374941060
 Root    100 :    53.502206661299240
 Root    101 :    55.034413861140190
 Root    102 :    55.494581607919590
 Root    103 :    55.749596265387730
 Root    104 :    56.154816739561680
 Root    105 :    56.715950646891000
 Root    106 :    56.980411454807960
 Root    107 :    58.390966092409630
 Root    108 :    60.229356375368490
 Root    109 :    60.343834680332600
 Root    110 :    62.356262695815230
 Root    111 :    63.831848922812990
 Root    112 :    65.301726330546220
 Root    113 :    65.659915040640750
 Root    114 :    66.665527126568780
 Root    115 :    67.054995333923810
 Root    116 :    68.231677039771170
 Root    117 :    68.712441590483980
 Root    118 :    69.245708709255480
 Root    119 :    69.317594416007010
 Root    120 :    70.647377637066750
 Root    121 :    71.125492207916220
 Root    122 :    73.046312913228140
 Root    123 :    73.505666340641100
 Root    124 :    73.709854572288550
 Root    125 :    74.202716648007300
 Root    126 :    75.057273034734110
 Root    127 :    75.321276830956170
 Root    128 :    76.454620005504110
 Root    129 :    77.306649795317280
 Root    130 :    80.034380273777290
 Root    131 :    80.490072147391420
 Root    132 :    80.826855822347480
 Root    133 :    81.573170188875550
 Root    134 :    81.689471575883730
 Root    135 :    82.259078112805000
 Root    136 :    83.449777770223760
 Root    137 :    83.798753482754410
 Root    138 :    84.064045801794880
 Root    139 :    84.947915669139520
 Root    140 :    85.981462853897100
 Root    141 :    87.313038333826440
 Root    142 :    87.798864473212130
 Root    143 :    89.644166933171900
 Root    144 :    89.644847552460310
 Root    145 :    93.496017477338630
 Root    146 :    94.235866250437170
 Root    147 :    94.437485018774180
 Root    148 :    95.854725726320130
 Root    149 :    99.900814689577590
 Root    150 :   101.076062540625200
 Root    151 :   101.210260476017500
 Root    152 :   108.078663139519600
 Root    153 :   109.913986960376100
 Root    154 :   110.823914512567800
 Root    155 :   113.856849129892300
 Root    156 :   114.438643504487100
 Root    157 :   116.358138938927100
 Root    158 :   120.585662911149600
 Root    159 :   127.860688373822100
 Root    160 :   133.484632259624700
 Root    161 :   143.655787563090900
 Root    162 :   145.431289916435000
 Root    163 :   148.070661926528500
 Root    164 :   149.758654382755700
 Root    165 :   149.799390924209900
 Root    166 :   152.734416128311500
 Root    167 :   153.453708978712200
 Root    168 :   153.728533282110400
 Root    169 :   154.276190891914100
 Root    170 :   154.381999922555600
 Root    171 :   155.610287430096000
 Root    172 :   156.561789327261500
 Root    173 :   158.659043560318100
 Root    174 :   159.983564673747000
 Root    175 :   161.064044610020700
 Root    176 :   162.984543571940900
 Root    177 :   166.784380365413000
 Root    178 :   170.204231546592400
 Root    179 :   171.567456476237600
 Root    180 :   172.722437101683600
 Root    181 :   172.973306051313300
 Root    182 :   173.849371371977800
 Root    183 :   176.602814870610400
 Root    184 :   177.133973811023400
 Root    185 :   178.169537725979900
 Root    186 :   180.563117110085100
 Root    187 :   181.292393732250700
 Root    188 :   181.493162929101300
 Root    189 :   183.674203759539400
 Root    190 :   183.703030288183900
 Root    191 :   184.159991062758900
 Root    192 :   186.014415439482600
 Root    193 :   186.490908040883500
 Root    194 :   188.462219855926800
 Root    195 :   189.238180841779100
 Root    196 :   190.264039022201000
 Root    197 :   194.831625451877700
 Root    198 :   195.890612749632600
 Root    199 :   196.377949448539000
 Root    200 :   196.688181544373200
 Root    201 :   199.076158916639700
 Root    202 :   199.590589250840100
 Root    203 :   201.105091971008500
 Root    204 :   201.220031415777100
 Root    205 :   201.460126476465100
 Root    206 :   203.268225464300800
 Root    207 :   213.782085943861600
 Root    208 :   215.875805401571400
 Root    209 :  1191.228116989783000
 Root    210 :  1193.846178926877000
 Root    211 :  1197.947244022390000
 Root    212 :  1212.972584105191000
 Convergence achieved for final wavefunctions.
 ***********************************************************************
 Excited states from <AA,BB:AA,BB> singles matrix:
 ***********************************************************************
 
 1PDM for each excited state written to RWF  633
 Ground to excited state transition densities written to RWF  633
 Ground to excited state transition electric dipole moments (Au):
       state          X           Y           Z        Dip. S.      Osc.
         1        -0.5412      0.0000      0.0000      0.2929      0.0542
         2         0.0000      0.0000      0.0000      0.0000      0.0000
         3         0.0000     -0.0000     -0.6215      0.3862      0.0915
         4        -0.1705     -0.0000      0.0000      0.0291      0.0072
         5        -0.0000      0.0000      0.2130      0.0453      0.0115
         6         0.0000     -0.2166     -0.0000      0.0469      0.0130
         7        -0.0000      0.0000     -0.0000      0.0000      0.0000
         8        -0.1138     -0.0000     -0.0000      0.0129      0.0038
         9         0.0000     -0.0000     -0.2364      0.0559      0.0168
        10        -0.3196      0.0000      0.0000      0.1021      0.0307
        11        -0.0000     -0.3888     -0.0000      0.1512      0.0484
        12        -0.3016     -0.0000      0.0000      0.0909      0.0294
        13        -0.0000     -0.4618     -0.0000      0.2133      0.0707
        14         0.0000     -0.8482      0.0000      0.7195      0.2435
        15         0.0000     -0.0000     -0.3959      0.1568      0.0533
        16        -0.0000      0.0000     -0.2316      0.0536      0.0188
        17         0.6076     -0.0000     -0.0000      0.3691      0.1339
        18         0.0000     -0.0000      0.0000      0.0000      0.0000
        19        -0.0000     -0.0000      0.1038      0.0108      0.0040
        20         0.0000      0.0000      0.0000      0.0000      0.0000
        21        -0.4680     -0.0000     -0.0000      0.2190      0.0857
        22         0.0000     -0.0000      0.0000      0.0000      0.0000
        23        -0.0000     -0.0000     -0.4490      0.2016      0.0793
        24         0.0000     -0.2811      0.0000      0.0790      0.0313
        25         0.0000     -0.0000      0.0000      0.0000      0.0000
        26        -0.0000     -0.0000      0.0577      0.0033      0.0014
        27         0.0000     -0.0167     -0.0000      0.0003      0.0001
        28        -0.0000     -0.0000     -0.7028      0.4940      0.2174
        29         0.0000      0.4521      0.0000      0.2044      0.0913
        30        -0.0000      0.3908     -0.0000      0.1527      0.0703
        31         0.0000     -0.0000     -0.0000      0.0000      0.0000
        32         0.0168     -0.0000      0.0000      0.0003      0.0001
        33         0.0000      0.1280     -0.0000      0.0164      0.0077
        34         0.6899     -0.0000     -0.0000      0.4760      0.2242
        35         0.0000      0.0000      0.3536      0.1250      0.0604
        36        -0.0000     -0.0000     -0.0000      0.0000      0.0000
        37         0.1935     -0.0000     -0.0000      0.0374      0.0190
        38         0.0000      0.1413      0.0000      0.0200      0.0102
        39         0.0000     -0.2675      0.0000      0.0716      0.0367
        40         0.0000      0.0000     -0.4226      0.1786      0.0917
        41         0.6220     -0.0000      0.0000      0.3869      0.2043
        42         0.0000     -0.0000     -0.0764      0.0058      0.0031
        43        -0.0000     -0.8055      0.0000      0.6489      0.3440
        44        -0.0000     -0.0000      0.1175      0.0138      0.0077
        45         0.0000     -0.0000      0.6848      0.4690      0.2635
        46         0.0000     -0.0000      0.0000      0.0000      0.0000
        47        -0.0053     -0.0000      0.0000      0.0000      0.0000
        48         0.0000     -0.3369     -0.0000      0.1135      0.0698
        49        -0.0000     -0.0000     -0.5111      0.2612      0.1620
        50         0.0000      0.0000      0.0000      0.0000      0.0000
        51         0.1595      0.0000      0.0000      0.0254      0.0161
        52         0.0000      0.0000      0.0000      0.0000      0.0000
        53        -0.0000     -0.0000      0.1818      0.0330      0.0212
        54        -0.0000     -0.0000     -0.2515      0.0632      0.0415
        55        -0.0000     -0.5807     -0.0000      0.3372      0.2256
        56         0.0000      0.0000      0.0511      0.0026      0.0017
        57        -0.4567      0.0000      0.0000      0.2086      0.1401
        58         0.2943      0.0000      0.0000      0.0866      0.0593
        59        -0.0000     -0.2619     -0.0000      0.0686      0.0478
        60         0.0000     -0.1612     -0.0000      0.0260      0.0184
        61         0.0000     -0.0000     -0.0683      0.0047      0.0034
        62         0.0487     -0.0000      0.0000      0.0024      0.0017
        63        -0.0000      0.0000     -0.1329      0.0177      0.0132
        64         0.0000      0.0000     -0.0000      0.0000      0.0000
        65         0.0000      0.0150     -0.0000      0.0002      0.0002
        66        -0.0000     -0.3886      0.0000      0.1510      0.1158
        67        -0.0000     -0.0000     -0.0000      0.0000      0.0000
        68        -0.0000     -0.0000      0.0456      0.0021      0.0016
        69         0.0000      0.0108     -0.0000      0.0001      0.0001
        70         0.0000     -0.0000      0.0000      0.0000      0.0000
        71        -0.0000      0.0000     -0.0299      0.0009      0.0007
        72         0.0000      0.2884      0.0000      0.0832      0.0671
        73        -0.1134      0.0000      0.0000      0.0128      0.0105
        74        -0.4100      0.0000     -0.0000      0.1681      0.1376
        75        -0.0000      0.0000     -0.2798      0.0783      0.0642
        76        -0.0000     -0.1419      0.0000      0.0201      0.0172
        77         0.0000     -0.0000     -0.3035      0.0921      0.0791
        78         0.0000     -0.0000      0.0242      0.0006      0.0005
        79         0.0000     -0.0746      0.0000      0.0056      0.0049
        80        -0.0000     -0.0000      0.0101      0.0001      0.0001
        81        -0.0000      0.0581      0.0000      0.0034      0.0032
        82         0.0000      0.0000      0.0021      0.0000      0.0000
        83         0.0000     -0.0752      0.0000      0.0057      0.0054
        84         0.0111     -0.0000     -0.0000      0.0001      0.0001
        85        -0.0000     -0.0000     -0.0690      0.0048      0.0047
        86        -0.0000      0.0000     -0.0000      0.0000      0.0000
        87         0.0000      0.0000      0.0323      0.0010      0.0011
        88        -0.2691     -0.0000     -0.0000      0.0724      0.0803
        89        -0.0000      0.0000      0.2974      0.0884      0.0990
        90        -0.0000      0.1668      0.0000      0.0278      0.0313
        91         0.0000      0.3841     -0.0000      0.1475      0.1727
        92        -0.0352     -0.0000      0.0000      0.0012      0.0015
        93         0.0000      0.0000     -0.0000      0.0000      0.0000
        94        -0.0000     -0.0000     -0.1630      0.0266      0.0324
        95         0.0000      0.1778      0.0000      0.0316      0.0391
        96        -0.1595      0.0000     -0.0000      0.0255      0.0323
        97         0.0000     -0.0000      0.4618      0.2133      0.2749
        98         0.0000      0.0000      0.0000      0.0000      0.0000
        99         0.1435      0.0000      0.0000      0.0206      0.0268
       100        -0.0000      0.0000      0.2274      0.0517      0.0678
       101        -0.0000      0.0721      0.0000      0.0052      0.0070
       102         0.0000     -0.0000      0.0000      0.0000      0.0000
       103         0.0000     -0.0000     -0.2220      0.0493      0.0673
       104         0.0000      0.0000      0.0000      0.0000      0.0000
       105         0.0000     -0.3210      0.0000      0.1030      0.1432
       106         0.7410      0.0000     -0.0000      0.5491      0.7665
       107        -0.0000      0.1007     -0.0000      0.0101      0.0145
       108         0.0000      0.0000     -0.3587      0.1287      0.1899
       109        -0.0000     -0.2887      0.0000      0.0833      0.1232
       110        -0.0000      0.0000      0.0140      0.0002      0.0003
       111         0.0000     -0.0000     -0.3213      0.1032      0.1614
       112        -0.2114     -0.0000      0.0000      0.0447      0.0715
       113         0.0000     -0.3325      0.0000      0.1106      0.1778
       114        -0.0000      0.0000      0.0000      0.0000      0.0000
       115         0.0000      0.0000     -0.0000      0.0000      0.0000
       116        -0.2133     -0.0000     -0.0000      0.0455      0.0760
       117        -0.0000      0.0000     -0.0000      0.0000      0.0000
       118        -0.0000     -0.0000     -0.1360      0.0185      0.0314
       119         0.1147     -0.0000     -0.0000      0.0132      0.0223
       120        -0.0000     -0.0000      0.1609      0.0259      0.0448
       121        -0.2422      0.0000      0.0000      0.0586      0.1022
       122        -0.0000      0.0388      0.0000      0.0015      0.0027
       123        -0.0000      0.0000      0.0016      0.0000      0.0000
       124        -0.0000      0.0330     -0.0000      0.0011      0.0020
       125         0.1115     -0.0000     -0.0000      0.0124      0.0226
       126        -0.0000     -0.0000      0.0000      0.0000      0.0000
       127        -0.0000     -0.0565     -0.0000      0.0032      0.0059
       128         0.0000     -0.0000      0.1317      0.0173      0.0325
       129         0.0000      0.1680      0.0000      0.0282      0.0534
       130        -0.0113      0.0000     -0.0000      0.0001      0.0003
       131        -0.0000     -0.1238     -0.0000      0.0153      0.0302
       132        -0.0000      0.0000      0.0946      0.0089      0.0177
       133         0.0000      0.0000     -0.0000      0.0000      0.0000
       134        -0.0000     -0.0000     -0.1081      0.0117      0.0234
       135        -0.0896     -0.0000     -0.0000      0.0080      0.0162
       136         0.0000      0.1408     -0.0000      0.0198      0.0405
       137        -0.0728      0.0000     -0.0000      0.0053      0.0109
       138        -0.0000     -0.0000      0.0000      0.0000      0.0000
       139        -0.0000     -0.0000     -0.0221      0.0005      0.0010
       140         0.0000     -0.0206      0.0000      0.0004      0.0009
       141        -0.0000      0.0000      0.1058      0.0112      0.0239
       142        -0.0000      0.0000      0.0000      0.0000      0.0000
       143         0.0000     -0.0000     -0.0072      0.0001      0.0001
       144         0.1221     -0.0000      0.0000      0.0149      0.0327
       145         0.0000      0.0000     -0.0372      0.0014      0.0032
       146         0.0000      0.0000      0.0953      0.0091      0.0210
       147         0.0000      0.0798     -0.0000      0.0064      0.0147
       148         0.0000      0.0631     -0.0000      0.0040      0.0094
       149         0.0000      0.0000     -0.1701      0.0289      0.0708
       150        -0.2255     -0.0000      0.0000      0.0509      0.1260
       151        -0.0000      0.1575     -0.0000      0.0248      0.0615
       152        -0.0240      0.0000      0.0000      0.0006      0.0015
       153        -0.0000      0.0000     -0.0496      0.0025      0.0066
       154        -0.0000     -0.0000      0.0455      0.0021      0.0056
       155         0.0000     -0.0351      0.0000      0.0012      0.0034
       156        -0.0000     -0.0000      0.0000      0.0000      0.0000
       157         0.0000     -0.0090     -0.0000      0.0001      0.0002
       158        -0.0000      0.0000      0.0185      0.0003      0.0010
       159        -0.0000      0.0000      0.0643      0.0041      0.0130
       160        -0.0000     -0.0807      0.0000      0.0065      0.0213
       161        -0.0000     -0.0000      0.0184      0.0003      0.0012
       162         0.0083     -0.0000      0.0000      0.0001      0.0002
       163        -0.0241      0.0000     -0.0000      0.0006      0.0021
       164         0.0000      0.0000      0.0234      0.0005      0.0020
       165         0.0000     -0.0000      0.0000      0.0000      0.0000
       166         0.0000     -0.0000     -0.0172      0.0003      0.0011
       167        -0.0000     -0.0136      0.0000      0.0002      0.0007
       168        -0.0000      0.0100     -0.0000      0.0001      0.0004
       169        -0.0132     -0.0000      0.0000      0.0002      0.0007
       170        -0.0000     -0.0000     -0.0000      0.0000      0.0000
       171        -0.0000      0.0000      0.0000      0.0000      0.0000
       172         0.0000      0.0045     -0.0000      0.0000      0.0001
       173        -0.0000      0.0000     -0.0000      0.0000      0.0000
       174         0.0224      0.0000     -0.0000      0.0005      0.0020
       175        -0.0000     -0.0000      0.0125      0.0002      0.0006
       176        -0.0032     -0.0000      0.0000      0.0000      0.0000
       177         0.0000      0.0000     -0.0120      0.0001      0.0006
       178         0.0000      0.0000     -0.0000      0.0000      0.0000
       179         0.0133      0.0000     -0.0000      0.0002      0.0007
       180        -0.0000      0.0476     -0.0000      0.0023      0.0096
       181         0.0000      0.0000      0.0000      0.0000      0.0000
       182        -0.0000      0.0132      0.0000      0.0002      0.0007
       183         0.0000     -0.0000      0.0338      0.0011      0.0050
       184         0.0730      0.0000     -0.0000      0.0053      0.0231
       185         0.0000      0.0000      0.0092      0.0001      0.0004
       186        -0.0000     -0.0000     -0.0628      0.0039      0.0174
       187        -0.0049     -0.0000     -0.0000      0.0000      0.0001
       188         0.0000     -0.0302      0.0000      0.0009      0.0041
       189         0.0000     -0.0000     -0.0000      0.0000      0.0000
       190        -0.0894     -0.0000      0.0000      0.0080      0.0360
       191         0.0000     -0.1013      0.0000      0.0103      0.0463
       192         0.0000      0.0000      0.0000      0.0000      0.0000
       193         0.0000      0.0000     -0.1450      0.0210      0.0961
       194         0.0000      0.0620     -0.0000      0.0038      0.0178
       195        -0.1134     -0.0000      0.0000      0.0129      0.0596
       196         0.0000     -0.0573     -0.0000      0.0033      0.0153
       197        -0.0759      0.0000      0.0000      0.0058      0.0275
       198         0.0000     -0.0000      0.0112      0.0001      0.0006
       199        -0.0000     -0.0000      0.0000      0.0000      0.0000
       200         0.0000      0.0000     -0.0061      0.0000      0.0002
       201         0.0000     -0.0598      0.0000      0.0036      0.0174
       202         0.0188      0.0000     -0.0000      0.0004      0.0017
       203         0.0000      0.0919     -0.0000      0.0084      0.0416
       204        -0.0000      0.0000      0.0000      0.0000      0.0000
       205         0.0000     -0.0000      0.0129      0.0002      0.0008
       206        -0.0000     -0.0000     -0.0753      0.0057      0.0282
       207        -0.0000      0.0000      0.0157      0.0002      0.0013
       208        -0.0000     -0.0069     -0.0000      0.0000      0.0003
       209         0.0129     -0.0000     -0.0000      0.0002      0.0048
       210         0.0000     -0.0000      0.0126      0.0002      0.0046
       211         0.0000      0.0116      0.0000      0.0001      0.0039
       212         0.0000      0.0000      0.0000      0.0000      0.0000
 Ground to excited state transition velocity dipole moments (Au):
       state          X           Y           Z        Dip. S.      Osc.
         1         0.1522     -0.0000     -0.0000      0.0232      0.0556
         2        -0.0000     -0.0000     -0.0000      0.0000      0.0000
         3         0.0000      0.0000      0.2229      0.0497      0.0933
         4         0.0661      0.0000      0.0000      0.0044      0.0079
         5         0.0000      0.0000     -0.0807      0.0065      0.0114
         6        -0.0000      0.0897     -0.0000      0.0080      0.0129
         7         0.0000     -0.0000      0.0000      0.0000      0.0000
         8         0.0493      0.0000      0.0000      0.0024      0.0037
         9        -0.0000      0.0000      0.1040      0.0108      0.0160
        10         0.1360     -0.0000     -0.0000      0.0185      0.0273
        11         0.0000      0.1891      0.0000      0.0358      0.0496
        12         0.1408      0.0000     -0.0000      0.0198      0.0272
        13         0.0000      0.2304      0.0000      0.0531      0.0711
        14        -0.0000      0.4287     -0.0000      0.1838      0.2414
        15        -0.0000      0.0000      0.1990      0.0396      0.0518
        16         0.0000     -0.0000      0.1204      0.0145      0.0184
        17        -0.3208      0.0000      0.0000      0.1029      0.1261
        18        -0.0000     -0.0000     -0.0000      0.0000      0.0000
        19        -0.0000      0.0000     -0.0580      0.0034      0.0040
        20        -0.0000     -0.0000     -0.0000      0.0000      0.0000
        21         0.2666      0.0000      0.0000      0.0711      0.0807
        22        -0.0000      0.0000     -0.0000      0.0000      0.0000
        23         0.0000      0.0000      0.2649      0.0702      0.0792
        24        -0.0000      0.1683     -0.0000      0.0283      0.0318
        25        -0.0000     -0.0000     -0.0000      0.0000      0.0000
        26         0.0000     -0.0000     -0.0369      0.0014      0.0015
        27         0.0000      0.0077      0.0000      0.0001      0.0001
        28         0.0000      0.0000      0.4610      0.2125      0.2146
        29        -0.0000     -0.2993     -0.0000      0.0896      0.0891
        30         0.0000     -0.2688      0.0000      0.0723      0.0698
        31        -0.0000      0.0000      0.0000      0.0000      0.0000
        32        -0.0035      0.0000     -0.0000      0.0000      0.0000
        33        -0.0000     -0.0927      0.0000      0.0086      0.0081
        34        -0.4809      0.0000      0.0000      0.2313      0.2182
        35        -0.0000      0.0000     -0.2613      0.0683      0.0629
        36         0.0000      0.0000      0.0000      0.0000      0.0000
        37        -0.1523      0.0000      0.0000      0.0232      0.0203
        38        -0.0000     -0.1188     -0.0000      0.0141      0.0123
        39        -0.0000      0.1984     -0.0000      0.0394      0.0341
        40        -0.0000      0.0000      0.3352      0.1123      0.0973
        41        -0.4884      0.0000     -0.0000      0.2385      0.2008
        42        -0.0000     -0.0000      0.0658      0.0043      0.0036
        43         0.0000      0.6515     -0.0000      0.4244      0.3557
        44         0.0000      0.0000     -0.0977      0.0095      0.0076
        45        -0.0000      0.0000     -0.5967      0.3560      0.2817
        46        -0.0000      0.0000     -0.0000      0.0000      0.0000
        47        -0.0013      0.0000     -0.0000      0.0000      0.0000
        48        -0.0000      0.3118      0.0000      0.0972      0.0703
        49         0.0000     -0.0000      0.4720      0.2228      0.1597
        50        -0.0000     -0.0000     -0.0000      0.0000      0.0000
        51        -0.1512      0.0000     -0.0000      0.0228      0.0160
        52        -0.0000     -0.0000     -0.0000      0.0000      0.0000
        53         0.0000     -0.0000     -0.1809      0.0327      0.0226
        54         0.0000      0.0000      0.2534      0.0642      0.0435
        55         0.0000      0.5894     -0.0000      0.3473      0.2308
        56        -0.0000     -0.0000     -0.0466      0.0022      0.0014
        57         0.4630     -0.0000     -0.0000      0.2143      0.1418
        58        -0.3139     -0.0000     -0.0000      0.0985      0.0640
        59         0.0000      0.2773     -0.0000      0.0769      0.0490
        60        -0.0000      0.1753     -0.0000      0.0307      0.0193
        61        -0.0000      0.0000      0.0785      0.0062      0.0038
        62        -0.0542      0.0000     -0.0000      0.0029      0.0018
        63         0.0000      0.0000      0.1575      0.0248      0.0148
        64        -0.0000     -0.0000      0.0000      0.0000      0.0000
        65         0.0000     -0.0124      0.0000      0.0002      0.0001
        66         0.0000      0.4391     -0.0000      0.1928      0.1117
        67         0.0000      0.0000     -0.0000      0.0000      0.0000
        68         0.0000      0.0000     -0.0525      0.0028      0.0016
        69        -0.0000     -0.0173      0.0000      0.0003      0.0002
        70        -0.0000      0.0000      0.0000      0.0000      0.0000
        71         0.0000     -0.0000      0.0366      0.0013      0.0007
        72        -0.0000     -0.3550     -0.0000      0.1261      0.0695
        73         0.1443     -0.0000     -0.0000      0.0208      0.0114
        74         0.5121     -0.0000      0.0000      0.2622      0.1424
        75         0.0000     -0.0000      0.3448      0.1189      0.0645
        76         0.0000      0.1811     -0.0000      0.0328      0.0171
        77        -0.0000      0.0000      0.3919      0.1536      0.0795
        78        -0.0000      0.0000     -0.0412      0.0017      0.0009
        79        -0.0000      0.0987     -0.0000      0.0097      0.0049
        80         0.0000     -0.0000     -0.0194      0.0004      0.0002
        81         0.0000     -0.0831      0.0000      0.0069      0.0033
        82         0.0000     -0.0000     -0.0009      0.0000      0.0000
        83        -0.0000      0.1043     -0.0000      0.0109      0.0050
        84        -0.0095      0.0000      0.0000      0.0001      0.0000
        85         0.0000      0.0000      0.1078      0.0116      0.0052
        86         0.0000     -0.0000      0.0000      0.0000      0.0000
        87        -0.0000      0.0000     -0.0588      0.0035      0.0014
        88         0.4265      0.0000      0.0000      0.1819      0.0729
        89        -0.0000     -0.0000     -0.4802      0.2306      0.0915
        90         0.0000     -0.2713      0.0000      0.0736      0.0291
        91         0.0000     -0.6269      0.0000      0.3930      0.1492
        92         0.0569      0.0000     -0.0000      0.0032      0.0012
        93        -0.0000     -0.0000      0.0000      0.0000      0.0000
        94        -0.0000      0.0000      0.2909      0.0846      0.0308
        95        -0.0000     -0.3183      0.0000      0.1013      0.0364
        96         0.2799     -0.0000      0.0000      0.0783      0.0274
        97         0.0000     -0.0000     -0.8297      0.6884      0.2373
        98        -0.0000     -0.0000     -0.0000      0.0000      0.0000
        99        -0.2400      0.0000     -0.0000      0.0576      0.0197
       100         0.0000     -0.0000     -0.4321      0.1867      0.0633
       101         0.0000     -0.1281     -0.0000      0.0164      0.0054
       102        -0.0000      0.0000     -0.0000      0.0000      0.0000
       103         0.0000      0.0000      0.4283      0.1835      0.0597
       104        -0.0000     -0.0000     -0.0000      0.0000      0.0000
       105        -0.0000      0.6320     -0.0000      0.3995      0.1278
       106        -1.4512     -0.0000      0.0000      2.1060      0.6705
       107         0.0000     -0.2145      0.0000      0.0460      0.0143
       108        -0.0000     -0.0000      0.7574      0.5737      0.1728
       109         0.0000      0.6315     -0.0000      0.3988      0.1199
       110         0.0000      0.0000     -0.0597      0.0036      0.0010
       111         0.0000      0.0000      0.7303      0.5333      0.1516
       112         0.5097      0.0000     -0.0000      0.2598      0.0722
       113        -0.0000      0.8022      0.0000      0.6436      0.1778
       114         0.0000      0.0000     -0.0000      0.0000      0.0000
       115        -0.0000      0.0000      0.0000      0.0000      0.0000
       116         0.5208     -0.0000     -0.0000      0.2712      0.0721
       117         0.0000     -0.0000      0.0000      0.0000      0.0000
       118         0.0000      0.0000      0.3257      0.1061      0.0278
       119        -0.2681      0.0000      0.0000      0.0719      0.0188
       120         0.0000      0.0000     -0.4245      0.1802      0.0463
       121         0.6464     -0.0000     -0.0000      0.4178      0.1066
       122         0.0000     -0.1045     -0.0000      0.0109      0.0027
       123        -0.0000     -0.0000     -0.0000      0.0000      0.0000
       124         0.0000     -0.0518      0.0000      0.0027      0.0007
       125        -0.2744      0.0000     -0.0000      0.0753      0.0184
       126         0.0000      0.0000     -0.0000      0.0000      0.0000
       127         0.0000      0.1601      0.0000      0.0256      0.0062
       128         0.0000      0.0000     -0.4175      0.1743      0.0414
       129         0.0000     -0.4676     -0.0000      0.2186      0.0513
       130         0.0303     -0.0000      0.0000      0.0009      0.0002
       131         0.0000      0.3644      0.0000      0.1328      0.0299
       132         0.0000      0.0000     -0.2657      0.0706      0.0158
       133        -0.0000     -0.0000      0.0000      0.0000      0.0000
       134         0.0000      0.0000      0.3169      0.1005      0.0223
       135         0.2862      0.0000      0.0000      0.0819      0.0181
       136        -0.0000     -0.4428      0.0000      0.1961      0.0426
       137         0.2477     -0.0000      0.0000      0.0614      0.0133
       138         0.0000      0.0000     -0.0000      0.0000      0.0000
       139         0.0000      0.0000      0.0611      0.0037      0.0008
       140         0.0000      0.0878     -0.0000      0.0077      0.0016
       141         0.0000      0.0000     -0.3639      0.1325      0.0275
       142         0.0000     -0.0000     -0.0000      0.0000      0.0000
       143        -0.0000     -0.0000      0.0377      0.0014      0.0003
       144        -0.4317      0.0000     -0.0000      0.1864      0.0377
       145        -0.0000     -0.0000      0.1433      0.0205      0.0040
       146         0.0000     -0.0000     -0.3584      0.1284      0.0247
       147        -0.0000     -0.3267      0.0000      0.1067      0.0205
       148        -0.0000     -0.2375      0.0000      0.0564      0.0107
       149        -0.0000     -0.0000      0.6664      0.4441      0.0806
       150         0.9225      0.0000     -0.0000      0.8510      0.1527
       151         0.0000     -0.6101      0.0000      0.3722      0.0667
       152         0.0999     -0.0000     -0.0000      0.0100      0.0017
       153         0.0000      0.0000      0.2476      0.0613      0.0101
       154        -0.0000      0.0000     -0.2187      0.0478      0.0078
       155        -0.0000      0.1737     -0.0000      0.0302      0.0048
       156         0.0000      0.0000      0.0000      0.0000      0.0000
       157        -0.0000      0.0490     -0.0000      0.0024      0.0004
       158        -0.0000     -0.0000     -0.0886      0.0078      0.0012
       159         0.0000      0.0000     -0.3520      0.1239      0.0176
       160         0.0000      0.4745      0.0000      0.2251      0.0306
       161         0.0000      0.0000     -0.0238      0.0006      0.0001
       162        -0.0072      0.0000     -0.0000      0.0001      0.0000
       163         0.0469      0.0000      0.0000      0.0022      0.0003
       164        -0.0000     -0.0000     -0.0883      0.0078      0.0009
       165        -0.0000     -0.0000     -0.0000      0.0000      0.0000
       166        -0.0000      0.0000      0.1176      0.0138      0.0016
       167         0.0000      0.1024     -0.0000      0.0105      0.0012
       168         0.0000     -0.1028      0.0000      0.0106      0.0012
       169         0.0906      0.0000     -0.0000      0.0082      0.0010
       170         0.0000      0.0000      0.0000      0.0000      0.0000
       171         0.0000     -0.0000      0.0000      0.0000      0.0000
       172        -0.0000     -0.0302      0.0000      0.0009      0.0001
       173         0.0000     -0.0000      0.0000      0.0000      0.0000
       174        -0.1530     -0.0000      0.0000      0.0234      0.0027
       175         0.0000      0.0000     -0.0417      0.0017      0.0002
       176         0.0119     -0.0000     -0.0000      0.0001      0.0000
       177        -0.0000     -0.0000      0.0590      0.0035      0.0004
       178        -0.0000     -0.0000      0.0000      0.0000      0.0000
       179        -0.0630     -0.0000      0.0000      0.0040      0.0004
       180         0.0000     -0.3121      0.0000      0.0974      0.0102
       181        -0.0000     -0.0000     -0.0000      0.0000      0.0000
       182         0.0000     -0.0748      0.0000      0.0056      0.0006
       183        -0.0000     -0.0000     -0.2317      0.0537      0.0055
       184        -0.4915     -0.0000      0.0000      0.2416      0.0247
       185        -0.0000     -0.0000     -0.0487      0.0024      0.0002
       186         0.0000      0.0000      0.4509      0.2033      0.0204
       187         0.0389      0.0000      0.0000      0.0015      0.0002
       188        -0.0000      0.2095     -0.0000      0.0439      0.0044
       189        -0.0000      0.0000      0.0000      0.0000      0.0000
       190         0.6573      0.0000     -0.0000      0.4321      0.0427
       191        -0.0000      0.7299     -0.0000      0.5327      0.0525
       192        -0.0000     -0.0000     -0.0000      0.0000      0.0000
       193        -0.0000     -0.0000      1.0650      1.1343      0.1103
       194        -0.0000     -0.4637      0.0000      0.2150      0.0207
       195         0.8518      0.0000      0.0000      0.7255      0.0695
       196        -0.0000      0.4605      0.0000      0.2121      0.0202
       197         0.6068     -0.0000     -0.0000      0.3682      0.0343
       198        -0.0000      0.0000     -0.1043      0.0109      0.0010
       199         0.0000      0.0000     -0.0000      0.0000      0.0000
       200        -0.0000      0.0000      0.0553      0.0031      0.0003
       201        -0.0000      0.4546     -0.0000      0.2067      0.0188
       202        -0.1605     -0.0000      0.0000      0.0258      0.0023
       203        -0.0000     -0.6167      0.0000      0.3803      0.0343
       204         0.0000     -0.0000      0.0000      0.0000      0.0000
       205        -0.0000      0.0000     -0.1051      0.0110      0.0010
       206         0.0000      0.0000      0.5267      0.2775      0.0248
       207        -0.0000     -0.0000     -0.1643      0.0270      0.0023
       208         0.0000      0.0915      0.0000      0.0084      0.0007
       209        -0.2756      0.0000      0.0000      0.0759      0.0012
       210        -0.0000      0.0000     -0.2509      0.0630      0.0010
       211        -0.0000     -0.2283     -0.0000      0.0521      0.0008
       212        -0.0000     -0.0000      0.0248      0.0006      0.0000
 Ground to excited state transition magnetic dipole moments (Au):
       state          X           Y           Z
         1         0.0000     -0.0805     -0.0000
         2         0.0000     -0.0000      0.0521
         3        -0.0000      0.0000     -0.0000
         4        -0.0000     -0.0356     -0.0000
         5         0.0000     -0.0000     -0.0000
         6        -0.0657     -0.0000      0.0000
         7         0.0000      0.0000      0.1964
         8        -0.0000      0.0424     -0.0000
         9        -0.0000      0.0000      0.0000
        10        -0.0000      0.1134     -0.0000
        11         0.0324      0.0000      0.0000
        12         0.0000      0.0794      0.0000
        13         0.1609      0.0000      0.0000
        14        -0.2785     -0.0000     -0.0000
        15        -0.0000      0.0000      0.0000
        16         0.0000     -0.0000     -0.0000
        17         0.0000      0.0018     -0.0000
        18         0.0000      0.0000     -0.0275
        19        -0.0000      0.0000      0.0000
        20        -0.0000     -0.0000      0.1634
        21         0.0000     -0.0581      0.0000
        22         0.0000      0.0000      0.0157
        23        -0.0000     -0.0000      0.0000
        24         0.0571      0.0000     -0.0000
        25         0.0000     -0.0000     -0.1126
        26        -0.0000      0.0000      0.0000
        27         0.0041      0.0000     -0.0000
        28        -0.0000      0.0000      0.0000
        29        -0.3657     -0.0000     -0.0000
        30         0.0556      0.0000      0.0000
        31        -0.0000     -0.0000      0.1689
        32         0.0000     -0.1647     -0.0000
        33         0.0530      0.0000      0.0000
        34        -0.0000     -0.0158      0.0000
        35         0.0000      0.0000     -0.0000
        36        -0.0000      0.0000      0.1633
        37         0.0000     -0.0754     -0.0000
        38        -0.1422     -0.0000      0.0000
        39        -0.1087     -0.0000      0.0000
        40         0.0000      0.0000     -0.0000
        41        -0.0000     -0.0137     -0.0000
        42        -0.0000      0.0000      0.0000
        43        -0.2287      0.0000     -0.0000
        44         0.0000     -0.0000     -0.0000
        45         0.0000      0.0000     -0.0000
        46        -0.0000     -0.0000      0.1343
        47        -0.0000     -0.1141      0.0000
        48         0.0280     -0.0000     -0.0000
        49        -0.0000     -0.0000      0.0000
        50        -0.0000     -0.0000     -0.1105
        51         0.0000     -0.0833      0.0000
        52        -0.0000      0.0000      0.1256
        53        -0.0000     -0.0000      0.0000
        54         0.0000     -0.0000     -0.0000
        55         0.3666     -0.0000      0.0000
        56         0.0000      0.0000     -0.0000
        57        -0.0000     -0.0666      0.0000
        58        -0.0000      0.0832     -0.0000
        59        -0.1487     -0.0000     -0.0000
        60         0.0255      0.0000     -0.0000
        61        -0.0000      0.0000     -0.0000
        62        -0.0000      0.0329     -0.0000
        63        -0.0000     -0.0000      0.0000
        64         0.0000      0.0000      0.0243
        65         0.1200      0.0000      0.0000
        66         0.0785     -0.0000      0.0000
        67         0.0000     -0.0000     -0.1396
        68        -0.0000      0.0000      0.0000
        69        -0.1047      0.0000     -0.0000
        70         0.0000     -0.0000     -0.1109
        71         0.0000     -0.0000      0.0000
        72         0.1622     -0.0000     -0.0000
        73         0.0000      0.0538     -0.0000
        74         0.0000      0.0518      0.0000
        75         0.0000     -0.0000      0.0000
        76        -0.0379      0.0000     -0.0000
        77        -0.0000      0.0000     -0.0000
        78        -0.0000      0.0000     -0.0000
        79        -0.1218     -0.0000     -0.0000
        80        -0.0000      0.0000     -0.0000
        81         0.0755      0.0000      0.0000
        82         0.0000      0.0000     -0.0000
        83        -0.0509     -0.0000     -0.0000
        84        -0.0000     -0.0633      0.0000
        85        -0.0000      0.0000      0.0000
        86         0.0000      0.0000     -0.1385
        87        -0.0000      0.0000     -0.0000
        88        -0.0000      0.0258      0.0000
        89         0.0000     -0.0000     -0.0000
        90         0.1082      0.0000     -0.0000
        91         0.1188     -0.0000     -0.0000
        92        -0.0000      0.0137     -0.0000
        93         0.0000     -0.0000     -0.2727
        94        -0.0000     -0.0000      0.0000
        95        -0.0404      0.0000      0.0000
        96         0.0000     -0.0394      0.0000
        97         0.0000      0.0000      0.0000
        98        -0.0000      0.0000      0.0649
        99         0.0000      0.2587      0.0000
       100         0.0000      0.0000      0.0000
       101        -0.4183     -0.0000     -0.0000
       102        -0.0000     -0.0000      0.3748
       103        -0.0000      0.0000      0.0000
       104         0.0000      0.0000      0.0243
       105         0.0453      0.0000     -0.0000
       106        -0.0000      0.0067     -0.0000
       107        -0.3130     -0.0000      0.0000
       108         0.0000     -0.0000     -0.0000
       109         0.0541     -0.0000     -0.0000
       110        -0.0000      0.0000     -0.0000
       111        -0.0000      0.0000     -0.0000
       112        -0.0000      0.1914     -0.0000
       113        -0.0485     -0.0000     -0.0000
       114        -0.0000     -0.0000      0.0462
       115         0.0000      0.0000      0.3611
       116        -0.0000      0.0257      0.0000
       117        -0.0000      0.0000     -0.2742
       118         0.0000     -0.0000      0.0000
       119        -0.0000      0.1492      0.0000
       120        -0.0000      0.0000     -0.0000
       121        -0.0000      0.2198      0.0000
       122         0.1687      0.0000     -0.0000
       123         0.0000     -0.0000      0.0000
       124        -0.2073      0.0000      0.0000
       125         0.0000     -0.0292     -0.0000
       126         0.0000      0.0000     -0.0116
       127         0.2590      0.0000     -0.0000
       128         0.0000      0.0000      0.0000
       129         0.0178     -0.0000      0.0000
       130        -0.0000      0.0366      0.0000
       131        -0.2348      0.0000      0.0000
       132         0.0000      0.0000     -0.0000
       133         0.0000      0.0000      0.0391
       134        -0.0000      0.0000      0.0000
       135        -0.0000     -0.0385      0.0000
       136         0.0619     -0.0000      0.0000
       137         0.0000      0.0526      0.0000
       138         0.0000     -0.0000      0.0867
       139        -0.0000      0.0000      0.0000
       140        -0.0668     -0.0000      0.0000
       141        -0.0000      0.0000     -0.0000
       142         0.0000     -0.0000      0.0162
       143         0.0000     -0.0000      0.0000
       144        -0.0000     -0.0621      0.0000
       145         0.0000     -0.0000      0.0000
       146        -0.0000      0.0000      0.0000
       147         0.0692     -0.0000     -0.0000
       148         0.0674     -0.0000     -0.0000
       149         0.0000     -0.0000      0.0000
       150        -0.0000      0.1929      0.0000
       151         0.1112      0.0000     -0.0000
       152         0.0000      0.0413     -0.0000
       153        -0.0000      0.0000     -0.0000
       154        -0.0000      0.0000      0.0000
       155        -0.0217      0.0000     -0.0000
       156        -0.0000     -0.0000     -0.0001
       157        -0.0466     -0.0000      0.0000
       158         0.0000     -0.0000      0.0000
       159        -0.0000      0.0000      0.0000
       160        -0.0911      0.0000      0.0000
       161        -0.0000      0.0000     -0.0000
       162        -0.0000      0.0070      0.0000
       163         0.0000     -0.0188      0.0000
       164         0.0000     -0.0000     -0.0000
       165         0.0000     -0.0000      0.0143
       166        -0.0000     -0.0000      0.0000
       167        -0.0360     -0.0000      0.0000
       168         0.0266      0.0000     -0.0000
       169        -0.0000      0.0160      0.0000
       170        -0.0000      0.0000     -0.0188
       171         0.0000      0.0000     -0.0136
       172         0.0081     -0.0000      0.0000
       173         0.0000      0.0000      0.0249
       174         0.0000     -0.0120      0.0000
       175        -0.0000      0.0000     -0.0000
       176         0.0000     -0.0016      0.0000
       177         0.0000     -0.0000      0.0000
       178         0.0000     -0.0000      0.0310
       179         0.0000      0.0051     -0.0000
       180         0.0560      0.0000     -0.0000
       181         0.0000     -0.0000      0.0359
       182        -0.0250      0.0000      0.0000
       183         0.0000     -0.0000      0.0000
       184        -0.0000     -0.0877      0.0000
       185         0.0000     -0.0000     -0.0000
       186        -0.0000      0.0000     -0.0000
       187        -0.0000      0.0038      0.0000
       188        -0.0406     -0.0000      0.0000
       189        -0.0000     -0.0000     -0.0068
       190        -0.0000      0.1391     -0.0000
       191        -0.1557     -0.0000      0.0000
       192         0.0000     -0.0000     -0.0037
       193         0.0000     -0.0000      0.0000
       194         0.0936     -0.0000      0.0000
       195        -0.0000      0.1829      0.0000
       196        -0.1095     -0.0000     -0.0000
       197         0.0000      0.1418     -0.0000
       198        -0.0000     -0.0000     -0.0000
       199        -0.0000      0.0000      0.0105
       200        -0.0000     -0.0000     -0.0000
       201        -0.0915     -0.0000     -0.0000
       202         0.0000     -0.0340     -0.0000
       203         0.1364     -0.0000     -0.0000
       204         0.0000      0.0000      0.0025
       205        -0.0000     -0.0000     -0.0000
       206        -0.0000      0.0000      0.0000
       207         0.0000     -0.0000      0.0000
       208        -0.0355      0.0000     -0.0000
       209        -0.0000     -0.0604      0.0000
       210        -0.0000     -0.0000     -0.0000
       211         0.0509     -0.0000      0.0000
       212         0.0000     -0.0000      0.0000
 Ground to excited state transition velocity quadrupole moments (Au):
       state          XX          YY          ZZ          XY          XZ          YZ
         1        -0.0000      0.0000      0.0000      0.0000     -0.0786     -0.0000
         2        -0.0000      0.0000      0.0000     -0.2709      0.0000     -0.0000
         3         0.2823     -0.1040     -0.1391     -0.0000     -0.0000      0.0000
         4         0.0000     -0.0000     -0.0000     -0.0000      0.3145      0.0000
         5         0.7608      0.1277      0.1350      0.0000     -0.0000      0.0000
         6         0.0000      0.0000      0.0000      0.0000      0.0000     -0.3549
         7         0.0000     -0.0000      0.0000      0.1842      0.0000      0.0000
         8         0.0000     -0.0000      0.0000     -0.0000      0.2695      0.0000
         9         0.3098      0.0242      0.7396     -0.0000      0.0000      0.0000
        10        -0.0000     -0.0000     -0.0000     -0.0000     -0.0533     -0.0000
        11        -0.0000     -0.0000     -0.0000     -0.0000     -0.0000     -0.1518
        12         0.0000      0.0000      0.0000     -0.0000      0.0624     -0.0000
        13        -0.0000     -0.0000     -0.0000     -0.0000     -0.0000     -0.2592
        14         0.0000      0.0000      0.0000      0.0000      0.0000     -0.2625
        15        -0.1450     -0.0336     -0.0687     -0.0000      0.0000     -0.0000
        16         0.0794      0.2748     -0.0916      0.0000     -0.0000      0.0000
        17        -0.0000     -0.0000     -0.0000     -0.0000      0.0117     -0.0000
        18         0.0000      0.0000     -0.0000      0.1561      0.0000     -0.0000
        19        -0.1064     -0.5848      0.0090     -0.0000      0.0000     -0.0000
        20         0.0000      0.0000      0.0000     -0.2770     -0.0000     -0.0000
[...]
      3   0.000000D+00  0.000000D+00  0.000000D+00  0.000000D+00  0.000000D+00
      4   0.105786D+00  0.000000D+00 -0.717152D-02  0.000000D+00 -0.372373D-01
      5   0.000000D+00  0.000000D+00  0.000000D+00 -0.431690D+00  0.000000D+00
      6   0.000000D+00  0.000000D+00  0.000000D+00  0.000000D+00  0.000000D+00
      7  -0.363945D+00  0.000000D+00  0.376927D-01  0.000000D+00  0.143309D+00
      8   0.000000D+00  0.000000D+00  0.000000D+00  0.000000D+00  0.000000D+00
      9   0.000000D+00  0.000000D+00  0.000000D+00 -0.620714D-01  0.000000D+00
     10   0.000000D+00  0.162038D-01  0.000000D+00  0.000000D+00  0.000000D+00
     11   0.172458D+00  0.000000D+00 -0.133325D+00  0.000000D+00  0.144569D+00
     12  -0.112690D+00  0.000000D+00 -0.612895D-02  0.000000D+00  0.207773D+00
     13  -0.277364D+00  0.000000D+00 -0.115686D+00  0.000000D+00  0.281635D+00
     14   0.000000D+00 -0.163439D+00  0.000000D+00  0.000000D+00  0.000000D+00
     15   0.000000D+00  0.000000D+00  0.000000D+00 -0.357874D+00  0.000000D+00
     16   0.000000D+00  0.000000D+00  0.000000D+00  0.000000D+00  0.000000D+00
               146           147           148           149           150 
      1  -0.729778D+02 -0.729704D+02 -0.729183D+02 -0.727696D+02 -0.727264D+02
      2   0.000000D+00  0.000000D+00  0.000000D+00  0.000000D+00 -0.225534D+00
      3   0.000000D+00  0.798173D-01  0.631449D-01  0.000000D+00  0.000000D+00
      4   0.953352D-01  0.000000D+00  0.000000D+00 -0.170106D+00  0.000000D+00
      5   0.000000D+00  0.000000D+00  0.000000D+00  0.000000D+00  0.922521D+00
      6   0.000000D+00 -0.326690D+00 -0.237467D+00  0.000000D+00  0.000000D+00
      7  -0.358365D+00  0.000000D+00  0.000000D+00  0.666402D+00  0.000000D+00
      8   0.000000D+00  0.692385D-01  0.673768D-01  0.000000D+00  0.000000D+00
      9   0.000000D+00  0.000000D+00  0.000000D+00  0.000000D+00  0.192920D+00
     10   0.000000D+00  0.000000D+00  0.000000D+00  0.000000D+00  0.000000D+00
     11  -0.720703D+00  0.000000D+00  0.000000D+00 -0.238048D+00  0.000000D+00
     12  -0.510707D+00  0.000000D+00  0.000000D+00  0.446001D-01  0.000000D+00
     13  -0.695549D+00  0.000000D+00  0.000000D+00  0.216630D+00  0.000000D+00
     14   0.000000D+00  0.000000D+00  0.000000D+00  0.000000D+00  0.000000D+00
     15   0.000000D+00  0.000000D+00  0.000000D+00  0.000000D+00  0.145266D+00
     16   0.000000D+00 -0.163954D+00 -0.179134D+00  0.000000D+00  0.000000D+00
               151           152           153           154           155 
      1  -0.727215D+02 -0.724691D+02 -0.724016D+02 -0.723682D+02 -0.722567D+02
      2   0.000000D+00 -0.240311D-01  0.000000D+00  0.000000D+00  0.000000D+00
      3   0.157492D+00  0.000000D+00  0.000000D+00  0.000000D+00 -0.350591D-01
      4   0.000000D+00  0.000000D+00 -0.496449D-01  0.455482D-01  0.000000D+00
      5   0.000000D+00  0.998903D-01  0.000000D+00  0.000000D+00  0.000000D+00
      6  -0.610052D+00  0.000000D+00  0.000000D+00  0.000000D+00  0.173687D+00
      7   0.000000D+00  0.000000D+00  0.247636D+00 -0.218701D+00  0.000000D+00
      8   0.111213D+00  0.000000D+00  0.000000D+00  0.000000D+00 -0.217130D-01
      9   0.000000D+00  0.412549D-01  0.000000D+00  0.000000D+00  0.000000D+00
     10   0.000000D+00  0.000000D+00  0.000000D+00  0.000000D+00  0.000000D+00
     11   0.000000D+00  0.000000D+00  0.210182D-01 -0.711351D+00  0.000000D+00
     12   0.000000D+00  0.000000D+00  0.559476D+00  0.144134D-01  0.000000D+00
     13   0.000000D+00  0.000000D+00  0.124162D+00 -0.642367D+00  0.000000D+00
     14   0.000000D+00  0.000000D+00  0.000000D+00  0.000000D+00  0.000000D+00
     15   0.000000D+00 -0.467941D+00  0.000000D+00  0.000000D+00  0.000000D+00
     16  -0.374994D+00  0.000000D+00  0.000000D+00  0.000000D+00  0.469139D+00
               156           157           158           159           160 
      1  -0.722353D+02 -0.721648D+02 -0.720094D+02 -0.717421D+02 -0.715354D+02
      2   0.000000D+00  0.000000D+00  0.000000D+00  0.000000D+00  0.000000D+00
      3   0.000000D+00 -0.902999D-02  0.000000D+00  0.000000D+00 -0.807353D-01
      4   0.000000D+00  0.000000D+00  0.184759D-01  0.643330D-01  0.000000D+00
      5   0.000000D+00  0.000000D+00  0.000000D+00  0.000000D+00  0.000000D+00
      6   0.000000D+00  0.489996D-01  0.000000D+00  0.000000D+00  0.474497D+00
      7   0.000000D+00  0.000000D+00 -0.885993D-01 -0.352015D+00  0.000000D+00
      8   0.000000D+00 -0.465625D-01  0.000000D+00  0.000000D+00 -0.911147D-01
      9   0.000000D+00  0.000000D+00  0.000000D+00  0.000000D+00  0.000000D+00
     10  -0.808750D-04  0.000000D+00  0.000000D+00  0.000000D+00  0.000000D+00
     11   0.000000D+00  0.000000D+00  0.990191D+00  0.419494D+00  0.000000D+00
     12   0.000000D+00  0.000000D+00  0.526621D-01  0.452802D+00  0.000000D+00
     13   0.000000D+00  0.000000D+00 -0.115395D+00  0.337350D+00  0.000000D+00
     14   0.923968D+00  0.000000D+00  0.000000D+00  0.000000D+00  0.000000D+00
     15   0.000000D+00  0.000000D+00  0.000000D+00  0.000000D+00  0.000000D+00
     16   0.000000D+00 -0.285970D+00  0.000000D+00  0.000000D+00 -0.852216D-02
               161           162           163           164           165 
      1  -0.711616D+02 -0.710964D+02 -0.709994D+02 -0.709374D+02 -0.709359D+02
      2   0.000000D+00  0.832874D-02 -0.241451D-01  0.000000D+00  0.000000D+00
      3   0.000000D+00  0.000000D+00  0.000000D+00  0.000000D+00  0.000000D+00
      4   0.183709D-01  0.000000D+00  0.000000D+00  0.234341D-01  0.000000D+00
      5   0.000000D+00 -0.716523D-02  0.469114D-01  0.000000D+00  0.000000D+00
      6   0.000000D+00  0.000000D+00  0.000000D+00  0.000000D+00  0.000000D+00
      7  -0.238064D-01  0.000000D+00  0.000000D+00 -0.883188D-01  0.000000D+00
      8   0.000000D+00  0.000000D+00  0.000000D+00  0.000000D+00  0.000000D+00
      9   0.000000D+00  0.704861D-02 -0.187686D-01  0.000000D+00  0.000000D+00
     10   0.000000D+00  0.000000D+00  0.000000D+00  0.000000D+00  0.143342D-01
     11  -0.304221D+00  0.000000D+00  0.000000D+00 -0.684066D+00  0.000000D+00
     12  -0.670345D+00  0.000000D+00  0.000000D+00 -0.425075D+00  0.000000D+00
     13   0.966995D+00  0.000000D+00  0.000000D+00  0.107921D+01  0.000000D+00
     14   0.000000D+00  0.000000D+00  0.000000D+00  0.000000D+00 -0.540342D+00
     15   0.000000D+00  0.521155D+00 -0.131973D+01  0.000000D+00  0.000000D+00
     16   0.000000D+00  0.000000D+00  0.000000D+00  0.000000D+00  0.000000D+00
               166           167           168           169           170 
      1  -0.708280D+02 -0.708016D+02 -0.707915D+02 -0.707713D+02 -0.707675D+02
      2   0.000000D+00  0.000000D+00  0.000000D+00 -0.132398D-01  0.000000D+00
      3   0.000000D+00 -0.136071D-01  0.100335D-01  0.000000D+00  0.000000D+00
      4  -0.171662D-01  0.000000D+00  0.000000D+00  0.000000D+00  0.000000D+00
      5   0.000000D+00  0.000000D+00  0.000000D+00  0.905740D-01  0.000000D+00
      6   0.000000D+00  0.102367D+00 -0.102765D+00  0.000000D+00  0.000000D+00
      7   0.117589D+00  0.000000D+00  0.000000D+00  0.000000D+00  0.000000D+00
      8   0.000000D+00 -0.360418D-01  0.266016D-01  0.000000D+00  0.000000D+00
      9   0.000000D+00  0.000000D+00  0.000000D+00  0.160163D-01  0.000000D+00
     10   0.000000D+00  0.000000D+00  0.000000D+00  0.000000D+00 -0.188380D-01
     11   0.137749D+01  0.000000D+00  0.000000D+00  0.000000D+00  0.000000D+00
     12  -0.614890D+00  0.000000D+00  0.000000D+00  0.000000D+00  0.000000D+00
     13  -0.634796D+00  0.000000D+00  0.000000D+00  0.000000D+00  0.000000D+00
     14   0.000000D+00  0.000000D+00  0.000000D+00  0.000000D+00  0.436447D+00
     15   0.000000D+00  0.000000D+00  0.000000D+00 -0.368654D+00  0.000000D+00
     16   0.000000D+00 -0.394670D+00  0.507113D+00  0.000000D+00  0.000000D+00
               171           172           173           174           175 
      1  -0.707223D+02 -0.706873D+02 -0.706103D+02 -0.705616D+02 -0.705219D+02
      2   0.000000D+00  0.000000D+00  0.000000D+00  0.223568D-01  0.000000D+00
      3   0.000000D+00  0.453839D-02  0.000000D+00  0.000000D+00  0.000000D+00
      4   0.000000D+00  0.000000D+00  0.000000D+00  0.000000D+00  0.124679D-01
      5   0.000000D+00  0.000000D+00  0.000000D+00 -0.152969D+00  0.000000D+00
      6   0.000000D+00 -0.302464D-01  0.000000D+00  0.000000D+00  0.000000D+00
      7   0.000000D+00  0.000000D+00  0.000000D+00  0.000000D+00 -0.416728D-01
      8   0.000000D+00  0.814784D-02  0.000000D+00  0.000000D+00  0.000000D+00
      9   0.000000D+00  0.000000D+00  0.000000D+00 -0.120461D-01  0.000000D+00
     10  -0.135535D-01  0.000000D+00  0.249123D-01  0.000000D+00  0.000000D+00
     11   0.000000D+00  0.000000D+00  0.000000D+00  0.000000D+00  0.503647D+00
     12   0.000000D+00  0.000000D+00  0.000000D+00  0.000000D+00 -0.907148D+00
     13   0.000000D+00  0.000000D+00  0.000000D+00  0.000000D+00  0.357811D+00
     14   0.609307D+00  0.000000D+00 -0.678164D+00  0.000000D+00  0.000000D+00
     15   0.000000D+00  0.000000D+00  0.000000D+00  0.590302D+00  0.000000D+00
     16   0.000000D+00  0.619140D+00  0.000000D+00  0.000000D+00  0.000000D+00
               176           177           178           179           180 
      1  -0.704513D+02 -0.703117D+02 -0.701860D+02 -0.701359D+02 -0.700935D+02
      2  -0.320239D-02  0.000000D+00  0.000000D+00  0.133113D-01  0.000000D+00
      3   0.000000D+00  0.000000D+00  0.000000D+00  0.000000D+00  0.475564D-01
      4   0.000000D+00 -0.120186D-01  0.000000D+00  0.000000D+00  0.000000D+00
      5   0.119164D-01  0.000000D+00  0.000000D+00 -0.629672D-01  0.000000D+00
      6   0.000000D+00  0.000000D+00  0.000000D+00  0.000000D+00 -0.312059D+00
      7   0.000000D+00  0.589643D-01  0.000000D+00  0.000000D+00  0.000000D+00
      8   0.000000D+00  0.000000D+00  0.000000D+00  0.000000D+00  0.559935D-01
      9  -0.159356D-02  0.000000D+00  0.000000D+00  0.514882D-02  0.000000D+00
     10   0.000000D+00  0.000000D+00  0.309709D-01  0.000000D+00  0.000000D+00
     11   0.000000D+00  0.237985D+00  0.000000D+00  0.000000D+00  0.000000D+00
     12   0.000000D+00 -0.331259D-02  0.000000D+00  0.000000D+00  0.000000D+00
     13   0.000000D+00 -0.234862D+00  0.000000D+00  0.000000D+00  0.000000D+00
     14   0.000000D+00  0.000000D+00 -0.528144D+00  0.000000D+00  0.000000D+00
     15  -0.325125D+00  0.000000D+00  0.000000D+00  0.207032D-01  0.000000D+00
     16   0.000000D+00  0.000000D+00  0.000000D+00  0.000000D+00  0.333637D+00
               181           182           183           184           185 
      1  -0.700842D+02 -0.700520D+02 -0.699509D+02 -0.699313D+02 -0.698933D+02
      2   0.000000D+00  0.000000D+00  0.000000D+00  0.730059D-01  0.000000D+00
      3   0.000000D+00  0.131636D-01  0.000000D+00  0.000000D+00  0.000000D+00
      4   0.000000D+00  0.000000D+00  0.338450D-01  0.000000D+00  0.917205D-02
      5   0.000000D+00  0.000000D+00  0.000000D+00 -0.491514D+00  0.000000D+00
      6   0.000000D+00 -0.747721D-01  0.000000D+00  0.000000D+00  0.000000D+00
      7   0.000000D+00  0.000000D+00 -0.231704D+00  0.000000D+00 -0.487109D-01
      8   0.000000D+00 -0.249973D-01  0.000000D+00  0.000000D+00  0.000000D+00
      9   0.000000D+00  0.000000D+00  0.000000D+00 -0.876740D-01  0.000000D+00
     10   0.359163D-01  0.000000D+00  0.000000D+00  0.000000D+00  0.000000D+00
     11   0.000000D+00  0.000000D+00 -0.551805D+00  0.000000D+00  0.851118D-01
     12   0.000000D+00  0.000000D+00  0.258603D+00  0.000000D+00 -0.311366D+00
     13   0.000000D+00  0.000000D+00  0.215401D+00  0.000000D+00  0.238186D+00
     14  -0.135784D+00  0.000000D+00  0.000000D+00  0.000000D+00  0.000000D+00
     15   0.000000D+00  0.000000D+00  0.000000D+00  0.115362D+00  0.000000D+00
     16   0.000000D+00 -0.107277D+00  0.000000D+00  0.000000D+00  0.000000D+00
               186           187           188           189           190 
      1  -0.698053D+02 -0.697785D+02 -0.697711D+02 -0.696910D+02 -0.696899D+02
      2   0.000000D+00 -0.493279D-02  0.000000D+00  0.000000D+00 -0.894233D-01
      3   0.000000D+00  0.000000D+00 -0.302208D-01  0.000000D+00  0.000000D+00
      4  -0.627875D-01  0.000000D+00  0.000000D+00  0.000000D+00  0.000000D+00
      5   0.000000D+00  0.389386D-01  0.000000D+00  0.000000D+00  0.657348D+00
      6   0.000000D+00  0.000000D+00  0.209475D+00  0.000000D+00  0.000000D+00
      7   0.450929D+00  0.000000D+00  0.000000D+00  0.000000D+00  0.000000D+00
      8   0.000000D+00  0.000000D+00 -0.405680D-01  0.000000D+00  0.000000D+00
      9   0.000000D+00  0.379627D-02  0.000000D+00  0.000000D+00  0.139120D+00
     10   0.000000D+00  0.000000D+00  0.000000D+00 -0.676333D-02  0.000000D+00
     11   0.917083D-01  0.000000D+00  0.000000D+00  0.000000D+00  0.000000D+00
     12  -0.690891D-01  0.000000D+00  0.000000D+00  0.000000D+00  0.000000D+00
     13   0.210878D+00  0.000000D+00  0.000000D+00  0.000000D+00  0.000000D+00
     14   0.000000D+00  0.000000D+00  0.000000D+00  0.476012D-01  0.000000D+00
     15   0.000000D+00 -0.742891D-01  0.000000D+00  0.000000D+00  0.154917D+00
     16   0.000000D+00  0.000000D+00  0.335809D+00  0.000000D+00  0.000000D+00
               191           192           193           194           195 
      1  -0.696731D+02 -0.696050D+02 -0.695875D+02 -0.695150D+02 -0.694865D+02
      2   0.000000D+00  0.000000D+00  0.000000D+00  0.000000D+00 -0.113428D+00
      3  -0.101339D+00  0.000000D+00  0.000000D+00  0.620205D-01  0.000000D+00
      4   0.000000D+00  0.000000D+00 -0.145014D+00  0.000000D+00  0.000000D+00
      5   0.000000D+00  0.000000D+00  0.000000D+00  0.000000D+00  0.851754D+00
      6   0.729863D+00  0.000000D+00  0.000000D+00 -0.463674D+00  0.000000D+00
      7   0.000000D+00  0.000000D+00  0.106501D+01  0.000000D+00  0.000000D+00
      8  -0.155699D+00  0.000000D+00  0.000000D+00  0.935671D-01  0.000000D+00
      9   0.000000D+00  0.000000D+00  0.000000D+00  0.000000D+00  0.182872D+00
     10   0.000000D+00 -0.373432D-02  0.000000D+00  0.000000D+00  0.000000D+00
     11   0.000000D+00  0.000000D+00  0.125525D-01  0.000000D+00  0.000000D+00
     12   0.000000D+00  0.000000D+00  0.110546D+00  0.000000D+00  0.000000D+00
     13   0.000000D+00  0.000000D+00  0.445838D+00  0.000000D+00  0.000000D+00
     14   0.000000D+00 -0.916260D-03  0.000000D+00  0.000000D+00  0.000000D+00
     15   0.000000D+00  0.000000D+00  0.000000D+00  0.000000D+00  0.159222D+00
     16  -0.932163D-01  0.000000D+00  0.000000D+00  0.624499D-02  0.000000D+00
               196           197           198           199           200 
      1  -0.694488D+02 -0.692810D+02 -0.692420D+02 -0.692241D+02 -0.692127D+02
      2   0.000000D+00 -0.758928D-01  0.000000D+00  0.000000D+00  0.000000D+00
      3  -0.572898D-01  0.000000D+00  0.000000D+00  0.000000D+00  0.000000D+00
      4   0.000000D+00  0.000000D+00  0.111917D-01  0.000000D+00 -0.606109D-02
      5   0.000000D+00  0.606827D+00  0.000000D+00  0.000000D+00  0.000000D+00
      6   0.460507D+00  0.000000D+00  0.000000D+00  0.000000D+00  0.000000D+00
      7   0.000000D+00  0.000000D+00 -0.104276D+00  0.000000D+00  0.552706D-01
      8  -0.109455D+00  0.000000D+00  0.000000D+00  0.000000D+00  0.000000D+00
      9   0.000000D+00  0.141811D+00  0.000000D+00  0.000000D+00  0.000000D+00
     10   0.000000D+00  0.000000D+00  0.000000D+00  0.104834D-01  0.000000D+00
     11   0.000000D+00  0.000000D+00  0.784008D-01  0.000000D+00  0.185567D+00
     12   0.000000D+00  0.000000D+00 -0.107076D+00  0.000000D+00 -0.367710D+00
     13   0.000000D+00  0.000000D+00  0.173636D-01  0.000000D+00  0.208493D+00
     14   0.000000D+00  0.000000D+00  0.000000D+00 -0.259261D+00  0.000000D+00
     15   0.000000D+00  0.354377D+00  0.000000D+00  0.000000D+00  0.000000D+00
     16  -0.465410D-01  0.000000D+00  0.000000D+00  0.000000D+00  0.000000D+00
               201           202           203           204           205 
      1  -0.691250D+02 -0.691061D+02 -0.690504D+02 -0.690462D+02 -0.690374D+02
      2   0.000000D+00  0.187512D-01  0.000000D+00  0.000000D+00  0.000000D+00
      3  -0.597834D-01  0.000000D+00  0.918585D-01  0.000000D+00  0.000000D+00
      4   0.000000D+00  0.000000D+00  0.000000D+00  0.000000D+00  0.128825D-01
      5   0.000000D+00 -0.160546D+00  0.000000D+00  0.000000D+00  0.000000D+00
      6   0.454632D+00  0.000000D+00 -0.616718D+00  0.000000D+00  0.000000D+00
      7   0.000000D+00  0.000000D+00  0.000000D+00  0.000000D+00 -0.105100D+00
      8  -0.915429D-01  0.000000D+00  0.136370D+00  0.000000D+00  0.000000D+00
      9   0.000000D+00 -0.339826D-01  0.000000D+00  0.000000D+00  0.000000D+00
     10   0.000000D+00  0.000000D+00  0.000000D+00  0.248963D-02  0.000000D+00
     11   0.000000D+00  0.000000D+00  0.000000D+00  0.000000D+00  0.355400D-01
     12   0.000000D+00  0.000000D+00  0.000000D+00  0.000000D+00 -0.289559D-01
     13   0.000000D+00  0.000000D+00  0.000000D+00  0.000000D+00 -0.812871D-01
     14   0.000000D+00  0.000000D+00  0.000000D+00 -0.413592D-01  0.000000D+00
     15   0.000000D+00 -0.751561D-01  0.000000D+00  0.000000D+00  0.000000D+00
     16   0.822465D-01  0.000000D+00 -0.514796D+00  0.000000D+00  0.000000D+00
               206           207           208           209           210 
      1  -0.689709D+02 -0.685845D+02 -0.685076D+02 -0.326641D+02 -0.325678D+02
      2   0.000000D+00  0.000000D+00  0.000000D+00  0.128751D-01  0.000000D+00
      3   0.000000D+00  0.000000D+00 -0.692702D-02  0.000000D+00  0.000000D+00
      4  -0.752647D-01  0.156684D-01  0.000000D+00  0.000000D+00  0.125655D-01
      5   0.000000D+00  0.000000D+00  0.000000D+00 -0.275569D+00  0.000000D+00
      6   0.000000D+00  0.000000D+00  0.914945D-01  0.000000D+00  0.000000D+00
      7   0.526749D+00 -0.164317D+00  0.000000D+00  0.000000D+00 -0.250914D+00
      8   0.000000D+00  0.000000D+00 -0.354527D-01  0.000000D+00  0.000000D+00
      9   0.000000D+00  0.000000D+00  0.000000D+00 -0.604402D-01  0.000000D+00
     10   0.000000D+00  0.000000D+00  0.000000D+00  0.000000D+00  0.000000D+00
     11  -0.109746D+00 -0.210569D-01  0.000000D+00  0.000000D+00 -0.896781D-01
     12   0.396455D-01  0.148751D+00  0.000000D+00  0.000000D+00 -0.744376D-01
     13   0.459272D+00 -0.791101D-01  0.000000D+00  0.000000D+00 -0.195458D+00
     14   0.000000D+00  0.000000D+00  0.000000D+00  0.000000D+00  0.000000D+00
     15   0.000000D+00  0.000000D+00  0.000000D+00 -0.700578D-01  0.000000D+00
     16   0.000000D+00  0.000000D+00 -0.572603D-01  0.000000D+00  0.000000D+00
               211           212 
      1  -0.324171D+02 -0.318650D+02
      2   0.000000D+00  0.000000D+00
      3   0.115668D-01  0.000000D+00
      4   0.000000D+00  0.584243D-05
      5   0.000000D+00  0.000000D+00
      6  -0.228261D+00  0.000000D+00
      7   0.000000D+00  0.247546D-01
      8   0.508858D-01  0.000000D+00
      9   0.000000D+00  0.000000D+00
     10   0.000000D+00  0.000000D+00
     11   0.000000D+00 -0.226269D+00
     12   0.000000D+00 -0.228214D+00
     13   0.000000D+00 -0.214105D+00
     14   0.000000D+00  0.000000D+00
     15   0.000000D+00  0.000000D+00
     16  -0.405373D-01  0.000000D+00
 Unable to Open any file for archive entry.
 1\1\GINC-HEL15\SP\RwB97XD TD-FC\Gen\H2O1\RR\27-Feb-2022\0\\#P TD(Nstat
 es=10000) wB97XD/Gen SCF(maxcycles=100) Int(Grid=ultrafine)\\xGDB7_000
 01_tier4.com\\0,1\O,0,0.,0.,0.116015\H,0,0.,0.761895,-0.464058\H,0,0.,
 -0.761895,-0.464058\\Version=EM64L-G16RevC.01\State=1-A1\HF=-76.440884
 7\RMSD=8.143e-09\PG=C02V [C2(O1),SGV(H2)]\\@
 The archive entry for this job was punched.


 HE THAT IS UNAWARE OF HIS IGNORANCE WILL BE MISLED BY HIS KNOWLEDGE.

                                        -- WHATLEY
 Job cpu time:       0 days  0 hours  0 minutes 48.7 seconds.
 Elapsed time:       0 days  0 hours  0 minutes  7.6 seconds.
 File lengths (MBytes):  RWF=     62 Int=      0 D2E=      0 Chk=     18 Scr=      1
 Normal termination of Gaussian 16 at Sun Feb 27 06:37:10 2022.
