 Entering Gaussian System, Link 0=g16
 Input=bigQM7w_TDwB97XD_def2TZVP_000013.com
 Output=bigQM7w_TDwB97XD_def2TZVP_000013.log
 Initial command:
 /home/rr/g16/l1.exe "/scratch/rr/PBS_7918666.helios/Gau-12809.inp" -scrdir="/scratch/rr/PBS_7918666.helios/"
 Entering Link 1 = /home/rr/g16/l1.exe PID=     12812.
  
 Copyright (c) 1988-2019, Gaussian, Inc.  All Rights Reserved.
  
 This is part of the Gaussian(R) 16 program.  It is based on
 the Gaussian(R) 09 system (copyright 2009, Gaussian, Inc.),
 the Gaussian(R) 03 system (copyright 2003, Gaussian, Inc.),
 the Gaussian(R) 98 system (copyright 1998, Gaussian, Inc.),
 the Gaussian(R) 94 system (copyright 1995, Gaussian, Inc.),
 the Gaussian 92(TM) system (copyright 1992, Gaussian, Inc.),
 the Gaussian 90(TM) system (copyright 1990, Gaussian, Inc.),
 the Gaussian 88(TM) system (copyright 1988, Gaussian, Inc.),
 the Gaussian 86(TM) system (copyright 1986, Carnegie Mellon
 University), and the Gaussian 82(TM) system (copyright 1983,
 Carnegie Mellon University). Gaussian is a federally registered
 trademark of Gaussian, Inc.
  
 This software contains proprietary and confidential information,
 including trade secrets, belonging to Gaussian, Inc.
  
 This software is provided under written license and may be
 used, copied, transmitted, or stored only in accord with that
 written license.
  
 The following legend is applicable only to US Government
 contracts under FAR:
  
                    RESTRICTED RIGHTS LEGEND
  
 Use, reproduction and disclosure by the US Government is
 subject to restrictions as set forth in subparagraphs (a)
 and (c) of the Commercial Computer Software - Restricted
 Rights clause in FAR 52.227-19.
  
 Gaussian, Inc.
 340 Quinnipiac St., Bldg. 40, Wallingford CT 06492
  
  
 ---------------------------------------------------------------
 Warning -- This program may not be used in any manner that
 competes with the business of Gaussian, Inc. or will provide
 assistance to any competitor of Gaussian, Inc.  The licensee
 of this program is prohibited from giving any competitor of
 Gaussian, Inc. access to this program.  By using this program,
 the user acknowledges that Gaussian, Inc. is engaged in the
 business of creating and licensing software in the field of
 computational chemistry and represents and warrants to the
 licensee that it is not a competitor of Gaussian, Inc. and that
 it will not use this program in any manner prohibited above.
 ---------------------------------------------------------------
  

 Cite this work as:
 Gaussian 16, Revision C.01,
 M. J. Frisch, G. W. Trucks, H. B. Schlegel, G. E. Scuseria, 
 M. A. Robb, J. R. Cheeseman, G. Scalmani, V. Barone, 
 G. A. Petersson, H. Nakatsuji, X. Li, M. Caricato, A. V. Marenich, 
 J. Bloino, B. G. Janesko, R. Gomperts, B. Mennucci, H. P. Hratchian, 
 J. V. Ortiz, A. F. Izmaylov, J. L. Sonnenberg, D. Williams-Young, 
 F. Ding, F. Lipparini, F. Egidi, J. Goings, B. Peng, A. Petrone, 
 T. Henderson, D. Ranasinghe, V. G. Zakrzewski, J. Gao, N. Rega, 
 G. Zheng, W. Liang, M. Hada, M. Ehara, K. Toyota, R. Fukuda, 
 J. Hasegawa, M. Ishida, T. Nakajima, Y. Honda, O. Kitao, H. Nakai, 
 T. Vreven, K. Throssell, J. A. Montgomery, Jr., J. E. Peralta, 
 F. Ogliaro, M. J. Bearpark, J. J. Heyd, E. N. Brothers, K. N. Kudin, 
 V. N. Staroverov, T. A. Keith, R. Kobayashi, J. Normand, 
 K. Raghavachari, A. P. Rendell, J. C. Burant, S. S. Iyengar, 
 J. Tomasi, M. Cossi, J. M. Millam, M. Klene, C. Adamo, R. Cammi, 
 J. W. Ochterski, R. L. Martin, K. Morokuma, O. Farkas, 
 J. B. Foresman, and D. J. Fox, Gaussian, Inc., Wallingford CT, 2019.
 
 ******************************************
 Gaussian 16:  EM64L-G16RevC.01  3-Jul-2019
                27-Feb-2022 
 ******************************************
 %mem=64gb
 %nproc=8
 Will use up to    8 processors via shared memory.
 ----------------------------------------------------------------------
 #P TD(Nstates=10000) wB97XD/Gen SCF(maxcycles=100) Int(Grid=ultrafine)
 ----------------------------------------------------------------------
 1/38=1,172=1/1;
 2/12=2,17=6,18=5,40=1/2;
 3/5=7,11=9,25=1,30=1,74=-58,75=-5/1,2,3,8;
 4//1;
 5/5=2,7=100,38=5/2;
 8/6=1,10=1,108=10000/1;
 9/41=10000,42=1,70=2/14;
 6/7=2,8=2,9=2,10=2/1;
 99/5=1,9=1/99;
 Leave Link    1 at Sun Feb 27 06:42:32 2022, MaxMem=  8589934592 cpu:               0.7 elap:               0.1
 (Enter /home/rr/g16/l101.exe)
 ---------------------
 xGDB7_00001_tier4.com
 ---------------------
 Symbolic Z-matrix:
 Charge =  0 Multiplicity = 1
 6                     0.        0.        0.59732 
 6                     0.        0.       -0.59732 
 1                     0.        0.        1.66134 
 1                     0.        0.       -1.66134 
 
 ITRead=  0  0  0  0
 MicOpt= -1 -1 -1 -1
 NAtoms=      4 NQM=        4 NQMF=       0 NMMI=      0 NMMIF=      0
                NMic=       0 NMicF=      0.
                    Isotopes and Nuclear Properties:
 (Nuclear quadrupole moments (NQMom) in fm**2, nuclear magnetic moments (NMagM)
  in nuclear magnetons)

  Atom         1           2           3           4
 IAtWgt=          12          12           1           1
 AtmWgt=  12.0000000  12.0000000   1.0078250   1.0078250
 NucSpn=           0           0           1           1
 AtZEff=  -0.0000000  -0.0000000  -0.0000000  -0.0000000
 NQMom=    0.0000000   0.0000000   0.0000000   0.0000000
 NMagM=    0.0000000   0.0000000   2.7928460   2.7928460
 AtZNuc=   6.0000000   6.0000000   1.0000000   1.0000000
 Leave Link  101 at Sun Feb 27 06:42:33 2022, MaxMem=  8589934592 cpu:               1.6 elap:               0.2
 (Enter /home/rr/g16/l202.exe)
                          Input orientation:                          
 ---------------------------------------------------------------------
 Center     Atomic      Atomic             Coordinates (Angstroms)
 Number     Number       Type             X           Y           Z
 ---------------------------------------------------------------------
      1          6           0        0.000000    0.000000    0.597322
      2          6           0        0.000000    0.000000   -0.597322
      3          1           0        0.000000    0.000000    1.661338
      4          1           0        0.000000    0.000000   -1.661338
 ---------------------------------------------------------------------
                    Distance matrix (angstroms):
                    1          2          3          4
     1  C    0.000000
     2  C    1.194644   0.000000
     3  H    1.064016   2.258660   0.000000
     4  H    2.258660   1.064016   3.322676   0.000000
 Stoichiometry    C2H2
 Framework group  D*H[C*(HC.CH)]
 Deg. of freedom     2
 Full point group                 D*H     NOp   8
 Largest Abelian subgroup         D2H     NOp   8
 Largest concise Abelian subgroup C2      NOp   2
                         Standard orientation:                         
 ---------------------------------------------------------------------
 Center     Atomic      Atomic             Coordinates (Angstroms)
 Number     Number       Type             X           Y           Z
 ---------------------------------------------------------------------
      1          6           0        0.000000    0.000000    0.597322
      2          6           0        0.000000    0.000000   -0.597322
      3          1           0        0.000000    0.000000    1.661338
      4          1           0        0.000000    0.000000   -1.661338
 ---------------------------------------------------------------------
 Rotational constants (GHZ):           0.0000000          35.7756801          35.7756801
 Leave Link  202 at Sun Feb 27 06:42:34 2022, MaxMem=  8589934592 cpu:               2.5 elap:               0.4
 (Enter /home/rr/g16/l301.exe)
 General basis read from cards:  (5D, 7F)
 Centers:       3      4
 S 3 1.00
     Exponent=  3.4061341000D+01 Coefficients=  6.0251978000D-03
     Exponent=  5.1235746000D+00 Coefficients=  4.5021094000D-02
     Exponent=  1.1646626000D+00 Coefficients=  2.0189726000D-01
 S 1 1.00
     Exponent=  3.2723041000D-01 Coefficients=  1.0000000000D+00
 S 1 1.00
     Exponent=  1.0307241000D-01 Coefficients=  1.0000000000D+00
 P 1 1.00
     Exponent=  8.0000000000D-01 Coefficients=  1.0000000000D+00
 P 1 1.00
     Exponent=  9.5774129632D-02 Coefficients=  1.0000000000D+00
 ****
 Centers:       1      2
 S 6 1.00
     Exponent=  1.3575349682D+04 Coefficients=  2.2245814352D-04
     Exponent=  2.0352333680D+03 Coefficients=  1.7232738252D-03
     Exponent=  4.6322562359D+02 Coefficients=  8.9255715314D-03
     Exponent=  1.3120019598D+02 Coefficients=  3.5727984502D-02
     Exponent=  4.2853015891D+01 Coefficients=  1.1076259931D-01
     Exponent=  1.5584185766D+01 Coefficients=  2.4295627626D-01
 S 2 1.00
     Exponent=  6.2067138508D+00 Coefficients=  4.1440263448D-01
     Exponent=  2.5764896527D+00 Coefficients=  2.3744968655D-01
 S 1 1.00
     Exponent=  5.7696339419D-01 Coefficients=  1.0000000000D+00
 S 1 1.00
     Exponent=  2.2972831358D-01 Coefficients=  1.0000000000D+00
 S 1 1.00
     Exponent=  9.5164440028D-02 Coefficients=  1.0000000000D+00
 S 1 1.00
     Exponent=  4.8475401370D-02 Coefficients=  1.0000000000D+00
 P 4 1.00
     Exponent=  3.4697232244D+01 Coefficients=  5.3333657805D-03
     Exponent=  7.9582622826D+00 Coefficients=  3.5864109092D-02
     Exponent=  2.3780826883D+00 Coefficients=  1.4215873329D-01
     Exponent=  8.1433208183D-01 Coefficients=  3.4270471845D-01
 P 1 1.00
     Exponent=  2.8887547253D-01 Coefficients=  4.6445822433D-01
 P 1 1.00
     Exponent=  1.0056823671D-01 Coefficients=  2.4955789874D-01
 D 1 1.00
     Exponent=  1.0970000000D+00 Coefficients=  1.0000000000D+00
 D 1 1.00
     Exponent=  3.1800000000D-01 Coefficients=  1.0000000000D+00
 D 1 1.00
     Exponent=  9.0985336424D-02 Coefficients=  1.0000000000D+00
 F 1 1.00
     Exponent=  7.6100000000D-01 Coefficients=  1.0000000000D+00
 ****
 Ernie: Thresh=  0.10000D-02 Tol=  0.10000D-05 Strict=F.
 There are    26 symmetry adapted cartesian basis functions of AG  symmetry.
 There are     4 symmetry adapted cartesian basis functions of B1G symmetry.
 There are    11 symmetry adapted cartesian basis functions of B2G symmetry.
 There are    11 symmetry adapted cartesian basis functions of B3G symmetry.
 There are     4 symmetry adapted cartesian basis functions of AU  symmetry.
 There are    26 symmetry adapted cartesian basis functions of B1U symmetry.
 There are    11 symmetry adapted cartesian basis functions of B2U symmetry.
 There are    11 symmetry adapted cartesian basis functions of B3U symmetry.
 There are    22 symmetry adapted basis functions of AG  symmetry.
 There are     4 symmetry adapted basis functions of B1G symmetry.
 There are    10 symmetry adapted basis functions of B2G symmetry.
 There are    10 symmetry adapted basis functions of B3G symmetry.
 There are     4 symmetry adapted basis functions of AU  symmetry.
 There are    22 symmetry adapted basis functions of B1U symmetry.
 There are    10 symmetry adapted basis functions of B2U symmetry.
 There are    10 symmetry adapted basis functions of B3U symmetry.
    92 basis functions,   138 primitive gaussians,   104 cartesian basis functions
     7 alpha electrons        7 beta electrons
       nuclear repulsion energy        24.8852849468 Hartrees.
 IExCor= 4639 DFT=T Ex+Corr=wB97XD ExCW=0 ScaHFX=  1.000000
 ScaDFX=  1.000000  1.000000  1.000000  1.000000 ScalE2=  1.000000  1.000000
 IRadAn=      5 IRanWt=     -1 IRanGd=            0 ICorTp=0 IEmpDi=121
 HFx  wShort=  0.000000 wLong=  0.200000 cFull=  0.222036 cShort=  0.000000 cLong=  0.777964
 DFx  wShort=  0.000000 wLong=  0.200000 cFull=  0.000000 cShort=  0.000000 cLong=  1.000000
 NAtoms=    4 NActive=    4 NUniq=    2 SFac= 4.00D+00 NAtFMM=   60 NAOKFM=F Big=F
 Integral buffers will be    131072 words long.
 Raffenetti 1 integral format.
 Two-electron integral symmetry is turned on.
 R6Disp:  Grimme-D2 Dispersion energy=       -0.0002074479 Hartrees.
 Nuclear repulsion after empirical dispersion term =       24.8850774989 Hartrees.
 Leave Link  301 at Sun Feb 27 06:42:34 2022, MaxMem=  8589934592 cpu:               1.5 elap:               0.3
 (Enter /home/rr/g16/l302.exe)
 NPDir=0 NMtPBC=     1 NCelOv=     1 NCel=       1 NClECP=     1 NCelD=      1
         NCelK=      1 NCelE2=     1 NClLst=     1 CellRange=     0.0.
 One-electron integrals computed using PRISM.
 One-electron integral symmetry used in STVInt
 NBasis=    92 RedAO= T EigKep=  1.16D-06  NBF=    22     4    10    10     4    22    10    10
 NBsUse=    92 1.00D-06 EigRej= -1.00D+00 NBFU=    22     4    10    10     4    22    10    10
 Precomputing XC quadrature grid using
 IXCGrd= 4 IRadAn=           5 IRanWt=          -1 IRanGd=           0 AccXCQ= 0.00D+00.
 Generated NRdTot=       0 NPtTot=           0 NUsed=           0 NTot=          32
 NSgBfM=   104   104   104   104   104 MxSgAt=     4 MxSgA2=     4.
 Leave Link  302 at Sun Feb 27 06:42:35 2022, MaxMem=  8589934592 cpu:               2.5 elap:               0.4
 (Enter /home/rr/g16/l303.exe)
 DipDrv:  MaxL=1.
 Leave Link  303 at Sun Feb 27 06:42:36 2022, MaxMem=  8589934592 cpu:               0.5 elap:               0.2
 (Enter /home/rr/g16/l308.exe)
 Leave Link  308 at Sun Feb 27 06:42:36 2022, MaxMem=  8589934592 cpu:               0.3 elap:               0.1
 (Enter /home/rr/g16/l401.exe)
 ExpMin= 4.85D-02 ExpMax= 1.36D+04 ExpMxC= 4.63D+02 IAcc=3 IRadAn=         5 AccDes= 0.00D+00
 Harris functional with IExCor= 4639 and IRadAn=       5 diagonalized for initial guess.
 HarFok:  IExCor= 4639 AccDes= 0.00D+00 IRadAn=         5 IDoV= 1 UseB2=F ITyADJ=14
 ICtDFT=  3500011 ScaDFX=  1.000000  1.000000  1.000000  1.000000
 FoFCou: FMM=F IPFlag=           0 FMFlag=      100000 FMFlg1=           0
         NFxFlg=           0 DoJE=T BraDBF=F KetDBF=T FulRan=T
         wScrn=  0.000000 ICntrl=       500 IOpCl=  0 I1Cent=   200000004 NGrid=           0
         NMat0=    1 NMatS0=      1 NMatT0=    0 NMatD0=    1 NMtDS0=    0 NMtDT0=    0
 Petite list used in FoFCou.
 Harris En= -73.7733521130332    
 JPrj=0 DoOrth=F DoCkMO=F.
 Initial guess orbital symmetries:
       Occupied  (SGG) (SGU) (SGG) (SGU) (SGG) (PIU) (PIU)
       Virtual   (SGG) (PIG) (PIG) (SGU) (SGG) (SGU) (PIU) (PIU)
                 (DLTG) (DLTG) (PIG) (PIG) (SGG) (SGU) (SGG) (DLTU)
                 (DLTU) (SGU) (PIU) (PIU) (PIG) (PIG) (PIU) (PIU)
                 (SGG) (SGU) (PIG) (PIG) (SGG) (SGU) (SGG) (DLTG)
                 (DLTG) (SGU) (PIU) (PIU) (SGU) (DLTU) (DLTU) (PIG)
                 (PIG) (SGG) (PIU) (PIU) (SGU) (SGG) (PIG) (PIG)
                 (SGU) (SGG) (PIU) (PIU) (SGU) (DLTG) (DLTG) (PHIU)
                 (PHIU) (PIG) (PIG) (SGG) (PIU) (PIU) (SGU) (SGG)
                 (PHIG) (PHIG) (PIG) (PIG) (DLTG) (DLTG) (DLTU)
                 (DLTU) (SGU) (DLTU) (DLTU) (SGG) (PIU) (PIU) (PIG)
                 (PIG) (SGU) (SGU) (SGG) (SGG) (SGU)
 The electronic state of the initial guess is 1-SGG.
 Leave Link  401 at Sun Feb 27 06:42:37 2022, MaxMem=  8589934592 cpu:               3.9 elap:               0.7
 (Enter /home/rr/g16/l502.exe)
 Keep R1 ints in memory in symmetry-blocked form, NReq=26168642.
 FoFCou: FMM=F IPFlag=           0 FMFlag=           0 FMFlg1=           0
         NFxFlg=           0 DoJE=F BraDBF=F KetDBF=F FulRan=T
         wScrn=  0.000000 ICntrl=       600 IOpCl=  0 I1Cent=           0 NGrid=           0
         NMat0=    1 NMatS0=   4278 NMatT0=    0 NMatD0=    1 NMtDS0=    0 NMtDT0=    0
 Petite list used in FoFCou.
 Closed shell SCF:
 Using DIIS extrapolation, IDIIS=  1040.
 NGot=  8589934592 LenX=  8588688169 LenY=  8588676912
 Requested convergence on RMS density matrix=1.00D-08 within 100 cycles.
 Requested convergence on MAX density matrix=1.00D-06.
 Requested convergence on             energy=1.00D-06.
 No special actions if energy rises.

 Cycle   1  Pass 1  IDiag  1:
 E= -77.2984350517936    
 DIIS: error= 6.41D-02 at cycle   1 NSaved=   1.
 NSaved= 1 IEnMin= 1 EnMin= -77.2984350517936     IErMin= 1 ErrMin= 6.41D-02
 ErrMax= 6.41D-02  0.00D+00 EMaxC= 1.00D-01 BMatC= 1.73D-01 BMatP= 1.73D-01
 IDIUse=3 WtCom= 3.59D-01 WtEn= 6.41D-01
 Coeff-Com:  0.100D+01
 Coeff-En:   0.100D+01
 Coeff:      0.100D+01
 Gap=     0.414 Goal=   None    Shift=    0.000
 GapD=    0.414 DampG=2.000 DampE=0.500 DampFc=1.0000 IDamp=-1.
 RMSDP=1.23D-02 MaxDP=3.70D-01              OVMax= 6.84D-02

 Cycle   2  Pass 1  IDiag  1:
 E= -77.3237642087721     Delta-E=       -0.025329156978 Rises=F Damp=F
 DIIS: error= 1.14D-02 at cycle   2 NSaved=   2.
 NSaved= 2 IEnMin= 2 EnMin= -77.3237642087721     IErMin= 2 ErrMin= 1.14D-02
 ErrMax= 1.14D-02  0.00D+00 EMaxC= 1.00D-01 BMatC= 5.02D-03 BMatP= 1.73D-01
 IDIUse=3 WtCom= 8.86D-01 WtEn= 1.14D-01
 Coeff-Com:  0.887D-01 0.911D+00
 Coeff-En:   0.000D+00 0.100D+01
 Coeff:      0.785D-01 0.921D+00
 Gap=     0.476 Goal=   None    Shift=    0.000
 RMSDP=2.29D-03 MaxDP=6.29D-02 DE=-2.53D-02 OVMax= 2.99D-02

 Cycle   3  Pass 1  IDiag  1:
 E= -77.3272854683343     Delta-E=       -0.003521259562 Rises=F Damp=F
 DIIS: error= 5.17D-03 at cycle   3 NSaved=   3.
 NSaved= 3 IEnMin= 3 EnMin= -77.3272854683343     IErMin= 3 ErrMin= 5.17D-03
 ErrMax= 5.17D-03  0.00D+00 EMaxC= 1.00D-01 BMatC= 1.17D-03 BMatP= 5.02D-03
 IDIUse=3 WtCom= 9.48D-01 WtEn= 5.17D-02
 Coeff-Com:  0.223D-01 0.340D+00 0.637D+00
 Coeff-En:   0.000D+00 0.364D-01 0.964D+00
 Coeff:      0.212D-01 0.324D+00 0.654D+00
 Gap=     0.455 Goal=   None    Shift=    0.000
 RMSDP=1.21D-03 MaxDP=3.81D-02 DE=-3.52D-03 OVMax= 1.03D-02

 Cycle   4  Pass 1  IDiag  1:
 E= -77.3283682411068     Delta-E=       -0.001082772773 Rises=F Damp=F
 DIIS: error= 2.34D-04 at cycle   4 NSaved=   4.
 NSaved= 4 IEnMin= 4 EnMin= -77.3283682411068     IErMin= 4 ErrMin= 2.34D-04
 ErrMax= 2.34D-04  0.00D+00 EMaxC= 1.00D-01 BMatC= 2.28D-06 BMatP= 1.17D-03
 IDIUse=3 WtCom= 9.98D-01 WtEn= 2.34D-03
 Coeff-Com: -0.161D-02-0.175D-01 0.764D-02 0.101D+01
 Coeff-En:   0.000D+00 0.000D+00 0.000D+00 0.100D+01
 Coeff:     -0.161D-02-0.175D-01 0.762D-02 0.101D+01
 Gap=     0.455 Goal=   None    Shift=    0.000
 RMSDP=2.73D-04 MaxDP=9.80D-03 DE=-1.08D-03 OVMax= 6.47D-04

 Cycle   5  Pass 1  IDiag  1:
 E= -77.3283711686850     Delta-E=       -0.000002927578 Rises=F Damp=F
 DIIS: error= 2.95D-05 at cycle   5 NSaved=   5.
 NSaved= 5 IEnMin= 5 EnMin= -77.3283711686850     IErMin= 5 ErrMin= 2.95D-05
 ErrMax= 2.95D-05  0.00D+00 EMaxC= 1.00D-01 BMatC= 3.08D-08 BMatP= 2.28D-06
 IDIUse=1 WtCom= 1.00D+00 WtEn= 0.00D+00
 Coeff-Com: -0.380D-03-0.694D-02-0.170D-01-0.614D-01 0.109D+01
 Coeff:     -0.380D-03-0.694D-02-0.170D-01-0.614D-01 0.109D+01
 Gap=     0.455 Goal=   None    Shift=    0.000
 RMSDP=5.84D-05 MaxDP=2.06D-03 DE=-2.93D-06 OVMax= 1.31D-04

 Cycle   6  Pass 1  IDiag  1:
 E= -77.3283712336894     Delta-E=       -0.000000065004 Rises=F Damp=F
 DIIS: error= 3.65D-06 at cycle   6 NSaved=   6.
 NSaved= 6 IEnMin= 6 EnMin= -77.3283712336894     IErMin= 6 ErrMin= 3.65D-06
 ErrMax= 3.65D-06  0.00D+00 EMaxC= 1.00D-01 BMatC= 3.94D-10 BMatP= 3.08D-08
 IDIUse=1 WtCom= 1.00D+00 WtEn= 0.00D+00
 Coeff-Com:  0.640D-04 0.103D-02 0.141D-02-0.183D-01-0.739D-01 0.109D+01
 Coeff:      0.640D-04 0.103D-02 0.141D-02-0.183D-01-0.739D-01 0.109D+01
 Gap=     0.455 Goal=   None    Shift=    0.000
 RMSDP=1.51D-05 MaxDP=5.41D-04 DE=-6.50D-08 OVMax= 1.65D-05

 Cycle   7  Pass 1  IDiag  1:
 E= -77.3283712348120     Delta-E=       -0.000000001123 Rises=F Damp=F
 DIIS: error= 3.93D-07 at cycle   7 NSaved=   7.
 NSaved= 7 IEnMin= 7 EnMin= -77.3283712348120     IErMin= 7 ErrMin= 3.93D-07
 ErrMax= 3.93D-07  0.00D+00 EMaxC= 1.00D-01 BMatC= 5.48D-12 BMatP= 3.94D-10
 IDIUse=1 WtCom= 1.00D+00 WtEn= 0.00D+00
 Coeff-Com: -0.637D-05-0.979D-04-0.916D-04 0.347D-02 0.329D-02-0.205D+00
 Coeff-Com:  0.120D+01
 Coeff:     -0.637D-05-0.979D-04-0.916D-04 0.347D-02 0.329D-02-0.205D+00
 Coeff:      0.120D+01
 Gap=     0.455 Goal=   None    Shift=    0.000
 RMSDP=2.63D-06 MaxDP=9.59D-05 DE=-1.12D-09 OVMax= 1.83D-06

 Cycle   8  Pass 1  IDiag  1:
 E= -77.3283712348269     Delta-E=       -0.000000000015 Rises=F Damp=F
 DIIS: error= 4.25D-08 at cycle   8 NSaved=   8.
 NSaved= 8 IEnMin= 8 EnMin= -77.3283712348269     IErMin= 8 ErrMin= 4.25D-08
 ErrMax= 4.25D-08  0.00D+00 EMaxC= 1.00D-01 BMatC= 5.91D-14 BMatP= 5.48D-12
 IDIUse=1 WtCom= 1.00D+00 WtEn= 0.00D+00
 Coeff-Com:  0.427D-06 0.505D-05 0.209D-05-0.383D-03 0.679D-03 0.172D-01
 Coeff-Com: -0.164D+00 0.115D+01
 Coeff:      0.427D-06 0.505D-05 0.209D-05-0.383D-03 0.679D-03 0.172D-01
 Coeff:     -0.164D+00 0.115D+01
 Gap=     0.455 Goal=   None    Shift=    0.000
 RMSDP=1.75D-07 MaxDP=6.10D-06 DE=-1.49D-11 OVMax= 1.60D-07

 Cycle   9  Pass 1  IDiag  1:
 E= -77.3283712348273     Delta-E=       -0.000000000000 Rises=F Damp=F
 DIIS: error= 5.28D-09 at cycle   9 NSaved=   9.
 NSaved= 9 IEnMin= 9 EnMin= -77.3283712348273     IErMin= 9 ErrMin= 5.28D-09
 ErrMax= 5.28D-09  0.00D+00 EMaxC= 1.00D-01 BMatC= 8.22D-16 BMatP= 5.91D-14
 IDIUse=1 WtCom= 1.00D+00 WtEn= 0.00D+00
 Coeff-Com: -0.188D-07 0.139D-07-0.392D-06 0.197D-04-0.717D-04-0.613D-03
 Coeff-Com:  0.102D-01-0.152D+00 0.114D+01
 Coeff:     -0.188D-07 0.139D-07-0.392D-06 0.197D-04-0.717D-04-0.613D-03
 Coeff:      0.102D-01-0.152D+00 0.114D+01
 Gap=     0.455 Goal=   None    Shift=    0.000
 RMSDP=8.16D-09 MaxDP=1.63D-07 DE=-4.26D-13 OVMax= 2.22D-08

 SCF Done:  E(RwB97XD) =  -77.3283712348     A.U. after    9 cycles
            NFock=  9  Conv=0.82D-08     -V/T= 2.0050
 KE= 7.694061310568D+01 PE=-2.291342111440D+02 EE= 4.998014930453D+01
 Leave Link  502 at Sun Feb 27 06:42:38 2022, MaxMem=  8589934592 cpu:              10.0 elap:               1.4
 (Enter /home/rr/g16/l801.exe)
 DoSCS=F DFT=T ScalE2(SS,OS)=  1.000000  1.000000
 ExpMin= 4.85D-02 ExpMax= 1.36D+04 ExpMxC= 4.63D+02 IAcc=3 IRadAn=         5 AccDes= 0.00D+00
 HarFok:  IExCor=  205 AccDes= 0.00D+00 IRadAn=         5 IDoV=-2 UseB2=F ITyADJ=14
 ICtDFT= 12500011 ScaDFX=  1.000000  1.000000  1.000000  1.000000
 Largest valence mixing into a core orbital is  6.64D-05
 Largest core mixing into a valence orbital is  1.21D-05
 Range of M.O.s used for correlation:     3    92
 NBasis=    92 NAE=     7 NBE=     7 NFC=     2 NFV=     0
 NROrb=     90 NOA=     5 NOB=     5 NVA=    85 NVB=    85

 **** Warning!!: The largest alpha MO coefficient is  0.27749618D+03

 Leave Link  801 at Sun Feb 27 06:42:39 2022, MaxMem=  8589934592 cpu:               0.9 elap:               0.2
 (Enter /home/rr/g16/l914.exe)
 RHF ground state
 Keep R1, R2, and R3 ints in memory in symmetry-blocked form, NReq=397712174.
 FoFCou: FMM=F IPFlag=           0 FMFlag=           0 FMFlg1=           0
         NFxFlg=           0 DoJE=F BraDBF=F KetDBF=F FulRan=T
         wScrn=  0.000000 ICntrl=       600 IOpCl=  0 I1Cent=           0 NGrid=           0
         NMat0=    1 NMatS0=   4278 NMatT0=    0 NMatD0=    1 NMtDS0=    0 NMtDT0=    0
 Petite list used in FoFCou.
 MDV=  8589934592 DFT=T DoStab=F Mixed=T DoRPA=T DoScal=F NonHer=T
 Making orbital integer symmetry assigments:
 Orbital symmetries:
       Occupied  (SGG) (SGU) (SGG) (SGU) (SGG) (PIU) (PIU)
       Virtual   (SGG) (SGU) (PIG) (PIG) (SGG) (SGU) (PIU) (PIU)
                 (DLTG) (DLTG) (PIG) (PIG) (SGG) (SGU) (SGG) (DLTU)
                 (DLTU) (SGU) (PIU) (PIU) (PIG) (PIG) (PIU) (PIU)
                 (SGG) (SGU) (PIG) (PIG) (SGG) (SGU) (SGG) (DLTG)
                 (DLTG) (SGU) (PIU) (PIU) (SGU) (DLTU) (DLTU) (PIG)
                 (PIG) (SGG) (PIU) (PIU) (SGU) (SGG) (PIG) (PIG)
                 (SGU) (PIU) (PIU) (SGG) (SGU) (PIG) (PIG) (DLTG)
                 (DLTG) (PHIU) (PHIU) (SGG) (PIU) (PIU) (SGU) (SGG)
                 (PHIG) (PHIG) (PIG) (PIG) (DLTG) (DLTG) (DLTU)
                 (DLTU) (SGU) (DLTU) (DLTU) (SGG) (PIU) (PIU) (SGU)
                 (PIG) (PIG) (SGU) (SGG) (SGG) (SGU)
   425 initial guesses have been made.
 Convergence on wavefunction:    0.001000000000000
 Davidson Disk Diagonalization:  ConvIn= 1.00D-03 SkipCon=T Conv= 1.00D-03.
 Max sub-space:  2550 roots to seek:   850 dimension of matrix:          850
 *** WARNING: Number of orthogonal guesses is          425
 Iteration     1 Dimension   425 NMult     0 NNew    425
 CISAX will form   425 AO SS matrices at one time.
 NMat=   425 NSing=   425 JSym2X=-1.
 New state      1 was old state      7
 New state      2 was old state      6
 New state      3 was old state      5
 New state      4 was old state      2
 New state      5 was old state      1
 New state      6 was old state      4
 New state      7 was old state      3
 New state      8 was old state     10
 New state     10 was old state      8
 New state     11 was old state     12
 New state     12 was old state     11
 New state     13 was old state     14
 New state     14 was old state     13
 New state     15 was old state     16
 New state     16 was old state     20
 New state     17 was old state     19
 New state     18 was old state     15
 New state     19 was old state     18
 New state     20 was old state     17
 New state     21 was old state     32
 New state     22 was old state     31
 New state     23 was old state     21
 New state     24 was old state     22
 New state     25 was old state     23
 New state     28 was old state     25
 New state     29 was old state     30
 New state     30 was old state     29
 New state     31 was old state     28
 New state     32 was old state     24
 New state     33 was old state     34
 New state     34 was old state     33
 New state     36 was old state     48
 New state     37 was old state     46
 New state     38 was old state     37
 New state     39 was old state     38
 New state     40 was old state     39
 New state     41 was old state     40
 New state     42 was old state     49
 New state     43 was old state     42
 New state     44 was old state     41
 New state     46 was old state     44
 New state     47 was old state     36
 New state     48 was old state     47
 New state     49 was old state     43
 New state     50 was old state     55
 New state     51 was old state     56
 New state     52 was old state     50
 New state     53 was old state     54
 New state     54 was old state     51
 New state     55 was old state     53
 New state     56 was old state     52
 New state     58 was old state     60
 New state     59 was old state     61
 New state     60 was old state     58
 New state     61 was old state     59
 New state     64 was old state     66
 New state     66 was old state     64
 New state     67 was old state     71
 New state     68 was old state     72
 New state     69 was old state     68
 New state     70 was old state     67
 New state     71 was old state     69
 New state     72 was old state     70
 New state     73 was old state     78
 New state     74 was old state     77
 New state     75 was old state     81
 New state     76 was old state     82
 New state     77 was old state     75
 New state     78 was old state     76
 New state     79 was old state     74
 New state     80 was old state     88
 New state     81 was old state     87
 New state     82 was old state     84
 New state     83 was old state     85
 New state     84 was old state     80
 New state     85 was old state     79
 New state     86 was old state     73
 New state     87 was old state     90
 New state     88 was old state     89
 New state     89 was old state     86
 New state     90 was old state     83
 New state     97 was old state    103
 New state     98 was old state    104
 New state    100 was old state     98
 New state    101 was old state    105
 New state    102 was old state    100
 New state    103 was old state     97
 New state    104 was old state    107
 New state    105 was old state    108
 New state    106 was old state    110
 New state    107 was old state    109
 New state    108 was old state    101
 New state    109 was old state    102
 New state    110 was old state    112
 New state    112 was old state    106
 New state    119 was old state    120
 New state    120 was old state    123
 New state    121 was old state    122
 New state    122 was old state    119
 New state    123 was old state    135
 New state    124 was old state    134
 New state    125 was old state    121
 New state    128 was old state    125
 New state    129 was old state    128
 New state    130 was old state    124
 New state    131 was old state    136
 New state    132 was old state    137
 New state    133 was old state    129
 New state    134 was old state    130
 New state    135 was old state    131
 New state    136 was old state    141
 New state    137 was old state    142
 New state    139 was old state    132
 New state    140 was old state    133
 New state    141 was old state    139
 New state    142 was old state    140
 New state    145 was old state    146
 New state    146 was old state    145
 New state    147 was old state    153
 New state    148 was old state    152
 New state    149 was old state    147
 New state    150 was old state    148
 New state    151 was old state    155
 New state    152 was old state    149
 New state    153 was old state    150
 New state    154 was old state    151
 New state    155 was old state    159
 New state    156 was old state    160
 New state    157 was old state    156
 New state    158 was old state    157
 New state    159 was old state    158
 New state    160 was old state    154
 New state    161 was old state    163
 New state    162 was old state    164
 New state    163 was old state    165
 New state    164 was old state    166
 New state    165 was old state    161
 New state    166 was old state    162
 New state    167 was old state    168
 New state    168 was old state    167
 New state    169 was old state    170
 New state    170 was old state    169
 New state    171 was old state    172
 New state    172 was old state    173
 New state    173 was old state    171
 New state    176 was old state    179
 New state    177 was old state    180
 New state    178 was old state    181
 New state    179 was old state    176
 New state    180 was old state    177
 New state    181 was old state    182
 New state    182 was old state    178
 New state    186 was old state    188
 New state    188 was old state    189
 New state    189 was old state    190
 New state    190 was old state    186
 New state    194 was old state    195
 New state    195 was old state    196
 New state    196 was old state    194
 New state    201 was old state    204
 New state    202 was old state    205
 New state    203 was old state    206
 New state    204 was old state    201
 New state    205 was old state    202
 New state    206 was old state    208
 New state    207 was old state    209
 New state    208 was old state    203
 New state    209 was old state    207
 New state    214 was old state    216
 New state    215 was old state    217
 New state    216 was old state    214
 New state    217 was old state    215
 New state    222 was old state    223
 New state    223 was old state    224
 New state    224 was old state    225
 New state    225 was old state    229
 New state    226 was old state    228
 New state    228 was old state    222
 New state    229 was old state    232
 New state    230 was old state    233
 New state    231 was old state    226
 New state    232 was old state    230
 New state    233 was old state    231
 New state    239 was old state    241
 New state    240 was old state    242
 New state    241 was old state    240
 New state    242 was old state    239
 New state    246 was old state    247
 New state    247 was old state    246
 New state    249 was old state    250
 New state    250 was old state    249
 New state    252 was old state    254
 New state    253 was old state    255
 New state    254 was old state    252
 New state    255 was old state    253
 New state    256 was old state    258
 New state    258 was old state    256
 New state    260 was old state    272
 New state    261 was old state    273
 New state    262 was old state    270
 New state    263 was old state    269
 New state    264 was old state    260
 New state    265 was old state    261
 New state    266 was old state    263
 New state    267 was old state    264
 New state    268 was old state    265
 New state    269 was old state    262
 New state    270 was old state    266
 New state    271 was old state    268
 New state    272 was old state    267
 New state    273 was old state    275
 New state    275 was old state    271
 New state    279 was old state    280
 New state    280 was old state    279
 New state    283 was old state    284
 New state    284 was old state    283
 New state    287 was old state    290
 New state    288 was old state    291
 New state    289 was old state    292
 New state    290 was old state    288
 New state    291 was old state    287
 New state    292 was old state    294
 New state    293 was old state    295
 New state    294 was old state    289
 New state    295 was old state    293
 New state    296 was old state    297
 New state    297 was old state    296
 New state    299 was old state    302
 New state    300 was old state    301
 New state    301 was old state    299
 New state    302 was old state    300
 New state    305 was old state    307
 New state    306 was old state    305
 New state    307 was old state    306
 New state    308 was old state    310
 New state    309 was old state    311
 New state    310 was old state    308
 New state    311 was old state    309
 New state    314 was old state    321
 New state    315 was old state    322
 New state    316 was old state    315
 New state    317 was old state    314
 New state    318 was old state    316
 New state    319 was old state    317
 New state    320 was old state    319
 New state    321 was old state    320
 New state    322 was old state    318
 New state    323 was old state    324
 New state    324 was old state    323
 New state    325 was old state    332
 New state    326 was old state    333
 New state    327 was old state    325
 New state    329 was old state    327
 New state    330 was old state    326
 New state    332 was old state    330
 New state    333 was old state    329
 New state    334 was old state    336
 New state    336 was old state    334
 New state    337 was old state    341
 New state    338 was old state    342
 New state    339 was old state    344
 New state    340 was old state    343
 New state    341 was old state    337
 New state    342 was old state    338
 New state    343 was old state    339
 New state    344 was old state    340
 New state    345 was old state    349
 New state    346 was old state    348
 New state    347 was old state    346
 New state    348 was old state    347
 New state    349 was old state    345
 New state    350 was old state    354
 New state    351 was old state    353
 New state    352 was old state    350
 New state    353 was old state    351
 New state    354 was old state    352
 New state    355 was old state    356
 New state    356 was old state    355
 New state    360 was old state    361
 New state    361 was old state    362
 New state    362 was old state    360
 New state    363 was old state    365
 New state    364 was old state    366
 New state    365 was old state    364
 New state    366 was old state    363
 New state    370 was old state    371
 New state    371 was old state    370
 New state    372 was old state    373
 New state    373 was old state    372
 New state    377 was old state    379
 New state    378 was old state    377
 New state    379 was old state    378
 New state    381 was old state    383
 New state    383 was old state    381
 New state    391 was old state    393
 New state    392 was old state    394
 New state    393 was old state    396
 New state    394 was old state    392
 New state    395 was old state    391
 New state    396 was old state    395
 New state    397 was old state    398
 New state    398 was old state    399
 New state    399 was old state    397
 New state    405 was old state    407
 New state    406 was old state    408
 New state    407 was old state    406
 New state    408 was old state    405
 Excitation Energies [eV] at current iteration:
 Root      1 :     6.771192564759746
 Root      2 :     7.017906703154560
 Root      3 :     7.017909153099948
 Root      4 :     8.122300478599030
 Root      5 :     8.122300478599364
 Root      6 :     8.637889024879559
 Root      7 :     8.637889024880103
 Root      8 :     9.738075829803707
 Root      9 :     9.738075829803741
 Root     10 :    10.031172004411840
 Root     11 :    11.255381741484610
 Root     12 :    11.255381741488020
 Root     13 :    11.401746527655310
 Root     14 :    11.401753015677480
 Root     15 :    11.529156764747740
 Root     16 :    12.144087040526100
 Root     17 :    12.144087040526190
 Root     18 :    12.230379628606120
 Root     19 :    12.615356871856650
 Root     20 :    12.615356871857410
 Root     21 :    12.777991007351840
 Root     22 :    12.777991007351880
 Root     23 :    12.905567752523420
 Root     24 :    12.905568321481850
 Root     25 :    12.941796042783230
 Root     26 :    13.626618351326450
 Root     27 :    13.626618351328810
 Root     28 :    13.825655722870890
 Root     29 :    13.941777298072890
 Root     30 :    14.021091709177730
 Root     31 :    14.021091709177780
 Root     32 :    14.601556873022920
 Root     33 :    14.732091470505600
 Root     34 :    14.732091470506300
 Root     35 :    15.208359514632250
 Root     36 :    15.330773726567560
 Root     37 :    15.330775510691890
 Root     38 :    15.414261307805790
 Root     39 :    15.414261307805860
 Root     40 :    15.524728374135000
 Root     41 :    15.524728374135840
 Root     42 :    15.594860292056130
 Root     43 :    15.831034405381290
 Root     44 :    15.831034405385210
 Root     45 :    15.886302996461910
 Root     46 :    15.886302996461950
 Root     47 :    16.176022988504720
 Root     48 :    16.282544486777710
 Root     49 :    16.689205698043590
 Root     50 :    16.954328501617160
 Root     51 :    16.954328501617480
 Root     52 :    16.954895445466080
 Root     53 :    17.024233159786600
 Root     54 :    17.056649240082850
 Root     55 :    17.056649668749050
 Root     56 :    17.160094140729370
 Root     57 :    17.756024483106070
 Root     58 :    17.963649292238720
 Root     59 :    17.963649292240910
 Root     60 :    18.093764780351230
 Root     61 :    18.093765132885320
 Root     62 :    19.007975754998300
 Root     63 :    19.507014531862280
 Root     64 :    19.553419877372090
 Root     65 :    19.553419877373430
 Root     66 :    19.660140009154250
 Root     67 :    19.999271022880020
 Root     68 :    19.999271742043830
 Root     69 :    20.061847076927650
 Root     70 :    20.061853971668860
 Root     71 :    20.216064763589870
 Root     72 :    20.216570061024200
 Root     73 :    20.290152080752860
 Root     74 :    20.290152080753180
 Root     75 :    20.321064352484500
 Root     76 :    20.321064352484530
 Root     77 :    20.753367585314640
 Root     78 :    20.753367585318680
 Root     79 :    21.003869775033520
 Root     80 :    21.391540230548290
 Root     81 :    21.391540230550640
 Root     82 :    21.427574388153090
 Root     83 :    21.427575368234320
 Root     84 :    21.493278321085000
 Root     85 :    21.614235668949580
 Root     86 :    21.701759465669040
 Root     87 :    21.857763769477350
 Root     88 :    21.857763769485680
 Root     89 :    22.041183998996010
 Root     90 :    22.121115767791520
 Root     91 :    22.449206820813520
 Root     92 :    22.449206820837240
 Root     93 :    22.763327395132240
 Root     94 :    22.976010279170090
 Root     95 :    23.289421516325120
 Root     96 :    23.289422547481430
 Root     97 :    23.381347173761480
 Root     98 :    23.381351361115960
 Root     99 :    23.577239428748620
 Root    100 :    23.577239428751600
 Root    101 :    23.678230465182840
 Root    102 :    23.874150662275000
 Root    103 :    23.889978026182190
 Root    104 :    24.080427418502930
 Root    105 :    24.080427418504230
 Root    106 :    24.452804762066500
 Root    107 :    24.452804762074700
 Root    108 :    24.716784010067940
 Root    109 :    24.716784010078520
 Root    110 :    24.740972163147440
 Root    111 :    24.740972163148510
 Root    112 :    25.128530609032790
 Root    113 :    25.320699076899380
 Root    114 :    25.320699302848630
 Root    115 :    25.914850723173220
 Root    116 :    25.914850723174910
 Root    117 :    25.994245295227800
 Root    118 :    25.994245295231000
 Root    119 :    26.153910784764580
 Root    120 :    26.327849675546630
 Root    121 :    26.327849675548580
 Root    122 :    26.751741238404480
 Root    123 :    27.088118163507400
 Root    124 :    27.088118163507550
 Root    125 :    27.122648578388600
 Root    126 :    27.780055460523840
 Root    127 :    27.780055460527490
 Root    128 :    27.872237935940390
 Root    129 :    27.960702109180240
 Root    130 :    28.238409889490570
 Root    131 :    28.417359178157120
 Root    132 :    28.417359178157220
 Root    133 :    28.497320432745460
 Root    134 :    28.497321460095670
 Root    135 :    28.884620705481500
 Root    136 :    29.406592180807830
 Root    137 :    29.406592180835540
 Root    138 :    29.417909428655660
 Root    139 :    29.490086305332410
 Root    140 :    29.490086305333160
 Root    141 :    30.025879558092390
 Root    142 :    30.025879558120160
 Root    143 :    30.211470468093090
 Root    144 :    30.390424036543830
 Root    145 :    30.672675254087430
 Root    146 :    30.672675254088690
 Root    147 :    31.444794421522730
 Root    148 :    31.444799605348420
 Root    149 :    31.529194060387570
 Root    150 :    31.529194060416160
 Root    151 :    31.572202024882000
 Root    152 :    31.993179995277440
 Root    153 :    32.147955963916900
 Root    154 :    32.660753762445360
 Root    155 :    33.106191113350080
 Root    156 :    33.106193212199460
 Root    157 :    33.230602443584200
 Root    158 :    33.230602443591610
 Root    159 :    33.327055789387790
 Root    160 :    33.694847386082040
 Root    161 :    33.738862822080940
 Root    162 :    33.738862822083440
 Root    163 :    34.233706108677190
 Root    164 :    34.233706108677270
 Root    165 :    34.596667579713650
 Root    166 :    34.920717026523750
 Root    167 :    35.184893423695560
 Root    168 :    35.184893423695900
 Root    169 :    35.268993421537830
 Root    170 :    35.268994081226150
 Root    171 :    36.673618707109590
 Root    172 :    36.673618707138370
 Root    173 :    36.725275642979670
 Root    174 :    37.417741253204370
 Root    175 :    37.793275866467490
 Root    176 :    37.919963245211870
 Root    177 :    37.919969010609710
 Root    178 :    38.170001637944080
 Root    179 :    38.257989897237740
 Root    180 :    38.257989897239310
 Root    181 :    38.415127932280260
 Root    182 :    38.713270507876010
 Root    183 :    39.331973279652230
 Root    184 :    40.021827458457060
 Root    185 :    40.021827458457900
 Root    186 :    40.354328422985900
 Root    187 :    40.354328964440460
 Root    188 :    40.421846786589510
 Root    189 :    40.421849346760350
 Root    190 :    40.980372826799410
 Root    191 :    41.920255465584630
 Root    192 :    42.584047657574710
 Root    193 :    42.584048169733730
 Root    194 :    43.387654266693410
 Root    195 :    43.387654266694010
 Root    196 :    43.710019697661440
 Root    197 :    44.164267370819250
 Root    198 :    44.164267370831190
 Root    199 :    44.776164185420300
 Root    200 :    44.776164185420890
 Root    201 :    45.498068901554830
 Root    202 :    45.498115422157770
 Root    203 :    46.032406139810280
 Root    204 :    46.166225001380750
 Root    205 :    46.166225001392510
 Root    206 :    47.361481249116910
 Root    207 :    47.361483375769620
 Root    208 :    47.631866403552790
 Root    209 :    47.965051172017710
 Root    210 :    50.060017022527620
 Root    211 :    50.966682984374590
 Root    212 :    50.966682984387230
 Root    213 :    51.536774549546470
 Root    214 :    51.675236267865610
 Root    215 :    51.675236267865920
 Root    216 :    51.800161706365600
 Root    217 :    51.800161706368350
 Root    218 :    52.891421753216660
 Root    219 :    52.891421753217100
 Root    220 :    53.874160354098290
 Root    221 :    53.874160354098710
 Root    222 :    55.358343677490230
 Root    223 :    55.358374713971880
 Root    224 :    55.964258581930660
 Root    225 :    56.110442436389850
 Root    226 :    56.390136802266960
 Root    227 :    56.390136802267160
 Root    228 :    56.687356277158100
 Root    229 :    58.482903783160080
 Root    230 :    58.482903783161530
 Root    231 :    58.657464662549110
 Root    232 :    58.947930073990650
 Root    233 :    59.795174822963670
 Root    234 :    60.669610182971550
 Root    235 :    61.154070438530300
 Root    236 :    61.154078063204590
 Root    237 :    61.314725227506830
 Root    238 :    61.496986141766790
 Root    239 :    61.534656483671980
 Root    240 :    61.534656483686230
 Root    241 :    61.662886987127950
 Root    242 :    61.662886987128620
 Root    243 :    63.024723255312700
 Root    244 :    63.694862799741170
 Root    245 :    63.694862799754400
 Root    246 :    64.729131150647180
 Root    247 :    65.009002101079760
 Root    248 :    66.071897435254940
 Root    249 :    66.658956978276340
 Root    250 :    66.658956978276340
 Root    251 :    67.849126911193390
 Root    252 :    68.108414925603180
 Root    253 :    68.108414925609820
 Root    254 :    68.593362300168950
 Root    255 :    68.593362300170230
 Root    256 :    69.270118423082750
 Root    257 :    69.270118423087250
 Root    258 :    69.759447226545730
 Root    259 :    70.309355967711140
 Root    260 :    73.618768769260380
 Root    261 :    73.618809691274280
 Root    262 :    73.670952279884790
 Root    263 :    73.670952279884890
 Root    264 :    73.756661410360880
 Root    265 :    73.866891872459220
 Root    266 :    73.866895646418330
 Root    267 :    74.049564538426210
 Root    268 :    74.049564538426250
 Root    269 :    74.166053380102920
 Root    270 :    74.856252107391880
 Root    271 :    75.078054828861210
 Root    272 :    75.078054828861210
 Root    273 :    75.099371554778390
 Root    274 :    75.099374213718550
 Root    275 :    75.450730856460590
 Root    276 :    77.233442592451740
 Root    277 :    79.384276008175050
 Root    278 :    79.384276008175950
 Root    279 :    79.935084326557630
 Root    280 :    79.935084326558060
 Root    281 :    80.042818078710430
 Root    282 :    80.042897946555730
 Root    283 :    80.206225585692210
 Root    284 :    80.206225585692270
 Root    285 :    81.389738969433110
 Root    286 :    81.389738969437560
 Root    287 :    81.409488470791350
 Root    288 :    81.409593695280800
 Root    289 :    81.826163856203320
 Root    290 :    82.017485725770360
 Root    291 :    82.017495408916400
 Root    292 :    82.252035641732660
 Root    293 :    82.252035641732800
 Root    294 :    82.254639644498380
 Root    295 :    82.966206244600980
 Root    296 :    84.623450084580000
 Root    297 :    84.623450084581680
 Root    298 :    84.655418820723570
 Root    299 :    84.938161639649720
 Root    300 :    84.938202309478260
 Root    301 :    85.953835716576710
 Root    302 :    85.953835716576930
 Root    303 :    86.005360366509170
 Root    304 :    86.005363007264220
 Root    305 :    86.209185375391670
 Root    306 :    86.790599742724980
 Root    307 :    86.790599742728300
 Root    308 :    86.832058677742750
 Root    309 :    86.832058677742950
 Root    310 :    86.962292297844840
 Root    311 :    86.962375592440110
 Root    312 :    88.030029004418540
 Root    313 :    88.030029004418710
 Root    314 :    89.052645776090190
 Root    315 :    89.052645776090320
 Root    316 :    89.070090373667430
 Root    317 :    89.070122391053690
 Root    318 :    89.384233867836540
 Root    319 :    89.644214479585070
 Root    320 :    89.929824933455010
 Root    321 :    89.929824933455140
 Root    322 :    90.547431372264370
 Root    323 :    90.949104525928230
 Root    324 :    90.949104525928480
 Root    325 :    91.399761545219820
 Root    326 :    91.399761545219850
 Root    327 :    91.584349866739900
 Root    328 :    91.712056578609080
 Root    329 :    91.712056578609360
 Root    330 :    92.306919453565270
 Root    331 :    92.616259928390990
 Root    332 :    92.616259928390990
 Root    333 :    93.264388202835250
 Root    334 :    93.831353805868160
 Root    335 :    93.831353805868300
 Root    336 :    93.839732830639050
 Root    337 :    94.957173417508710
 Root    338 :    94.957173417509030
 Root    339 :    95.105144975377580
 Root    340 :    95.105164941255080
 Root    341 :    95.203719839480510
 Root    342 :    95.203719839482460
 Root    343 :    95.694947273406560
 Root    344 :    95.694947273407610
 Root    345 :    96.650429170830410
 Root    346 :    96.650537819165040
 Root    347 :    97.324961363608750
 Root    348 :    97.324961363611440
 Root    349 :    97.618406603567990
 Root    350 :    98.231501924225160
 Root    351 :    98.231501924225310
 Root    352 :    98.533870019472670
 Root    353 :    98.533901422187740
 Root    354 :    99.092027959167140
 Root    355 :    99.915027030118890
 Root    356 :    99.915090292311130
 Root    357 :   100.897760537103100
 Root    358 :   102.108460014673000
 Root    359 :   102.108460014675700
 Root    360 :   102.335220044026900
 Root    361 :   102.335265060876000
 Root    362 :   102.845553173233300
 Root    363 :   103.129692239973500
 Root    364 :   103.129692239973800
 Root    365 :   103.837109374169400
 Root    366 :   103.837109374169600
 Root    367 :   104.608434880316200
 Root    368 :   104.608456370140300
 Root    369 :   108.331587673118400
 Root    370 :   108.843787022619600
 Root    371 :   108.843787022619600
 Root    372 :   109.446855197017600
 Root    373 :   109.446882543937800
 Root    374 :   111.241640662555200
 Root    375 :   111.241687073522500
 Root    376 :   111.724561124441500
 Root    377 :   111.794440271750300
 Root    378 :   111.794442116341200
 Root    379 :   111.967470209298900
 Root    380 :   114.549338458466100
 Root    381 :   116.159513769752700
 Root    382 :   116.159566082970000
 Root    383 :   116.287405875738700
 Root    384 :   117.654826223661000
 Root    385 :   117.654826223661200
 Root    386 :   119.787833243577200
 Root    387 :   119.787833243577800
 Root    388 :   121.811867981833000
 Root    389 :   124.381393575589200
 Root    390 :   124.381393575589900
 Root    391 :   134.734585530973000
 Root    392 :   134.734754787693800
 Root    393 :   134.932530466235300
 Root    394 :   135.508634969900300
 Root    395 :   135.508634969900300
 Root    396 :   135.526019102407600
 Root    397 :   140.934805390719800
 Root    398 :   140.934805390722300
 Root    399 :   141.283001129456000
 Root    400 :   141.983707551119600
 Root    401 :   141.983707551123100
 Root    402 :   143.099598341090600
 Root    403 :   143.268118261137500
 Root    404 :   143.268118261140400
 Root    405 :   147.527421382253300
 Root    406 :   147.527421382255400
 Root    407 :   148.166788361026100
 Root    408 :   148.712231193750500
 Root    409 :   149.890150641996900
 Root    410 :   155.442585481288900
 Root    411 :   155.570004260169200
 Root    412 :   155.570004260170100
 Root    413 :   161.627756081671000
 Root    414 :   163.509435642559900
 Root    415 :   168.674249431690300
 Root    416 :   609.652502744285400
 Root    417 :   609.652502744286600
 Root    418 :   615.500004511223300
 Root    419 :   618.397849815855600
 Root    420 :   623.219294429620000
 Root    421 :   627.460759244957700
 Root    422 :   627.460759244957800
 Root    423 :   633.458528022217800
 Root    424 :   636.394814541919100
 Root    425 :   640.976521399922600
 Convergence achieved for final wavefunctions.
 ***********************************************************************
 Excited states from <AA,BB:AA,BB> singles matrix:
 ***********************************************************************
 
 1PDM for each excited state written to RWF  633
 Ground to excited state transition densities written to RWF  633
 Ground to excited state transition electric dipole moments (Au):
       state          X           Y           Z        Dip. S.      Osc.
         1        -0.0000     -0.0000     -0.0000      0.0000      0.0000
         2        -0.0000      0.0000     -0.0000      0.0000      0.0000
         3         0.0000     -0.0000      0.0000      0.0000      0.0000
         4        -0.0336      0.7491      0.0000      0.5623      0.1119
         5         0.7491      0.0336      0.0000      0.5623      0.1119
         6         0.0000      0.0000      0.0000      0.0000      0.0000
         7         0.0000     -0.0000      0.0000      0.0000      0.0000
         8         0.2850      0.2915      0.0000      0.1662      0.0397
         9         0.2915     -0.2850     -0.0000      0.1662      0.0397
        10        -0.0000     -0.0000      1.7462      3.0493      0.7494
        11         0.0000     -0.0000      0.0000      0.0000      0.0000
        12        -0.0000     -0.0000     -0.0000      0.0000      0.0000
        13        -0.0000     -0.0000      0.0000      0.0000      0.0000
        14        -0.0000     -0.0000     -0.0000      0.0000      0.0000
        15         0.0000     -0.0000     -0.0000      0.0000      0.0000
        16         0.0000      0.0000     -0.0000      0.0000      0.0000
        17         0.0000     -0.0000      0.0000      0.0000      0.0000
        18        -0.0000      0.0000      0.0000      0.0000      0.0000
        19        -0.9876      0.2811      0.0000      1.0545      0.3259
        20        -0.2811     -0.9876     -0.0000      1.0545      0.3259
        21         0.0000     -0.0000      0.0000      0.0000      0.0000
        22        -0.0000     -0.0000     -0.0000      0.0000      0.0000
        23         0.0000     -0.0000     -0.0000      0.0000      0.0000
        24         0.0000      0.0000      0.0000      0.0000      0.0000
        25        -0.0000      0.0000     -0.0000      0.0000      0.0000
        26        -0.5243      0.0073     -0.0000      0.2750      0.0918
        27        -0.0073     -0.5243      0.0000      0.2750      0.0918
        28        -0.0000      0.0000      0.0000      0.0000      0.0000
        29        -0.0000     -0.0000     -1.1708      1.3707      0.4682
        30        -0.0000      0.0000      0.0000      0.0000      0.0000
        31        -0.0000     -0.0000      0.0000      0.0000      0.0000
        32        -0.0000     -0.0000     -0.2370      0.0562      0.0201
        33         0.0033     -0.2488     -0.0000      0.0619      0.0224
        34        -0.2488     -0.0033      0.0000      0.0619      0.0224
        35        -0.0000     -0.0000      0.0000      0.0000      0.0000
        36        -0.0000      0.0000      0.0000      0.0000      0.0000
        37         0.0000     -0.0000      0.0000      0.0000      0.0000
        38        -0.0000      0.0000     -0.0000      0.0000      0.0000
        39         0.0000     -0.0000     -0.0000      0.0000      0.0000
        40        -0.0000      0.0000      0.0000      0.0000      0.0000
        41        -0.0000      0.0000      0.0000      0.0000      0.0000
        42         0.0000     -0.0000      0.0000      0.0000      0.0000
        43        -0.0000      0.0000      0.0000      0.0000      0.0000
        44        -0.0000     -0.0000     -0.0000      0.0000      0.0000
        45         0.5789      0.9232     -0.0000      1.1873      0.4621
        46         0.9232     -0.5789      0.0000      1.1873      0.4621
        47        -0.0000     -0.0000     -0.3022      0.0913      0.0362
        48        -0.0000     -0.0000     -0.0000      0.0000      0.0000
        49         0.0000      0.0000     -0.0000      0.0000      0.0000
        50         0.0185     -0.4319     -0.0000      0.1869      0.0776
        51        -0.4319     -0.0185     -0.0000      0.1869      0.0776
        52        -0.0000      0.0000     -0.4161      0.1731      0.0719
        53         0.0000      0.0000      1.0068      1.0136      0.4228
        54        -0.0000     -0.0000     -0.0000      0.0000      0.0000
        55        -0.0000      0.0000     -0.0000      0.0000      0.0000
        56        -0.0000      0.0000      0.0000      0.0000      0.0000
        57        -0.0000      0.0000      0.2992      0.0895      0.0389
        58        -0.0000      0.0000     -0.0000      0.0000      0.0000
        59         0.0000     -0.0000     -0.0000      0.0000      0.0000
        60        -0.0000     -0.0000      0.0000      0.0000      0.0000
        61        -0.0000      0.0000      0.0000      0.0000      0.0000
        62         0.0000      0.0000      0.0000      0.0000      0.0000
        63        -0.0000      0.0000     -0.0000      0.0000      0.0000
        64        -0.0000     -0.0000      0.0000      0.0000      0.0000
        65        -0.0000     -0.0000     -0.0000      0.0000      0.0000
        66         0.0000     -0.0000      0.8571      0.7347      0.3539
        67        -0.0000      0.0000     -0.0000      0.0000      0.0000
        68         0.0000      0.0000      0.0000      0.0000      0.0000
        69        -0.0000     -0.0000     -0.0000      0.0000      0.0000
        70         0.0000     -0.0000      0.0000      0.0000      0.0000
        71        -0.0000     -0.0000     -0.0000      0.0000      0.0000
        72        -0.0000      0.0000     -0.0000      0.0000      0.0000
        73        -0.0144      0.1955     -0.0000      0.0384      0.0191
        74         0.1955      0.0144      0.0000      0.0384      0.0191
        75        -0.0000     -0.0000     -0.0000      0.0000      0.0000
        76        -0.0000      0.0000      0.0000      0.0000      0.0000
        77        -0.0023      0.0005     -0.0000      0.0000      0.0000
        78        -0.0005     -0.0023     -0.0000      0.0000      0.0000
        79        -0.0000      0.0000     -0.0000      0.0000      0.0000
        80         0.2352      0.0272      0.0000      0.0561      0.0294
        81        -0.0272      0.2352     -0.0000      0.0561      0.0294
        82         0.0000      0.0000      0.0000      0.0000      0.0000
        83         0.0000      0.0000      0.0000      0.0000      0.0000
        84        -0.0000     -0.0000      0.2972      0.0883      0.0465
        85         0.0000      0.0000      0.1426      0.0203      0.0108
        86         0.0000     -0.0000     -0.0000      0.0000      0.0000
        87        -0.0000     -0.0000      0.0000      0.0000      0.0000
        88        -0.0000      0.0000     -0.0000      0.0000      0.0000
        89         0.0000     -0.0000     -0.4129      0.1705      0.0921
        90        -0.0000     -0.0000      0.0000      0.0000      0.0000
        91         0.0000     -0.0000      0.0000      0.0000      0.0000
        92         0.0000     -0.0000     -0.0000      0.0000      0.0000
        93         0.0000      0.0000     -0.3999      0.1599      0.0892
        94         0.0000     -0.0000      0.0000      0.0000      0.0000
        95        -0.0000      0.0000     -0.0000      0.0000      0.0000
        96        -0.0000      0.0000      0.0000      0.0000      0.0000
        97        -0.0000     -0.0000     -0.0000      0.0000      0.0000
        98        -0.0000      0.0000      0.0000      0.0000      0.0000
        99        -0.0000     -0.0000      0.0000      0.0000      0.0000
       100         0.0000      0.0000     -0.0000      0.0000      0.0000
       101        -0.0000      0.0000     -0.0000      0.0000      0.0000
       102        -0.0000      0.0000     -0.2317      0.0537      0.0314
       103         0.0000     -0.0000     -0.0000      0.0000      0.0000
       104         0.1540      0.1233      0.0000      0.0389      0.0230
       105        -0.1233      0.1540      0.0000      0.0389      0.0230
       106        -0.0376      0.0163     -0.0000      0.0017      0.0010
       107        -0.0163     -0.0376      0.0000      0.0017      0.0010
       108         0.1744      0.0070     -0.0000      0.0305      0.0184
       109        -0.0070      0.1744      0.0000      0.0305      0.0184
       110         0.0000     -0.0000      0.0000      0.0000      0.0000
       111         0.0000      0.0000      0.0000      0.0000      0.0000
       112         0.0000     -0.0000      0.0556      0.0031      0.0019
       113         0.0000      0.0000     -0.0000      0.0000      0.0000
       114        -0.0000      0.0000     -0.0000      0.0000      0.0000
       115        -0.1512     -0.2851      0.0000      0.1041      0.0661
       116        -0.2851      0.1512     -0.0000      0.1041      0.0661
       117         0.0000     -0.0000     -0.0000      0.0000      0.0000
       118         0.0000      0.0000     -0.0000      0.0000      0.0000
       119        -0.0000     -0.0000     -0.0000      0.0000      0.0000
       120        -0.0274      0.1072     -0.0000      0.0122      0.0079
       121         0.1072      0.0274      0.0000      0.0122      0.0079
       122        -0.0000     -0.0000     -0.0000      0.0000      0.0000
       123         0.0000      0.0000      0.0000      0.0000      0.0000
       124         0.0000     -0.0000     -0.0000      0.0000      0.0000
       125         0.0000     -0.0000      0.0494      0.0024      0.0016
       126         0.0000      0.0000     -0.0000      0.0000      0.0000
       127         0.0000     -0.0000     -0.0000      0.0000      0.0000
       128        -0.0000      0.0000     -0.0000      0.0000      0.0000
       129         0.0000     -0.0000      0.2615      0.0684      0.0469
       130         0.0000      0.0000      0.4411      0.1946      0.1346
       131         0.1621     -0.3105      0.0000      0.1227      0.0854
       132        -0.3105     -0.1621     -0.0000      0.1227      0.0854
       133        -0.0000      0.0000      0.0000      0.0000      0.0000
       134        -0.0000     -0.0000      0.0000      0.0000      0.0000
       135        -0.0000      0.0000      0.1876      0.0352      0.0249
       136         0.0000     -0.0000      0.0000      0.0000      0.0000
       137         0.0000      0.0000      0.0000      0.0000      0.0000
       138        -0.0000     -0.0000     -0.0000      0.0000      0.0000
       139        -0.9616      0.1836     -0.0000      0.9584      0.6924
       140         0.1836      0.9616      0.0000      0.9584      0.6924
       141         0.0000      0.0000      0.0000      0.0000      0.0000
       142         0.0000     -0.0000      0.0000      0.0000      0.0000
       143         0.0000     -0.0000     -0.0000      0.0000      0.0000
       144         0.0000     -0.0000      0.2387      0.0570      0.0424
       145        -0.0000      0.0000      0.0000      0.0000      0.0000
       146        -0.0000     -0.0000     -0.0000      0.0000      0.0000
       147         0.0000      0.0000     -0.0000      0.0000      0.0000
       148         0.0000     -0.0000      0.0000      0.0000      0.0000
       149        -0.1000     -0.0043     -0.0000      0.0100      0.0077
       150         0.0043     -0.1000      0.0000      0.0100      0.0077
       151         0.0000     -0.0000      0.0000      0.0000      0.0000
       152        -0.0000      0.0000     -0.0576      0.0033      0.0026
       153        -0.0000     -0.0000      0.0000      0.0000      0.0000
       154        -0.0000     -0.0000      0.0000      0.0000      0.0000
       155        -0.0000     -0.0000      0.0000      0.0000      0.0000
       156        -0.0000     -0.0000      0.0000      0.0000      0.0000
       157        -0.0123      0.0676      0.0000      0.0047      0.0038
       158         0.0676      0.0123      0.0000      0.0047      0.0038
       159         0.0000      0.0000     -0.0000      0.0000      0.0000
       160         0.0000      0.0000     -0.0000      0.0000      0.0000
       161         0.0000      0.0000     -0.0000      0.0000      0.0000
       162         0.0000      0.0000      0.0000      0.0000      0.0000
       163         0.0000     -0.0000      0.0000      0.0000      0.0000
       164        -0.0000      0.0000      0.0000      0.0000      0.0000
       165        -0.0000     -0.0000      0.2977      0.0886      0.0751
       166         0.0000     -0.0000     -0.1709      0.0292      0.0250
       167        -0.0000      0.0000      0.0000      0.0000      0.0000
       168        -0.0000      0.0000      0.0000      0.0000      0.0000
       169         0.0000      0.0000     -0.0000      0.0000      0.0000
       170        -0.0000     -0.0000      0.0000      0.0000      0.0000
       171        -0.0000      0.0000      0.0000      0.0000      0.0000
       172         0.0000      0.0000     -0.0000      0.0000      0.0000
       173         0.0000     -0.0000      0.0116      0.0001      0.0001
       174        -0.0000      0.0000     -0.0000      0.0000      0.0000
       175         0.0000     -0.0000     -0.0738      0.0055      0.0050
       176         0.0000     -0.0000      0.0000      0.0000      0.0000
       177        -0.0000     -0.0000     -0.0000      0.0000      0.0000
       178        -0.0000     -0.0000      0.0000      0.0000      0.0000
       179         0.1159      0.7268      0.0000      0.5417      0.5077
       180         0.7268     -0.1159      0.0000      0.5417      0.5077
       181         0.0000     -0.0000      0.3262      0.1064      0.1001
       182        -0.0000     -0.0000     -0.0000      0.0000      0.0000
       183        -0.0000     -0.0000     -0.0000      0.0000      0.0000
       184         0.0000      0.0000      0.0000      0.0000      0.0000
       185         0.0000      0.0000     -0.0000      0.0000      0.0000
       186         0.0000      0.0000     -0.0000      0.0000      0.0000
       187         0.0000      0.0000     -0.0000      0.0000      0.0000
       188        -0.0000     -0.0000     -0.0000      0.0000      0.0000
       189        -0.0000      0.0000     -0.0000      0.0000      0.0000
       190         0.0000     -0.0000     -0.1554      0.0242      0.0242
       191        -0.0000      0.0000      0.0000      0.0000      0.0000
       192        -0.0000      0.0000      0.0000      0.0000      0.0000
       193        -0.0000     -0.0000      0.0000      0.0000      0.0000
       194         0.2530     -0.1199      0.0000      0.0784      0.0833
       195         0.1199      0.2530     -0.0000      0.0784      0.0833
       196         0.0000      0.0000     -0.1950      0.0380      0.0407
       197        -0.0000      0.0000      0.0000      0.0000      0.0000
       198        -0.0000      0.0000     -0.0000      0.0000      0.0000
       199        -0.0332     -0.0636      0.0000      0.0051      0.0056
       200        -0.0636      0.0332      0.0000      0.0051      0.0056
       201         0.0000      0.0000     -0.0000      0.0000      0.0000
       202        -0.0000      0.0000      0.0000      0.0000      0.0000
       203        -0.0000     -0.0000     -0.0000      0.0000      0.0000
       204         0.3375     -0.0008     -0.0000      0.1139      0.1288
       205         0.0008      0.3375      0.0000      0.1139      0.1288
       206         0.0000      0.0000     -0.0000      0.0000      0.0000
       207        -0.0000      0.0000     -0.0000      0.0000      0.0000
       208         0.0000      0.0000      0.3491      0.1219      0.1422
       209        -0.0000      0.0000      0.0000      0.0000      0.0000
       210        -0.0000      0.0000     -0.0000      0.0000      0.0000
       211         0.0000     -0.0000     -0.0000      0.0000      0.0000
       212        -0.0000      0.0000     -0.0000      0.0000      0.0000
       213        -0.0000     -0.0000     -0.1085      0.0118      0.0149
       214         0.0024      0.0023      0.0000      0.0000      0.0000
       215        -0.0023      0.0024     -0.0000      0.0000      0.0000
       216        -0.0000     -0.0000     -0.0000      0.0000      0.0000
       217        -0.0000      0.0000      0.0000      0.0000      0.0000
       218        -0.0966     -0.0201      0.0000      0.0097      0.0126
       219         0.0201     -0.0966      0.0000      0.0097      0.0126
       220        -0.0000     -0.0000     -0.0000      0.0000      0.0000
       221         0.0000     -0.0000     -0.0000      0.0000      0.0000
       222        -0.0000      0.0000      0.0000      0.0000      0.0000
       223         0.0000      0.0000      0.0000      0.0000      0.0000
       224         0.0000     -0.0000     -0.0000      0.0000      0.0000
       225         0.0000     -0.0000      0.0098      0.0001      0.0001
       226         0.0000      0.0000      0.0000      0.0000      0.0000
       227        -0.0000      0.0000     -0.0000      0.0000      0.0000
       228        -0.0000      0.0000     -0.0000      0.0000      0.0000
       229         0.3228     -0.0328     -0.0000      0.1053      0.1508
       230         0.0328      0.3228      0.0000      0.1053      0.1508
       231         0.0000     -0.0000      0.0114      0.0001      0.0002
       232        -0.0000     -0.0000     -0.0000      0.0000      0.0000
       233        -0.0000      0.0000     -0.0000      0.0000      0.0000
       234         0.0000     -0.0000     -0.1732      0.0300      0.0446
       235         0.0000     -0.0000      0.0000      0.0000      0.0000
       236         0.0000     -0.0000      0.0000      0.0000      0.0000
       237         0.0000     -0.0000      0.0000      0.0000      0.0000
       238         0.0000     -0.0000      0.0000      0.0000      0.0000
       239        -0.0000      0.0000     -0.0000      0.0000      0.0000
       240        -0.0000      0.0000     -0.0000      0.0000      0.0000
       241        -0.0147     -0.0274     -0.0000      0.0010      0.0015
       242        -0.0274      0.0147      0.0000      0.0010      0.0015
       243         0.0000      0.0000     -0.0107      0.0001      0.0002
       244         0.1208     -0.0001     -0.0000      0.0146      0.0228
       245         0.0001      0.1208      0.0000      0.0146      0.0228
       246        -0.0000     -0.0000      0.0000      0.0000      0.0000
       247         0.0000     -0.0000     -0.1645      0.0271      0.0431
       248        -0.0000      0.0000     -0.0000      0.0000      0.0000
       249         0.0658     -0.0733     -0.0000      0.0097      0.0158
       250        -0.0733     -0.0658      0.0000      0.0097      0.0158
       251        -0.0000     -0.0000      0.0000      0.0000      0.0000
       252        -0.0000      0.0000     -0.0000      0.0000      0.0000
       253        -0.0000      0.0000      0.0000      0.0000      0.0000
       254         0.0000      0.0000      0.0000      0.0000      0.0000
       255        -0.0000      0.0000      0.0000      0.0000      0.0000
       256         0.0000     -0.0000     -0.0000      0.0000      0.0000
       257        -0.0000     -0.0000     -0.0000      0.0000      0.0000
       258         0.0000     -0.0000      0.0363      0.0013      0.0022
       259         0.0000     -0.0000     -0.0587      0.0034      0.0059
       260         0.0000     -0.0000     -0.0000      0.0000      0.0000
       261         0.0000     -0.0000     -0.0000      0.0000      0.0000
       262        -0.0000      0.0000     -0.0000      0.0000      0.0000
       263        -0.0000     -0.0000      0.0000      0.0000      0.0000
       264         0.0000      0.0000     -0.0179      0.0003      0.0006
       265        -0.0000     -0.0000     -0.0000      0.0000      0.0000
       266        -0.0000     -0.0000      0.0000      0.0000      0.0000
       267        -0.0587      0.0413      0.0000      0.0052      0.0093
       268        -0.0413     -0.0587     -0.0000      0.0052      0.0093
       269        -0.0000     -0.0000     -0.0000      0.0000      0.0000
       270        -0.0000      0.0000      0.0000      0.0000      0.0000
       271        -0.0135      0.0883      0.0000      0.0080      0.0147
       272         0.0883      0.0135      0.0000      0.0080      0.0147
       273        -0.0000     -0.0000      0.0000      0.0000      0.0000
       274         0.0000     -0.0000     -0.0000      0.0000      0.0000
       275         0.0000     -0.0000      0.0443      0.0020      0.0036
       276        -0.0000      0.0000      0.0000      0.0000      0.0000
       277         0.0000      0.0000     -0.0000      0.0000      0.0000
       278         0.0000      0.0000      0.0000      0.0000      0.0000
       279         0.0038     -0.0174     -0.0000      0.0003      0.0006
       280        -0.0174     -0.0038      0.0000      0.0003      0.0006
       281        -0.0000      0.0000     -0.0000      0.0000      0.0000
       282        -0.0000      0.0000     -0.0000      0.0000      0.0000
       283        -0.0000     -0.0000     -0.0000      0.0000      0.0000
       284         0.0000     -0.0000      0.0000      0.0000      0.0000
       285         0.0831      0.0004     -0.0000      0.0069      0.0138
       286        -0.0004      0.0831     -0.0000      0.0069      0.0138
       287         0.0000      0.0000     -0.0000      0.0000      0.0000
       288        -0.0000     -0.0000      0.0000      0.0000      0.0000
       289         0.0000      0.0000     -0.0000      0.0000      0.0000
       290        -0.0000     -0.0000     -0.0000      0.0000      0.0000
       291         0.0000      0.0000     -0.0000      0.0000      0.0000
       292        -0.0000     -0.0000      0.0000      0.0000      0.0000
       293         0.0000     -0.0000      0.0000      0.0000      0.0000
       294         0.0000     -0.0000     -0.1167      0.0136      0.0274
       295        -0.0000      0.0000     -0.0000      0.0000      0.0000
       296        -0.0000     -0.0000      0.0000      0.0000      0.0000
       297        -0.0000      0.0000      0.0000      0.0000      0.0000
       298         0.0000      0.0000     -0.0000      0.0000      0.0000
       299        -0.0000     -0.0000      0.0000      0.0000      0.0000
       300         0.0000      0.0000      0.0000      0.0000      0.0000
       301        -0.0322     -0.0016     -0.0000      0.0010      0.0022
       302         0.0016     -0.0322      0.0000      0.0010      0.0022
       303        -0.0000     -0.0000     -0.0000      0.0000      0.0000
       304         0.0000     -0.0000     -0.0000      0.0000      0.0000
       305         0.0000      0.0000     -0.0278      0.0008      0.0016
       306         0.0000      0.0000      0.0000      0.0000      0.0000
       307        -0.0000      0.0000     -0.0000      0.0000      0.0000
       308        -0.0000     -0.0000     -0.0000      0.0000      0.0000
       309        -0.0000      0.0000      0.0000      0.0000      0.0000
       310        -0.0000      0.0000     -0.0000      0.0000      0.0000
       311        -0.0000     -0.0000     -0.0000      0.0000      0.0000
       312        -0.0917     -0.0200     -0.0000      0.0088      0.0190
       313         0.0200     -0.0917     -0.0000      0.0088      0.0190
       314         0.0000     -0.0000     -0.0000      0.0000      0.0000
       315        -0.0000     -0.0000      0.0000      0.0000      0.0000
       316         0.0000     -0.0000      0.0000      0.0000      0.0000
       317        -0.0000     -0.0000     -0.0000      0.0000      0.0000
       318        -0.0000     -0.0000     -0.0000      0.0000      0.0000
       319         0.0000      0.0000     -0.1273      0.0162      0.0356
       320        -0.0000     -0.0000     -0.0000      0.0000      0.0000
       321        -0.0000     -0.0000     -0.0000      0.0000      0.0000
       322         0.0000      0.0000      0.0230      0.0005      0.0012
       323        -0.2533      0.0565      0.0000      0.0674      0.1501
       324         0.0565      0.2533     -0.0000      0.0674      0.1501
       325         0.0000      0.0000      0.0000      0.0000      0.0000
       326        -0.0000      0.0000      0.0000      0.0000      0.0000
       327         0.0000      0.0000     -0.0000      0.0000      0.0000
       328        -0.0000      0.0000     -0.0000      0.0000      0.0000
       329         0.0000     -0.0000     -0.0000      0.0000      0.0000
       330         0.0000     -0.0000     -0.0000      0.0000      0.0000
       331         0.0000     -0.0000      0.0000      0.0000      0.0000
       332         0.0000     -0.0000      0.0000      0.0000      0.0000
       333         0.0000      0.0000      0.0000      0.0000      0.0000
       334        -0.0000     -0.0000     -0.0000      0.0000      0.0000
       335        -0.0000      0.0000      0.0000      0.0000      0.0000
       336        -0.0000      0.0000      0.0896      0.0080      0.0185
       337         0.1336     -0.0296      0.0000      0.0187      0.0435
       338         0.0296      0.1336     -0.0000      0.0187      0.0435
       339        -0.0000     -0.0000     -0.0000      0.0000      0.0000
       340         0.0000      0.0000      0.0000      0.0000      0.0000
       341        -0.0000     -0.0000     -0.0000      0.0000      0.0000
       342        -0.0000     -0.0000     -0.0000      0.0000      0.0000
       343         0.0000     -0.0000     -0.0000      0.0000      0.0000
       344        -0.0000     -0.0000     -0.0000      0.0000      0.0000
       345         0.0000     -0.0000     -0.0000      0.0000      0.0000
       346        -0.0000     -0.0000      0.0000      0.0000      0.0000
       347        -0.0591     -0.0161     -0.0000      0.0038      0.0089
       348         0.0161     -0.0591     -0.0000      0.0038      0.0089
       349        -0.0000      0.0000      0.0524      0.0028      0.0066
       350        -0.0000     -0.0000     -0.0000      0.0000      0.0000
       351         0.0000      0.0000     -0.0000      0.0000      0.0000
       352         0.0000      0.0000      0.0000      0.0000      0.0000
       353         0.0000     -0.0000      0.0000      0.0000      0.0000
       354        -0.0000      0.0000      0.0000      0.0000      0.0000
       355        -0.0000     -0.0000      0.0000      0.0000      0.0000
       356        -0.0000     -0.0000     -0.0000      0.0000      0.0000
       357        -0.0000      0.0000      0.0082      0.0001      0.0002
       358         0.0000     -0.0000     -0.0000      0.0000      0.0000
       359         0.0000     -0.0000      0.0000      0.0000      0.0000
       360        -0.0000     -0.0000      0.0000      0.0000      0.0000
       361        -0.0000      0.0000     -0.0000      0.0000      0.0000
       362        -0.0000     -0.0000      0.0000      0.0000      0.0000
       363        -0.0000     -0.0000     -0.0000      0.0000      0.0000
       364        -0.0000     -0.0000     -0.0000      0.0000      0.0000
       365        -0.0000      0.0000     -0.0000      0.0000      0.0000
       366         0.0000     -0.0000     -0.0000      0.0000      0.0000
       367        -0.0000     -0.0000      0.0000      0.0000      0.0000
       368         0.0000      0.0000     -0.0000      0.0000      0.0000
       369         0.0000     -0.0000      0.0326      0.0011      0.0028
       370        -0.0351      0.0399      0.0000      0.0028      0.0075
[...]
               356           357           358           359           360 
      1  -0.736566D+02 -0.736204D+02 -0.735760D+02 -0.735760D+02 -0.735676D+02
      2   0.000000D+00  0.000000D+00  0.000000D+00  0.000000D+00  0.000000D+00
      3   0.000000D+00  0.000000D+00  0.000000D+00  0.000000D+00  0.000000D+00
      4   0.000000D+00  0.818325D-02  0.000000D+00  0.000000D+00  0.000000D+00
      5   0.000000D+00  0.000000D+00  0.000000D+00  0.000000D+00  0.000000D+00
      6   0.000000D+00  0.000000D+00  0.000000D+00  0.000000D+00  0.000000D+00
      7   0.000000D+00 -0.237939D-01  0.000000D+00  0.000000D+00  0.000000D+00
      8   0.000000D+00  0.000000D+00 -0.519171D-01  0.161106D+00  0.000000D+00
      9   0.000000D+00  0.000000D+00 -0.161106D+00 -0.519171D-01  0.000000D+00
     10   0.000000D+00  0.000000D+00  0.000000D+00  0.000000D+00  0.000000D+00
     11  -0.466000D-01  0.000000D+00  0.000000D+00  0.000000D+00 -0.253866D-01
     12   0.466000D-01  0.000000D+00  0.000000D+00  0.000000D+00  0.253866D-01
     13   0.000000D+00  0.000000D+00  0.000000D+00  0.000000D+00  0.000000D+00
     14   0.000000D+00  0.000000D+00  0.000000D+00  0.000000D+00  0.000000D+00
     15   0.000000D+00  0.000000D+00 -0.394942D+00 -0.127272D+00  0.000000D+00
     16   0.000000D+00  0.000000D+00  0.127272D+00 -0.394942D+00  0.000000D+00
               361           362           363           364           365 
      1  -0.735676D+02 -0.735489D+02 -0.735384D+02 -0.735384D+02 -0.735124D+02
      2   0.000000D+00  0.000000D+00  0.000000D+00  0.000000D+00  0.000000D+00
      3   0.000000D+00  0.000000D+00  0.000000D+00  0.000000D+00  0.000000D+00
      4   0.000000D+00  0.000000D+00  0.000000D+00  0.000000D+00  0.000000D+00
      5   0.000000D+00  0.000000D+00  0.000000D+00  0.000000D+00  0.000000D+00
      6   0.000000D+00  0.000000D+00  0.000000D+00  0.000000D+00  0.000000D+00
      7   0.000000D+00  0.000000D+00  0.000000D+00  0.000000D+00  0.000000D+00
      8   0.000000D+00  0.000000D+00  0.000000D+00  0.000000D+00  0.101785D+00
      9   0.000000D+00  0.000000D+00  0.000000D+00  0.000000D+00 -0.208097D+00
     10   0.000000D+00  0.000000D+00  0.000000D+00  0.000000D+00  0.000000D+00
     11   0.000000D+00  0.116997D+00  0.000000D+00  0.000000D+00  0.000000D+00
     12   0.000000D+00  0.116997D+00  0.000000D+00  0.000000D+00  0.000000D+00
     13   0.000000D+00  0.232629D+00  0.000000D+00  0.000000D+00  0.000000D+00
     14  -0.253877D-01  0.000000D+00  0.000000D+00  0.000000D+00  0.000000D+00
     15   0.000000D+00  0.000000D+00 -0.224750D-05 -0.153116D-05  0.274381D+00
     16   0.000000D+00  0.000000D+00  0.153116D-05 -0.224750D-05  0.134206D+00
               366           367           368           369           370 
      1  -0.735124D+02 -0.734841D+02 -0.734841D+02 -0.733473D+02 -0.733284D+02
      2   0.000000D+00  0.000000D+00  0.000000D+00  0.000000D+00 -0.350676D-01
      3   0.000000D+00  0.000000D+00  0.000000D+00  0.000000D+00  0.399143D-01
      4   0.000000D+00  0.000000D+00  0.000000D+00  0.325521D-01  0.000000D+00
      5   0.000000D+00  0.000000D+00  0.000000D+00  0.000000D+00  0.132202D+00
      6   0.000000D+00  0.000000D+00  0.000000D+00  0.000000D+00 -0.150473D+00
      7   0.000000D+00  0.000000D+00  0.000000D+00 -0.100693D+00  0.000000D+00
      8   0.208097D+00  0.000000D+00  0.000000D+00  0.000000D+00  0.000000D+00
      9   0.101785D+00  0.000000D+00  0.000000D+00  0.000000D+00  0.000000D+00
     10   0.000000D+00  0.000000D+00  0.000000D+00  0.000000D+00  0.000000D+00
     11   0.000000D+00  0.000000D+00  0.000000D+00  0.000000D+00  0.000000D+00
     12   0.000000D+00  0.000000D+00  0.000000D+00  0.000000D+00  0.000000D+00
     13   0.000000D+00  0.000000D+00  0.000000D+00  0.000000D+00  0.000000D+00
     14   0.000000D+00  0.000000D+00  0.000000D+00  0.000000D+00  0.000000D+00
     15  -0.134206D+00  0.000000D+00  0.000000D+00  0.000000D+00  0.000000D+00
     16   0.274381D+00  0.000000D+00  0.000000D+00  0.000000D+00  0.000000D+00
               371           372           373           374           375 
      1  -0.733284D+02 -0.733063D+02 -0.733063D+02 -0.732403D+02 -0.732403D+02
      2   0.399143D-01  0.000000D+00  0.000000D+00  0.000000D+00  0.000000D+00
      3   0.350676D-01  0.000000D+00  0.000000D+00  0.000000D+00  0.000000D+00
      4   0.000000D+00  0.000000D+00  0.000000D+00  0.000000D+00  0.000000D+00
      5  -0.150473D+00  0.000000D+00  0.000000D+00  0.000000D+00  0.000000D+00
      6  -0.132202D+00  0.000000D+00  0.000000D+00  0.000000D+00  0.000000D+00
      7   0.000000D+00  0.000000D+00  0.000000D+00  0.000000D+00  0.000000D+00
      8   0.000000D+00  0.000000D+00  0.000000D+00  0.000000D+00  0.000000D+00
      9   0.000000D+00  0.000000D+00  0.000000D+00  0.000000D+00  0.000000D+00
     10   0.000000D+00  0.000000D+00  0.000000D+00  0.000000D+00  0.000000D+00
     11   0.000000D+00  0.000000D+00  0.000000D+00  0.000000D+00  0.143033D+00
     12   0.000000D+00  0.000000D+00  0.000000D+00  0.000000D+00 -0.143033D+00
     13   0.000000D+00  0.000000D+00  0.000000D+00  0.000000D+00  0.000000D+00
     14   0.000000D+00  0.000000D+00  0.000000D+00  0.143032D+00  0.000000D+00
     15   0.000000D+00  0.000000D+00  0.000000D+00  0.000000D+00  0.000000D+00
     16   0.000000D+00  0.000000D+00  0.000000D+00  0.000000D+00  0.000000D+00
               376           377           378           379           380 
      1  -0.732226D+02 -0.732200D+02 -0.732200D+02 -0.732136D+02 -0.731188D+02
      2   0.000000D+00  0.000000D+00  0.000000D+00  0.000000D+00  0.000000D+00
      3   0.000000D+00  0.000000D+00  0.000000D+00  0.000000D+00  0.000000D+00
      4   0.000000D+00  0.000000D+00  0.000000D+00  0.000000D+00  0.000000D+00
      5   0.000000D+00  0.000000D+00  0.000000D+00  0.000000D+00  0.000000D+00
      6   0.000000D+00  0.000000D+00  0.000000D+00  0.000000D+00  0.000000D+00
      7   0.000000D+00  0.000000D+00  0.000000D+00  0.000000D+00  0.000000D+00
      8   0.000000D+00  0.000000D+00  0.000000D+00  0.000000D+00  0.000000D+00
      9   0.000000D+00  0.000000D+00  0.000000D+00  0.000000D+00  0.000000D+00
     10   0.000000D+00  0.000000D+00  0.000000D+00  0.000000D+00  0.000000D+00
     11  -0.319255D+00  0.387035D+00  0.000000D+00  0.000000D+00 -0.194444D-01
     12  -0.319255D+00 -0.387035D+00  0.000000D+00  0.000000D+00 -0.194444D-01
     13   0.106129D+01  0.000000D+00  0.000000D+00  0.000000D+00  0.125993D+01
     14   0.000000D+00  0.000000D+00  0.387036D+00  0.000000D+00  0.000000D+00
     15   0.000000D+00  0.000000D+00  0.000000D+00  0.000000D+00  0.000000D+00
     16   0.000000D+00  0.000000D+00  0.000000D+00  0.000000D+00  0.000000D+00
               381           382           383           384           385 
      1  -0.730596D+02 -0.730596D+02 -0.730549D+02 -0.730046D+02 -0.730046D+02
      2   0.000000D+00  0.000000D+00  0.000000D+00 -0.163618D-01  0.128142D-01
      3   0.000000D+00  0.000000D+00  0.000000D+00 -0.128142D-01 -0.163618D-01
      4   0.000000D+00  0.000000D+00 -0.639062D-03  0.000000D+00  0.000000D+00
      5   0.000000D+00  0.000000D+00  0.000000D+00  0.923602D-01 -0.723344D-01
      6   0.000000D+00  0.000000D+00  0.000000D+00  0.723344D-01  0.923602D-01
      7   0.000000D+00  0.000000D+00  0.332574D-01  0.000000D+00  0.000000D+00
      8   0.000000D+00  0.000000D+00  0.000000D+00  0.000000D+00  0.000000D+00
      9   0.000000D+00  0.000000D+00  0.000000D+00  0.000000D+00  0.000000D+00
     10   0.000000D+00  0.000000D+00  0.000000D+00  0.000000D+00  0.000000D+00
     11   0.000000D+00  0.000000D+00  0.000000D+00  0.000000D+00  0.000000D+00
     12   0.000000D+00  0.000000D+00  0.000000D+00  0.000000D+00  0.000000D+00
     13   0.000000D+00  0.000000D+00  0.000000D+00  0.000000D+00  0.000000D+00
     14   0.000000D+00  0.000000D+00  0.000000D+00  0.000000D+00  0.000000D+00
     15   0.000000D+00  0.000000D+00  0.000000D+00  0.000000D+00  0.000000D+00
     16   0.000000D+00  0.000000D+00  0.000000D+00  0.000000D+00  0.000000D+00
               386           387           388           389           390 
      1  -0.729262D+02 -0.729262D+02 -0.728519D+02 -0.727574D+02 -0.727574D+02
      2   0.000000D+00  0.000000D+00  0.000000D+00 -0.346790D-01  0.918888D-02
      3   0.000000D+00  0.000000D+00  0.000000D+00 -0.918888D-02 -0.346790D-01
      4   0.000000D+00  0.000000D+00  0.000000D+00  0.000000D+00  0.000000D+00
      5   0.000000D+00  0.000000D+00  0.000000D+00  0.180439D+00 -0.478109D-01
      6   0.000000D+00  0.000000D+00  0.000000D+00  0.478109D-01  0.180439D+00
      7   0.000000D+00  0.000000D+00  0.000000D+00  0.000000D+00  0.000000D+00
      8  -0.127653D+00 -0.200724D+00  0.000000D+00  0.000000D+00  0.000000D+00
      9   0.200724D+00 -0.127653D+00  0.000000D+00  0.000000D+00  0.000000D+00
     10   0.000000D+00  0.000000D+00  0.000000D+00  0.000000D+00  0.000000D+00
     11   0.000000D+00  0.000000D+00  0.618608D-01  0.000000D+00  0.000000D+00
     12   0.000000D+00  0.000000D+00  0.618608D-01  0.000000D+00  0.000000D+00
     13   0.000000D+00  0.000000D+00 -0.101163D+01  0.000000D+00  0.000000D+00
     14   0.000000D+00  0.000000D+00  0.000000D+00  0.000000D+00  0.000000D+00
     15   0.241044D+00 -0.153295D+00  0.000000D+00  0.000000D+00  0.000000D+00
     16   0.153295D+00  0.241044D+00  0.000000D+00  0.000000D+00  0.000000D+00
               391           392           393           394           395 
      1  -0.723770D+02 -0.723770D+02 -0.723697D+02 -0.723485D+02 -0.723485D+02
      2   0.000000D+00  0.000000D+00  0.000000D+00  0.000000D+00  0.000000D+00
      3   0.000000D+00  0.000000D+00  0.000000D+00  0.000000D+00  0.000000D+00
      4   0.000000D+00  0.000000D+00 -0.829647D-01  0.000000D+00  0.000000D+00
      5   0.000000D+00  0.000000D+00  0.000000D+00  0.000000D+00  0.000000D+00
      6   0.000000D+00  0.000000D+00  0.000000D+00  0.000000D+00  0.000000D+00
      7   0.000000D+00  0.000000D+00  0.397790D+00  0.000000D+00  0.000000D+00
      8   0.000000D+00  0.000000D+00  0.000000D+00 -0.194534D+00 -0.138147D+00
      9   0.000000D+00  0.000000D+00  0.000000D+00 -0.138147D+00  0.194534D+00
     10   0.000000D+00  0.000000D+00  0.000000D+00  0.000000D+00  0.000000D+00
     11   0.000000D+00  0.000000D+00  0.000000D+00  0.000000D+00  0.000000D+00
     12   0.000000D+00  0.000000D+00  0.000000D+00  0.000000D+00  0.000000D+00
     13   0.000000D+00  0.000000D+00  0.000000D+00  0.000000D+00  0.000000D+00
     14   0.000000D+00  0.000000D+00  0.000000D+00  0.000000D+00  0.000000D+00
     15   0.000000D+00  0.000000D+00  0.000000D+00 -0.229432D+00  0.323078D+00
     16   0.000000D+00  0.000000D+00  0.000000D+00  0.323078D+00  0.229432D+00
               396           397           398           399           400 
      1  -0.723479D+02 -0.721491D+02 -0.721491D+02 -0.721363D+02 -0.721106D+02
      2   0.000000D+00  0.000000D+00  0.000000D+00  0.000000D+00  0.000000D+00
      3   0.000000D+00  0.000000D+00  0.000000D+00  0.000000D+00  0.000000D+00
      4   0.000000D+00  0.000000D+00  0.000000D+00  0.465774D-01  0.000000D+00
      5   0.000000D+00  0.000000D+00  0.000000D+00  0.000000D+00  0.000000D+00
      6   0.000000D+00  0.000000D+00  0.000000D+00  0.000000D+00  0.000000D+00
      7   0.000000D+00  0.000000D+00  0.000000D+00 -0.274020D+00  0.000000D+00
      8   0.000000D+00  0.494611D-01 -0.160508D+00  0.000000D+00 -0.115242D-01
      9   0.000000D+00  0.160508D+00  0.494611D-01  0.000000D+00  0.281870D+00
     10   0.000000D+00  0.000000D+00  0.000000D+00  0.000000D+00  0.000000D+00
     11   0.000000D+00  0.000000D+00  0.000000D+00  0.000000D+00  0.000000D+00
     12   0.000000D+00  0.000000D+00  0.000000D+00  0.000000D+00  0.000000D+00
     13   0.000000D+00  0.000000D+00  0.000000D+00  0.000000D+00  0.000000D+00
     14   0.000000D+00  0.000000D+00  0.000000D+00  0.000000D+00  0.000000D+00
     15   0.000000D+00  0.189206D+00  0.583044D-01  0.000000D+00  0.156001D+00
     16   0.000000D+00 -0.583044D-01  0.189206D+00  0.000000D+00  0.637806D-02
               401           402           403           404           405 
      1  -0.721106D+02 -0.720696D+02 -0.720634D+02 -0.720634D+02 -0.719068D+02
      2   0.000000D+00  0.000000D+00 -0.544858D-01 -0.387062D-02  0.000000D+00
      3   0.000000D+00  0.000000D+00  0.387062D-02 -0.544858D-01  0.000000D+00
      4   0.000000D+00  0.000000D+00  0.000000D+00  0.000000D+00  0.000000D+00
      5   0.000000D+00  0.000000D+00  0.224109D+00  0.159205D-01  0.000000D+00
      6   0.000000D+00  0.000000D+00 -0.159205D-01  0.224109D+00  0.000000D+00
      7   0.000000D+00  0.000000D+00  0.000000D+00  0.000000D+00  0.000000D+00
      8  -0.281870D+00  0.000000D+00  0.000000D+00  0.000000D+00  0.525494D-02
      9  -0.115242D-01  0.000000D+00  0.000000D+00  0.000000D+00  0.116896D-01
     10   0.000000D+00  0.000000D+00  0.000000D+00  0.000000D+00  0.000000D+00
     11   0.000000D+00  0.103272D+00  0.000000D+00  0.000000D+00  0.000000D+00
     12   0.000000D+00  0.103272D+00  0.000000D+00  0.000000D+00  0.000000D+00
     13   0.000000D+00 -0.380570D+00  0.000000D+00  0.000000D+00  0.000000D+00
     14   0.000000D+00  0.000000D+00  0.000000D+00  0.000000D+00  0.000000D+00
     15  -0.637806D-02  0.000000D+00  0.000000D+00  0.000000D+00 -0.717843D-01
     16   0.156001D+00  0.000000D+00  0.000000D+00  0.000000D+00  0.322700D-01
               406           407           408           409           410 
      1  -0.719068D+02 -0.718833D+02 -0.718633D+02 -0.718200D+02 -0.716160D+02
      2   0.000000D+00  0.000000D+00  0.000000D+00  0.000000D+00  0.000000D+00
      3   0.000000D+00  0.000000D+00  0.000000D+00  0.000000D+00  0.000000D+00
      4   0.000000D+00  0.120283D-01  0.517282D-01  0.000000D+00  0.583569D-01
      5   0.000000D+00  0.000000D+00  0.000000D+00  0.000000D+00  0.000000D+00
      6   0.000000D+00  0.000000D+00  0.000000D+00  0.000000D+00  0.000000D+00
      7   0.000000D+00 -0.646010D-01 -0.273111D+00  0.000000D+00 -0.302522D+00
      8  -0.116896D-01  0.000000D+00  0.000000D+00  0.000000D+00  0.000000D+00
      9   0.525494D-02  0.000000D+00  0.000000D+00  0.000000D+00  0.000000D+00
     10   0.000000D+00  0.000000D+00  0.000000D+00  0.000000D+00  0.000000D+00
     11   0.000000D+00  0.000000D+00  0.000000D+00 -0.370916D-01  0.000000D+00
     12   0.000000D+00  0.000000D+00  0.000000D+00 -0.370916D-01  0.000000D+00
     13   0.000000D+00  0.000000D+00  0.000000D+00 -0.890393D+00  0.000000D+00
     14   0.000000D+00  0.000000D+00  0.000000D+00  0.000000D+00  0.000000D+00
     15  -0.322700D-01  0.000000D+00  0.000000D+00  0.000000D+00  0.000000D+00
     16  -0.717843D-01  0.000000D+00  0.000000D+00  0.000000D+00  0.000000D+00
               411           412           413           414           415 
      1  -0.716113D+02 -0.716113D+02 -0.713887D+02 -0.713195D+02 -0.711297D+02
      2  -0.381735D-02 -0.178133D-03  0.000000D+00  0.000000D+00  0.000000D+00
      3   0.178133D-03 -0.381735D-02  0.000000D+00  0.000000D+00  0.000000D+00
      4   0.000000D+00  0.000000D+00  0.000000D+00  0.277917D-01  0.000000D+00
      5   0.490406D-02  0.228843D-03  0.000000D+00  0.000000D+00  0.000000D+00
      6  -0.228843D-03  0.490406D-02  0.000000D+00  0.000000D+00  0.000000D+00
      7   0.000000D+00  0.000000D+00  0.000000D+00 -0.218707D+00  0.000000D+00
      8   0.000000D+00  0.000000D+00  0.000000D+00  0.000000D+00  0.000000D+00
      9   0.000000D+00  0.000000D+00  0.000000D+00  0.000000D+00  0.000000D+00
     10   0.000000D+00  0.000000D+00  0.000000D+00  0.000000D+00  0.000000D+00
     11   0.000000D+00  0.000000D+00  0.193309D+00  0.000000D+00 -0.172518D-01
     12   0.000000D+00  0.000000D+00  0.193309D+00  0.000000D+00 -0.172518D-01
     13   0.000000D+00  0.000000D+00 -0.128668D+00  0.000000D+00 -0.760596D+00
     14   0.000000D+00  0.000000D+00  0.000000D+00  0.000000D+00  0.000000D+00
     15   0.000000D+00  0.000000D+00  0.000000D+00  0.000000D+00  0.000000D+00
     16   0.000000D+00  0.000000D+00  0.000000D+00  0.000000D+00  0.000000D+00
               416           417           418           419           420 
      1  -0.549241D+02 -0.549241D+02 -0.547092D+02 -0.546027D+02 -0.544255D+02
      2   0.172093D-01  0.275469D-02  0.000000D+00  0.000000D+00  0.000000D+00
      3  -0.275469D-02  0.172093D-01  0.000000D+00  0.000000D+00  0.000000D+00
      4   0.000000D+00  0.000000D+00  0.000000D+00  0.125329D-01  0.000000D+00
      5  -0.195742D+00 -0.313324D-01  0.000000D+00  0.000000D+00  0.000000D+00
      6   0.313324D-01 -0.195742D+00  0.000000D+00  0.000000D+00  0.000000D+00
      7   0.000000D+00  0.000000D+00  0.000000D+00 -0.134611D+00  0.000000D+00
      8   0.000000D+00  0.000000D+00  0.000000D+00  0.000000D+00  0.000000D+00
      9   0.000000D+00  0.000000D+00  0.000000D+00  0.000000D+00  0.000000D+00
     10   0.000000D+00  0.000000D+00  0.000000D+00  0.000000D+00  0.000000D+00
     11   0.000000D+00  0.000000D+00  0.455845D-01  0.000000D+00 -0.249949D+00
     12   0.000000D+00  0.000000D+00  0.455845D-01  0.000000D+00 -0.249949D+00
     13   0.000000D+00  0.000000D+00 -0.480292D+00  0.000000D+00 -0.213012D+00
     14   0.000000D+00  0.000000D+00  0.000000D+00  0.000000D+00  0.000000D+00
     15   0.000000D+00  0.000000D+00  0.000000D+00  0.000000D+00  0.000000D+00
     16   0.000000D+00  0.000000D+00  0.000000D+00  0.000000D+00  0.000000D+00
               421           422           423           424           425 
      1  -0.542696D+02 -0.542696D+02 -0.540492D+02 -0.539413D+02 -0.537729D+02
      2   0.000000D+00  0.000000D+00  0.000000D+00  0.000000D+00  0.000000D+00
      3   0.000000D+00  0.000000D+00  0.000000D+00  0.000000D+00  0.000000D+00
      4   0.000000D+00  0.000000D+00 -0.158651D-01  0.000000D+00 -0.699530D-02
      5   0.000000D+00  0.000000D+00  0.000000D+00  0.000000D+00  0.000000D+00
      6   0.000000D+00  0.000000D+00  0.000000D+00  0.000000D+00  0.000000D+00
      7   0.000000D+00  0.000000D+00  0.197351D+00  0.000000D+00  0.173155D-01
      8  -0.374425D-01 -0.193310D+00  0.000000D+00  0.000000D+00  0.000000D+00
      9   0.193310D+00 -0.374425D-01  0.000000D+00  0.000000D+00  0.000000D+00
     10   0.000000D+00  0.000000D+00  0.000000D+00  0.000000D+00  0.000000D+00
     11   0.000000D+00  0.000000D+00  0.000000D+00  0.141311D+00  0.000000D+00
     12   0.000000D+00  0.000000D+00  0.000000D+00  0.141311D+00  0.000000D+00
     13   0.000000D+00  0.000000D+00  0.000000D+00  0.524354D+00  0.000000D+00
     14   0.000000D+00  0.000000D+00  0.000000D+00  0.000000D+00  0.000000D+00
     15   0.192453D+00 -0.372764D-01  0.000000D+00  0.000000D+00  0.000000D+00
     16   0.372764D-01  0.192453D+00  0.000000D+00  0.000000D+00  0.000000D+00
 Unable to Open any file for archive entry.
 1\1\GINC-HEL18\SP\RwB97XD TD-FC\Gen\C2H2\RR\27-Feb-2022\0\\#P TD(Nstat
 es=10000) wB97XD/Gen SCF(maxcycles=100) Int(Grid=ultrafine)\\xGDB7_000
 01_tier4.com\\0,1\C,0,0.,0.,0.597322\C,0,0.,0.,-0.597322\H,0,0.,0.,1.6
 61338\H,0,0.,0.,-1.661338\\Version=EM64L-G16RevC.01\State=1-SGG\HF=-77
 .3283712\RMSD=8.162e-09\PG=D*H [C*(H1C1.C1H1)]\\@
 The archive entry for this job was punched.


 IT WAS A GAME, A VERY INTERESTING GAME ONE COULD
 PLAY.  WHENEVER ONE SOLVED ONE OF THE LITTLE PROBLEMS,
 ONE COULD WRITE A PAPER ABOUT IT.  IT WAS VERY EASY IN
 THOSE DAYS FOR ANY SECOND-RATE PHYSICIST TO DO
 FIRST-RATE WORK.  THERE HAS NOT BEEN SUCH A GLORIOUS
 TIME SINCE.  IT IS VERY DIFFICULT NOW FOR A FIRST-RATE
 PHYSICIST TO DO SECOND-RATE WORK.
     P.A.M. DIRAC, ON THE EARLY DAYS OF QUANTUM MECHANICS
                   DIRECTIONS IN PHYSICS, 1978, P. 7
 Job cpu time:       0 days  0 hours  2 minutes 42.9 seconds.
 Elapsed time:       0 days  0 hours  0 minutes 21.5 seconds.
 File lengths (MBytes):  RWF=    246 Int=      0 D2E=      0 Chk=     82 Scr=      1
 Normal termination of Gaussian 16 at Sun Feb 27 06:42:56 2022.
