 Entering Gaussian System, Link 0=g16
 Input=bigQM7w_TDwB97XD_def2TZVP_000026.com
 Output=bigQM7w_TDwB97XD_def2TZVP_000026.log
 Initial command:
 /home/rr/g16/l1.exe "/scratch/rr/PBS_7918679.helios/Gau-12907.inp" -scrdir="/scratch/rr/PBS_7918679.helios/"
 Entering Link 1 = /home/rr/g16/l1.exe PID=     12909.
  
 Copyright (c) 1988-2019, Gaussian, Inc.  All Rights Reserved.
  
 This is part of the Gaussian(R) 16 program.  It is based on
 the Gaussian(R) 09 system (copyright 2009, Gaussian, Inc.),
 the Gaussian(R) 03 system (copyright 2003, Gaussian, Inc.),
 the Gaussian(R) 98 system (copyright 1998, Gaussian, Inc.),
 the Gaussian(R) 94 system (copyright 1995, Gaussian, Inc.),
 the Gaussian 92(TM) system (copyright 1992, Gaussian, Inc.),
 the Gaussian 90(TM) system (copyright 1990, Gaussian, Inc.),
 the Gaussian 88(TM) system (copyright 1988, Gaussian, Inc.),
 the Gaussian 86(TM) system (copyright 1986, Carnegie Mellon
 University), and the Gaussian 82(TM) system (copyright 1983,
 Carnegie Mellon University). Gaussian is a federally registered
 trademark of Gaussian, Inc.
  
 This software contains proprietary and confidential information,
 including trade secrets, belonging to Gaussian, Inc.
  
 This software is provided under written license and may be
 used, copied, transmitted, or stored only in accord with that
 written license.
  
 The following legend is applicable only to US Government
 contracts under FAR:
  
                    RESTRICTED RIGHTS LEGEND
  
 Use, reproduction and disclosure by the US Government is
 subject to restrictions as set forth in subparagraphs (a)
 and (c) of the Commercial Computer Software - Restricted
 Rights clause in FAR 52.227-19.
  
 Gaussian, Inc.
 340 Quinnipiac St., Bldg. 40, Wallingford CT 06492
  
  
 ---------------------------------------------------------------
 Warning -- This program may not be used in any manner that
 competes with the business of Gaussian, Inc. or will provide
 assistance to any competitor of Gaussian, Inc.  The licensee
 of this program is prohibited from giving any competitor of
 Gaussian, Inc. access to this program.  By using this program,
 the user acknowledges that Gaussian, Inc. is engaged in the
 business of creating and licensing software in the field of
 computational chemistry and represents and warrants to the
 licensee that it is not a competitor of Gaussian, Inc. and that
 it will not use this program in any manner prohibited above.
 ---------------------------------------------------------------
  

 Cite this work as:
 Gaussian 16, Revision C.01,
 M. J. Frisch, G. W. Trucks, H. B. Schlegel, G. E. Scuseria, 
 M. A. Robb, J. R. Cheeseman, G. Scalmani, V. Barone, 
 G. A. Petersson, H. Nakatsuji, X. Li, M. Caricato, A. V. Marenich, 
 J. Bloino, B. G. Janesko, R. Gomperts, B. Mennucci, H. P. Hratchian, 
 J. V. Ortiz, A. F. Izmaylov, J. L. Sonnenberg, D. Williams-Young, 
 F. Ding, F. Lipparini, F. Egidi, J. Goings, B. Peng, A. Petrone, 
 T. Henderson, D. Ranasinghe, V. G. Zakrzewski, J. Gao, N. Rega, 
 G. Zheng, W. Liang, M. Hada, M. Ehara, K. Toyota, R. Fukuda, 
 J. Hasegawa, M. Ishida, T. Nakajima, Y. Honda, O. Kitao, H. Nakai, 
 T. Vreven, K. Throssell, J. A. Montgomery, Jr., J. E. Peralta, 
 F. Ogliaro, M. J. Bearpark, J. J. Heyd, E. N. Brothers, K. N. Kudin, 
 V. N. Staroverov, T. A. Keith, R. Kobayashi, J. Normand, 
 K. Raghavachari, A. P. Rendell, J. C. Burant, S. S. Iyengar, 
 J. Tomasi, M. Cossi, J. M. Millam, M. Klene, C. Adamo, R. Cammi, 
 J. W. Ochterski, R. L. Martin, K. Morokuma, O. Farkas, 
 J. B. Foresman, and D. J. Fox, Gaussian, Inc., Wallingford CT, 2019.
 
 ******************************************
 Gaussian 16:  EM64L-G16RevC.01  3-Jul-2019
                27-Feb-2022 
 ******************************************
 %mem=64gb
 %nproc=8
 Will use up to    8 processors via shared memory.
 ----------------------------------------------------------------------
 #P TD(Nstates=10000) wB97XD/Gen SCF(maxcycles=100) Int(Grid=ultrafine)
 ----------------------------------------------------------------------
 1/38=1,172=1/1;
 2/12=2,17=6,18=5,40=1/2;
 3/5=7,11=9,25=1,30=1,74=-58,75=-5/1,2,3,8;
 4//1;
 5/5=2,7=100,38=5/2;
 8/6=1,10=1,108=10000/1;
 9/41=10000,42=1,70=2/14;
 6/7=2,8=2,9=2,10=2/1;
 99/5=1,9=1/99;
 Leave Link    1 at Sun Feb 27 06:34:31 2022, MaxMem=  8589934592 cpu:               0.5 elap:               0.1
 (Enter /home/rr/g16/l101.exe)
 ---------------------
 xGDB7_00001_tier4.com
 ---------------------
 Symbolic Z-matrix:
 Charge =  0 Multiplicity = 1
 8                    -1.0238   -0.43879   0. 
 6                     0.        0.41895   0. 
 8                     1.15299   0.10998   0. 
 1                    -0.65694  -1.33301   0. 
 1                    -0.3765    1.44977   0. 
 
 ITRead=  0  0  0  0  0
 MicOpt= -1 -1 -1 -1 -1
 NAtoms=      5 NQM=        5 NQMF=       0 NMMI=      0 NMMIF=      0
                NMic=       0 NMicF=      0.
                    Isotopes and Nuclear Properties:
 (Nuclear quadrupole moments (NQMom) in fm**2, nuclear magnetic moments (NMagM)
  in nuclear magnetons)

  Atom         1           2           3           4           5
 IAtWgt=          16          12          16           1           1
 AtmWgt=  15.9949146  12.0000000  15.9949146   1.0078250   1.0078250
 NucSpn=           0           0           0           1           1
 AtZEff=  -0.0000000  -0.0000000  -0.0000000  -0.0000000  -0.0000000
 NQMom=    0.0000000   0.0000000   0.0000000   0.0000000   0.0000000
 NMagM=    0.0000000   0.0000000   0.0000000   2.7928460   2.7928460
 AtZNuc=   8.0000000   6.0000000   8.0000000   1.0000000   1.0000000
 Leave Link  101 at Sun Feb 27 06:34:31 2022, MaxMem=  8589934592 cpu:               1.4 elap:               0.2
 (Enter /home/rr/g16/l202.exe)
                          Input orientation:                          
 ---------------------------------------------------------------------
 Center     Atomic      Atomic             Coordinates (Angstroms)
 Number     Number       Type             X           Y           Z
 ---------------------------------------------------------------------
      1          8           0       -1.023804   -0.438792    0.000000
      2          6           0        0.000000    0.418952    0.000000
      3          8           0        1.152985    0.109983    0.000000
      4          1           0       -0.656942   -1.333012    0.000000
      5          1           0       -0.376499    1.449770    0.000000
 ---------------------------------------------------------------------
                    Distance matrix (angstroms):
                    1          2          3          4          5
     1  O    0.000000
     2  C    1.335627   0.000000
     3  O    2.244897   1.193665   0.000000
     4  H    0.966549   1.871083   2.314751   0.000000
     5  H    1.996414   1.097423   2.033310   2.796878   0.000000
 Stoichiometry    CH2O2
 Framework group  CS[SG(CH2O2)]
 Deg. of freedom     7
 Full point group                 CS      NOp   2
 Largest Abelian subgroup         CS      NOp   2
 Largest concise Abelian subgroup C1      NOp   1
                         Standard orientation:                         
 ---------------------------------------------------------------------
 Center     Atomic      Atomic             Coordinates (Angstroms)
 Number     Number       Type             X           Y           Z
 ---------------------------------------------------------------------
      1          8           0       -1.023805   -0.438791    0.000000
      2          6           0       -0.000000    0.418952    0.000000
      3          8           0        1.152985    0.109982   -0.000000
      4          1           0       -0.656943   -1.333011    0.000000
      5          1           0       -0.376498    1.449770    0.000000
 ---------------------------------------------------------------------
 Rotational constants (GHZ):          78.3457848          12.2009615          10.5569106
 Leave Link  202 at Sun Feb 27 06:34:32 2022, MaxMem=  8589934592 cpu:               0.4 elap:               0.1
 (Enter /home/rr/g16/l301.exe)
 General basis read from cards:  (5D, 7F)
 Centers:       4      5
 S 3 1.00
     Exponent=  3.4061341000D+01 Coefficients=  6.0251978000D-03
     Exponent=  5.1235746000D+00 Coefficients=  4.5021094000D-02
     Exponent=  1.1646626000D+00 Coefficients=  2.0189726000D-01
 S 1 1.00
     Exponent=  3.2723041000D-01 Coefficients=  1.0000000000D+00
 S 1 1.00
     Exponent=  1.0307241000D-01 Coefficients=  1.0000000000D+00
 P 1 1.00
     Exponent=  8.0000000000D-01 Coefficients=  1.0000000000D+00
 P 1 1.00
     Exponent=  9.5774129632D-02 Coefficients=  1.0000000000D+00
 ****
 Centers:       2
 S 6 1.00
     Exponent=  1.3575349682D+04 Coefficients=  2.2245814352D-04
     Exponent=  2.0352333680D+03 Coefficients=  1.7232738252D-03
     Exponent=  4.6322562359D+02 Coefficients=  8.9255715314D-03
     Exponent=  1.3120019598D+02 Coefficients=  3.5727984502D-02
     Exponent=  4.2853015891D+01 Coefficients=  1.1076259931D-01
     Exponent=  1.5584185766D+01 Coefficients=  2.4295627626D-01
 S 2 1.00
     Exponent=  6.2067138508D+00 Coefficients=  4.1440263448D-01
     Exponent=  2.5764896527D+00 Coefficients=  2.3744968655D-01
 S 1 1.00
     Exponent=  5.7696339419D-01 Coefficients=  1.0000000000D+00
 S 1 1.00
     Exponent=  2.2972831358D-01 Coefficients=  1.0000000000D+00
 S 1 1.00
     Exponent=  9.5164440028D-02 Coefficients=  1.0000000000D+00
 S 1 1.00
     Exponent=  4.8475401370D-02 Coefficients=  1.0000000000D+00
 P 4 1.00
     Exponent=  3.4697232244D+01 Coefficients=  5.3333657805D-03
     Exponent=  7.9582622826D+00 Coefficients=  3.5864109092D-02
     Exponent=  2.3780826883D+00 Coefficients=  1.4215873329D-01
     Exponent=  8.1433208183D-01 Coefficients=  3.4270471845D-01
 P 1 1.00
     Exponent=  2.8887547253D-01 Coefficients=  4.6445822433D-01
 P 1 1.00
     Exponent=  1.0056823671D-01 Coefficients=  2.4955789874D-01
 D 1 1.00
     Exponent=  1.0970000000D+00 Coefficients=  1.0000000000D+00
 D 1 1.00
     Exponent=  3.1800000000D-01 Coefficients=  1.0000000000D+00
 D 1 1.00
     Exponent=  9.0985336424D-02 Coefficients=  1.0000000000D+00
 F 1 1.00
     Exponent=  7.6100000000D-01 Coefficients=  1.0000000000D+00
 ****
 Centers:       1      3
 S 6 1.00
     Exponent=  2.7032382631D+04 Coefficients=  2.1726302465D-04
     Exponent=  4.0523871392D+03 Coefficients=  1.6838662199D-03
     Exponent=  9.2232722710D+02 Coefficients=  8.7395616265D-03
     Exponent=  2.6124070989D+02 Coefficients=  3.5239968808D-02
     Exponent=  8.5354641351D+01 Coefficients=  1.1153519115D-01
     Exponent=  3.1035035245D+01 Coefficients=  2.5588953961D-01
 S 2 1.00
     Exponent=  1.2260860728D+01 Coefficients=  3.9768730901D-01
     Exponent=  4.9987076005D+00 Coefficients=  2.4627849430D-01
 S 1 1.00
     Exponent=  1.1703108158D+00 Coefficients=  1.0000000000D+00
 S 1 1.00
     Exponent=  4.6474740994D-01 Coefficients=  1.0000000000D+00
 S 1 1.00
     Exponent=  1.8504536357D-01 Coefficients=  1.0000000000D+00
 S 1 1.00
     Exponent=  7.0288026270D-02 Coefficients=  1.0000000000D+00
 P 4 1.00
     Exponent=  6.3274954801D+01 Coefficients=  6.0685103418D-03
     Exponent=  1.4627049379D+01 Coefficients=  4.1912575824D-02
     Exponent=  4.4501223456D+00 Coefficients=  1.6153841088D-01
     Exponent=  1.5275799647D+00 Coefficients=  3.5706951311D-01
 P 1 1.00
     Exponent=  5.2935117943D-01 Coefficients=  4.4794207502D-01
 P 1 1.00
     Exponent=  1.7478421270D-01 Coefficients=  2.4446069663D-01
 P 1 1.00
     Exponent=  5.1112745706D-02 Coefficients=  1.0000000000D+00
 D 1 1.00
     Exponent=  2.3140000000D+00 Coefficients=  1.0000000000D+00
 D 1 1.00
     Exponent=  6.4500000000D-01 Coefficients=  1.0000000000D+00
 D 1 1.00
     Exponent=  1.4696477366D-01 Coefficients=  1.0000000000D+00
 F 1 1.00
     Exponent=  1.4280000000D+00 Coefficients=  1.0000000000D+00
 ****
 Ernie: Thresh=  0.10000D-02 Tol=  0.10000D-05 Strict=F.
 There are   108 symmetry adapted cartesian basis functions of A'  symmetry.
 There are    45 symmetry adapted cartesian basis functions of A"  symmetry.
 There are    93 symmetry adapted basis functions of A'  symmetry.
 There are    42 symmetry adapted basis functions of A"  symmetry.
   135 basis functions,   202 primitive gaussians,   153 cartesian basis functions
    12 alpha electrons       12 beta electrons
       nuclear repulsion energy        70.5741297168 Hartrees.
 IExCor= 4639 DFT=T Ex+Corr=wB97XD ExCW=0 ScaHFX=  1.000000
 ScaDFX=  1.000000  1.000000  1.000000  1.000000 ScalE2=  1.000000  1.000000
 IRadAn=      5 IRanWt=     -1 IRanGd=            0 ICorTp=0 IEmpDi=121
 HFx  wShort=  0.000000 wLong=  0.200000 cFull=  0.222036 cShort=  0.000000 cLong=  0.777964
 DFx  wShort=  0.000000 wLong=  0.200000 cFull=  0.000000 cShort=  0.000000 cLong=  1.000000
 NAtoms=    5 NActive=    5 NUniq=    5 SFac= 1.00D+00 NAtFMM=   60 NAOKFM=F Big=F
 Integral buffers will be    131072 words long.
 Raffenetti 1 integral format.
 Two-electron integral symmetry is turned on.
 R6Disp:  Grimme-D2 Dispersion energy=       -0.0003653286 Hartrees.
 Nuclear repulsion after empirical dispersion term =       70.5737643883 Hartrees.
 Leave Link  301 at Sun Feb 27 06:34:33 2022, MaxMem=  8589934592 cpu:               2.2 elap:               0.4
 (Enter /home/rr/g16/l302.exe)
 NPDir=0 NMtPBC=     1 NCelOv=     1 NCel=       1 NClECP=     1 NCelD=      1
         NCelK=      1 NCelE2=     1 NClLst=     1 CellRange=     0.0.
 One-electron integrals computed using PRISM.
 One-electron integral symmetry used in STVInt
 NBasis=   135 RedAO= T EigKep=  5.36D-05  NBF=    93    42
 NBsUse=   135 1.00D-06 EigRej= -1.00D+00 NBFU=    93    42
 Precomputing XC quadrature grid using
 IXCGrd= 4 IRadAn=           5 IRanWt=          -1 IRanGd=           0 AccXCQ= 0.00D+00.
 Generated NRdTot=       0 NPtTot=           0 NUsed=           0 NTot=          32
 NSgBfM=   153   153   153   153   153 MxSgAt=     5 MxSgA2=     5.
 Leave Link  302 at Sun Feb 27 06:34:33 2022, MaxMem=  8589934592 cpu:               3.2 elap:               0.5
 (Enter /home/rr/g16/l303.exe)
 DipDrv:  MaxL=1.
 Leave Link  303 at Sun Feb 27 06:34:34 2022, MaxMem=  8589934592 cpu:               1.0 elap:               0.3
 (Enter /home/rr/g16/l308.exe)
 Leave Link  308 at Sun Feb 27 06:34:34 2022, MaxMem=  8589934592 cpu:               0.7 elap:               0.2
 (Enter /home/rr/g16/l401.exe)
 ExpMin= 4.85D-02 ExpMax= 2.70D+04 ExpMxC= 9.22D+02 IAcc=3 IRadAn=         5 AccDes= 0.00D+00
 Harris functional with IExCor= 4639 and IRadAn=       5 diagonalized for initial guess.
 HarFok:  IExCor= 4639 AccDes= 0.00D+00 IRadAn=         5 IDoV= 1 UseB2=F ITyADJ=14
 ICtDFT=  3500011 ScaDFX=  1.000000  1.000000  1.000000  1.000000
 FoFCou: FMM=F IPFlag=           0 FMFlag=      100000 FMFlg1=           0
         NFxFlg=           0 DoJE=T BraDBF=F KetDBF=T FulRan=T
         wScrn=  0.000000 ICntrl=       500 IOpCl=  0 I1Cent=   200000004 NGrid=           0
         NMat0=    1 NMatS0=      1 NMatT0=    0 NMatD0=    1 NMtDS0=    0 NMtDT0=    0
 Petite list used in FoFCou.
 Harris En= -182.829397268226    
 JPrj=0 DoOrth=F DoCkMO=F.
 Initial guess orbital symmetries:
       Occupied  (A') (A') (A') (A') (A') (A') (A') (A') (A") (A')
                 (A") (A')
       Virtual   (A') (A') (A") (A') (A") (A') (A') (A") (A') (A')
                 (A') (A") (A') (A') (A") (A') (A') (A') (A") (A')
                 (A") (A') (A') (A") (A') (A') (A') (A') (A') (A")
                 (A") (A') (A') (A") (A") (A') (A') (A') (A') (A')
                 (A') (A") (A') (A") (A') (A') (A") (A') (A') (A')
                 (A") (A') (A') (A') (A") (A") (A') (A") (A') (A')
                 (A') (A") (A") (A') (A") (A') (A') (A') (A") (A')
                 (A') (A') (A') (A') (A") (A") (A') (A') (A') (A')
                 (A") (A") (A') (A") (A') (A') (A') (A") (A') (A")
                 (A') (A') (A') (A') (A') (A') (A") (A') (A") (A')
                 (A") (A") (A') (A') (A") (A') (A") (A') (A") (A')
                 (A') (A") (A') (A") (A') (A") (A') (A') (A') (A')
                 (A') (A') (A')
 The electronic state of the initial guess is 1-A'.
 Leave Link  401 at Sun Feb 27 06:34:35 2022, MaxMem=  8589934592 cpu:               4.6 elap:               0.8
 (Enter /home/rr/g16/l502.exe)
 Keep R1 ints in memory in symmetry-blocked form, NReq=127384102.
 FoFCou: FMM=F IPFlag=           0 FMFlag=           0 FMFlg1=           0
         NFxFlg=           0 DoJE=F BraDBF=F KetDBF=F FulRan=T
         wScrn=  0.000000 ICntrl=       600 IOpCl=  0 I1Cent=           0 NGrid=           0
         NMat0=    1 NMatS0=   9180 NMatT0=    0 NMatD0=    1 NMtDS0=    0 NMtDT0=    0
 Petite list used in FoFCou.
 Closed shell SCF:
 Using DIIS extrapolation, IDIIS=  1040.
 NGot=  8589934592 LenX=  8568324016 LenY=  8568300166
 Requested convergence on RMS density matrix=1.00D-08 within 100 cycles.
 Requested convergence on MAX density matrix=1.00D-06.
 Requested convergence on             energy=1.00D-06.
 No special actions if energy rises.

 Cycle   1  Pass 1  IDiag  1:
 E= -189.731449985163    
 DIIS: error= 6.42D-02 at cycle   1 NSaved=   1.
 NSaved= 1 IEnMin= 1 EnMin= -189.731449985163     IErMin= 1 ErrMin= 6.42D-02
 ErrMax= 6.42D-02  0.00D+00 EMaxC= 1.00D-01 BMatC= 4.03D-01 BMatP= 4.03D-01
 IDIUse=3 WtCom= 3.58D-01 WtEn= 6.42D-01
 Coeff-Com:  0.100D+01
 Coeff-En:   0.100D+01
 Coeff:      0.100D+01
 Gap=     0.441 Goal=   None    Shift=    0.000
 GapD=    0.441 DampG=2.000 DampE=0.500 DampFc=1.0000 IDamp=-1.
 RMSDP=2.32D-03 MaxDP=4.41D-02              OVMax= 8.28D-02

 Cycle   2  Pass 1  IDiag  1:
 E= -189.760913880490     Delta-E=       -0.029463895326 Rises=F Damp=F
 DIIS: error= 1.26D-02 at cycle   2 NSaved=   2.
 NSaved= 2 IEnMin= 2 EnMin= -189.760913880490     IErMin= 2 ErrMin= 1.26D-02
 ErrMax= 1.26D-02  0.00D+00 EMaxC= 1.00D-01 BMatC= 4.24D-02 BMatP= 4.03D-01
 IDIUse=3 WtCom= 8.74D-01 WtEn= 1.26D-01
 Coeff-Com:  0.187D+00 0.813D+00
 Coeff-En:   0.201D+00 0.799D+00
 Coeff:      0.188D+00 0.812D+00
 Gap=     0.453 Goal=   None    Shift=    0.000
 RMSDP=1.16D-03 MaxDP=4.12D-02 DE=-2.95D-02 OVMax= 7.39D-02

 Cycle   3  Pass 1  IDiag  1:
 E= -189.770833231805     Delta-E=       -0.009919351315 Rises=F Damp=F
 DIIS: error= 9.40D-03 at cycle   3 NSaved=   3.
 NSaved= 3 IEnMin= 3 EnMin= -189.770833231805     IErMin= 3 ErrMin= 9.40D-03
 ErrMax= 9.40D-03  0.00D+00 EMaxC= 1.00D-01 BMatC= 2.32D-02 BMatP= 4.24D-02
 IDIUse=3 WtCom= 9.06D-01 WtEn= 9.40D-02
 Coeff-Com:  0.376D-01 0.434D+00 0.529D+00
 Coeff-En:   0.000D+00 0.377D+00 0.623D+00
 Coeff:      0.341D-01 0.429D+00 0.537D+00
 Gap=     0.437 Goal=   None    Shift=    0.000
 RMSDP=5.50D-04 MaxDP=1.97D-02 DE=-9.92D-03 OVMax= 4.34D-02

 Cycle   4  Pass 1  IDiag  1:
 E= -189.785196262324     Delta-E=       -0.014363030519 Rises=F Damp=F
 DIIS: error= 2.00D-03 at cycle   4 NSaved=   4.
 NSaved= 4 IEnMin= 4 EnMin= -189.785196262324     IErMin= 4 ErrMin= 2.00D-03
 ErrMax= 2.00D-03  0.00D+00 EMaxC= 1.00D-01 BMatC= 9.21D-04 BMatP= 2.32D-02
 IDIUse=3 WtCom= 9.80D-01 WtEn= 2.00D-02
 Coeff-Com:  0.824D-02 0.174D+00 0.272D+00 0.546D+00
 Coeff-En:   0.000D+00 0.000D+00 0.000D+00 0.100D+01
 Coeff:      0.808D-02 0.171D+00 0.266D+00 0.555D+00
 Gap=     0.444 Goal=   None    Shift=    0.000
 RMSDP=1.31D-04 MaxDP=3.87D-03 DE=-1.44D-02 OVMax= 8.04D-03

 Cycle   5  Pass 1  IDiag  1:
 E= -189.785785853761     Delta-E=       -0.000589591437 Rises=F Damp=F
 DIIS: error= 4.02D-04 at cycle   5 NSaved=   5.
 NSaved= 5 IEnMin= 5 EnMin= -189.785785853761     IErMin= 5 ErrMin= 4.02D-04
 ErrMax= 4.02D-04  0.00D+00 EMaxC= 1.00D-01 BMatC= 4.88D-05 BMatP= 9.21D-04
 IDIUse=3 WtCom= 9.96D-01 WtEn= 4.02D-03
 Coeff-Com:  0.111D-02 0.403D-01 0.801D-01 0.251D+00 0.627D+00
 Coeff-En:   0.000D+00 0.000D+00 0.000D+00 0.000D+00 0.100D+01
 Coeff:      0.111D-02 0.401D-01 0.798D-01 0.250D+00 0.629D+00
 Gap=     0.443 Goal=   None    Shift=    0.000
 RMSDP=4.42D-05 MaxDP=1.15D-03 DE=-5.90D-04 OVMax= 2.30D-03

 Cycle   6  Pass 1  IDiag  1:
 E= -189.785818625871     Delta-E=       -0.000032772110 Rises=F Damp=F
 DIIS: error= 1.43D-04 at cycle   6 NSaved=   6.
 NSaved= 6 IEnMin= 6 EnMin= -189.785818625871     IErMin= 6 ErrMin= 1.43D-04
 ErrMax= 1.43D-04  0.00D+00 EMaxC= 1.00D-01 BMatC= 3.89D-06 BMatP= 4.88D-05
 IDIUse=3 WtCom= 9.99D-01 WtEn= 1.43D-03
 Coeff-Com: -0.118D-02-0.200D-01-0.216D-01-0.142D-01 0.214D+00 0.843D+00
 Coeff-En:   0.000D+00 0.000D+00 0.000D+00 0.000D+00 0.000D+00 0.100D+01
 Coeff:     -0.118D-02-0.200D-01-0.216D-01-0.141D-01 0.214D+00 0.843D+00
 Gap=     0.442 Goal=   None    Shift=    0.000
 RMSDP=2.72D-05 MaxDP=7.73D-04 DE=-3.28D-05 OVMax= 9.67D-04

 Cycle   7  Pass 1  IDiag  1:
 E= -189.785823556938     Delta-E=       -0.000004931067 Rises=F Damp=F
 DIIS: error= 2.66D-05 at cycle   7 NSaved=   7.
 NSaved= 7 IEnMin= 7 EnMin= -189.785823556938     IErMin= 7 ErrMin= 2.66D-05
 ErrMax= 2.66D-05  0.00D+00 EMaxC= 1.00D-01 BMatC= 1.00D-07 BMatP= 3.89D-06
 IDIUse=1 WtCom= 1.00D+00 WtEn= 0.00D+00
 Coeff-Com: -0.103D-03-0.295D-02-0.526D-02-0.177D-01-0.288D-01 0.148D-01
 Coeff-Com:  0.104D+01
 Coeff:     -0.103D-03-0.295D-02-0.526D-02-0.177D-01-0.288D-01 0.148D-01
 Coeff:      0.104D+01
 Gap=     0.442 Goal=   None    Shift=    0.000
 RMSDP=8.00D-06 MaxDP=2.52D-04 DE=-4.93D-06 OVMax= 3.54D-04

 Cycle   8  Pass 1  IDiag  1:
 E= -189.785823870675     Delta-E=       -0.000000313737 Rises=F Damp=F
 DIIS: error= 8.58D-06 at cycle   8 NSaved=   8.
 NSaved= 8 IEnMin= 8 EnMin= -189.785823870675     IErMin= 8 ErrMin= 8.58D-06
 ErrMax= 8.58D-06  0.00D+00 EMaxC= 1.00D-01 BMatC= 1.04D-08 BMatP= 1.00D-07
 IDIUse=1 WtCom= 1.00D+00 WtEn= 0.00D+00
 Coeff-Com:  0.767D-04 0.122D-02 0.124D-02-0.138D-02-0.142D-01-0.650D-01
 Coeff-Com:  0.339D-01 0.104D+01
 Coeff:      0.767D-04 0.122D-02 0.124D-02-0.138D-02-0.142D-01-0.650D-01
 Coeff:      0.339D-01 0.104D+01
 Gap=     0.443 Goal=   None    Shift=    0.000
 RMSDP=1.92D-06 MaxDP=5.66D-05 DE=-3.14D-07 OVMax= 1.07D-04

 Cycle   9  Pass 1  IDiag  1:
 E= -189.785823896790     Delta-E=       -0.000000026115 Rises=F Damp=F
 DIIS: error= 1.70D-06 at cycle   9 NSaved=   9.
 NSaved= 9 IEnMin= 9 EnMin= -189.785823896790     IErMin= 9 ErrMin= 1.70D-06
 ErrMax= 1.70D-06  0.00D+00 EMaxC= 1.00D-01 BMatC= 4.47D-10 BMatP= 1.04D-08
 IDIUse=1 WtCom= 1.00D+00 WtEn= 0.00D+00
 Coeff-Com:  0.144D-05 0.116D-03 0.314D-03 0.102D-02 0.325D-02 0.114D-02
 Coeff-Com: -0.652D-01-0.385D-01 0.110D+01
 Coeff:      0.144D-05 0.116D-03 0.314D-03 0.102D-02 0.325D-02 0.114D-02
 Coeff:     -0.652D-01-0.385D-01 0.110D+01
 Gap=     0.443 Goal=   None    Shift=    0.000
 RMSDP=4.36D-07 MaxDP=7.62D-06 DE=-2.61D-08 OVMax= 2.05D-05

 Cycle  10  Pass 1  IDiag  1:
 E= -189.785823897819     Delta-E=       -0.000000001029 Rises=F Damp=F
 DIIS: error= 2.41D-07 at cycle  10 NSaved=  10.
 NSaved=10 IEnMin=10 EnMin= -189.785823897819     IErMin=10 ErrMin= 2.41D-07
 ErrMax= 2.41D-07  0.00D+00 EMaxC= 1.00D-01 BMatC= 9.39D-12 BMatP= 4.47D-10
 IDIUse=1 WtCom= 1.00D+00 WtEn= 0.00D+00
 Coeff-Com: -0.115D-05-0.248D-04-0.265D-04 0.623D-04 0.529D-03 0.122D-02
 Coeff-Com: -0.991D-03-0.303D-01 0.155D-01 0.101D+01
 Coeff:     -0.115D-05-0.248D-04-0.265D-04 0.623D-04 0.529D-03 0.122D-02
 Coeff:     -0.991D-03-0.303D-01 0.155D-01 0.101D+01
 Gap=     0.443 Goal=   None    Shift=    0.000
 RMSDP=8.39D-08 MaxDP=2.26D-06 DE=-1.03D-09 OVMax= 2.35D-06

 Cycle  11  Pass 1  IDiag  1:
 E= -189.785823897839     Delta-E=       -0.000000000020 Rises=F Damp=F
 DIIS: error= 4.92D-08 at cycle  11 NSaved=  11.
 NSaved=11 IEnMin=11 EnMin= -189.785823897839     IErMin=11 ErrMin= 4.92D-08
 ErrMax= 4.92D-08  0.00D+00 EMaxC= 1.00D-01 BMatC= 3.82D-13 BMatP= 9.39D-12
 IDIUse=1 WtCom= 1.00D+00 WtEn= 0.00D+00
 Coeff-Com:  0.131D-06-0.318D-06-0.844D-05-0.414D-04-0.129D-03-0.213D-03
 Coeff-Com:  0.271D-02 0.374D-02-0.442D-01-0.589D-01 0.110D+01
 Coeff:      0.131D-06-0.318D-06-0.844D-05-0.414D-04-0.129D-03-0.213D-03
 Coeff:      0.271D-02 0.374D-02-0.442D-01-0.589D-01 0.110D+01
 Gap=     0.443 Goal=   None    Shift=    0.000
 RMSDP=1.91D-08 MaxDP=4.96D-07 DE=-2.02D-11 OVMax= 3.90D-07

 Cycle  12  Pass 1  IDiag  1:
 E= -189.785823897840     Delta-E=       -0.000000000001 Rises=F Damp=F
 DIIS: error= 7.02D-09 at cycle  12 NSaved=  12.
 NSaved=12 IEnMin=12 EnMin= -189.785823897840     IErMin=12 ErrMin= 7.02D-09
 ErrMax= 7.02D-09  0.00D+00 EMaxC= 1.00D-01 BMatC= 1.09D-14 BMatP= 3.82D-13
 IDIUse=1 WtCom= 1.00D+00 WtEn= 0.00D+00
 Coeff-Com: -0.123D-07 0.150D-06 0.103D-05 0.153D-05-0.122D-05-0.250D-04
 Coeff-Com: -0.110D-03 0.272D-03 0.214D-02-0.172D-01-0.634D-01 0.108D+01
 Coeff:     -0.123D-07 0.150D-06 0.103D-05 0.153D-05-0.122D-05-0.250D-04
 Coeff:     -0.110D-03 0.272D-03 0.214D-02-0.172D-01-0.634D-01 0.108D+01
 Gap=     0.443 Goal=   None    Shift=    0.000
 RMSDP=1.69D-09 MaxDP=3.16D-08 DE=-5.12D-13 OVMax= 6.08D-08

 SCF Done:  E(RwB97XD) =  -189.785823898     A.U. after   12 cycles
            NFock= 12  Conv=0.17D-08     -V/T= 2.0039
 KE= 1.890495571654D+02 PE=-5.881828020250D+02 EE= 1.387736565736D+02
 Leave Link  502 at Sun Feb 27 06:34:41 2022, MaxMem=  8589934592 cpu:              36.8 elap:               4.9
 (Enter /home/rr/g16/l801.exe)
 DoSCS=F DFT=T ScalE2(SS,OS)=  1.000000  1.000000
 ExpMin= 4.85D-02 ExpMax= 2.70D+04 ExpMxC= 9.22D+02 IAcc=3 IRadAn=         5 AccDes= 0.00D+00
 HarFok:  IExCor=  205 AccDes= 0.00D+00 IRadAn=         5 IDoV=-2 UseB2=F ITyADJ=14
 ICtDFT= 12500011 ScaDFX=  1.000000  1.000000  1.000000  1.000000
 Largest valence mixing into a core orbital is  6.65D-05
 Largest core mixing into a valence orbital is  7.63D-06
 Range of M.O.s used for correlation:     4   135
 NBasis=   135 NAE=    12 NBE=    12 NFC=     3 NFV=     0
 NROrb=    132 NOA=     9 NOB=     9 NVA=   123 NVB=   123

 **** Warning!!: The largest alpha MO coefficient is  0.43564125D+02

 Leave Link  801 at Sun Feb 27 06:34:41 2022, MaxMem=  8589934592 cpu:               1.1 elap:               0.2
 (Enter /home/rr/g16/l914.exe)
 RHF ground state
 Keep R1, R2, and R3 ints in memory in symmetry-blocked form, NReq=2073182238.
 FoFCou: FMM=F IPFlag=           0 FMFlag=           0 FMFlg1=           0
         NFxFlg=           0 DoJE=F BraDBF=F KetDBF=F FulRan=T
         wScrn=  0.000000 ICntrl=       600 IOpCl=  0 I1Cent=           0 NGrid=           0
         NMat0=    1 NMatS0=   9180 NMatT0=    0 NMatD0=    1 NMtDS0=    0 NMtDT0=    0
 Petite list used in FoFCou.
 MDV=  8589934592 DFT=T DoStab=F Mixed=T DoRPA=T DoScal=F NonHer=T
 Making orbital integer symmetry assigments:
 Orbital symmetries:
       Occupied  (A') (A') (A') (A') (A') (A') (A') (A') (A") (A')
                 (A") (A')
       Virtual   (A') (A") (A') (A') (A") (A') (A') (A") (A') (A')
                 (A') (A") (A') (A') (A") (A') (A') (A') (A") (A')
                 (A") (A') (A") (A') (A') (A') (A') (A') (A') (A")
                 (A") (A') (A') (A") (A') (A") (A') (A') (A') (A')
                 (A') (A") (A') (A') (A") (A") (A') (A') (A') (A')
                 (A") (A') (A') (A') (A") (A") (A') (A') (A") (A')
                 (A') (A") (A') (A") (A") (A') (A') (A') (A") (A')
                 (A') (A') (A') (A') (A") (A') (A") (A') (A') (A')
                 (A") (A") (A") (A') (A') (A') (A') (A") (A') (A")
                 (A') (A') (A') (A') (A') (A') (A") (A') (A") (A')
                 (A") (A") (A') (A') (A") (A') (A") (A') (A") (A')
                 (A') (A") (A') (A") (A') (A") (A') (A') (A') (A')
                 (A') (A') (A')
  1107 initial guesses have been made.
 Convergence on wavefunction:    0.001000000000000
 Davidson Disk Diagonalization:  ConvIn= 1.00D-03 SkipCon=T Conv= 1.00D-03.
 Max sub-space:  6642 roots to seek:  2214 dimension of matrix:         2214
 *** WARNING: Number of orthogonal guesses is         1107
 Iteration     1 Dimension  1107 NMult     0 NNew   1107
 CISAX will form  1107 AO SS matrices at one time.
 NMat=  1107 NSing=  1107 JSym2X=-1.
 New state      1 was old state      2
 New state      2 was old state      1
 New state      5 was old state      6
 New state      6 was old state      7
 New state      7 was old state     16
 New state      8 was old state      5
 New state      9 was old state      8
 New state     10 was old state      9
 New state     11 was old state     10
 New state     13 was old state     11
 New state     15 was old state     13
 New state     16 was old state     15
 New state     20 was old state     21
 New state     21 was old state     22
 New state     22 was old state     27
 New state     23 was old state     35
 New state     24 was old state     20
 New state     25 was old state     29
 New state     26 was old state     24
 New state     27 was old state     23
 New state     28 was old state     25
 New state     29 was old state     45
 New state     30 was old state     26
 New state     31 was old state     28
 New state     32 was old state     30
 New state     33 was old state     32
 New state     34 was old state     33
 New state     35 was old state     31
 New state     36 was old state     40
 New state     37 was old state     39
 New state     38 was old state     34
 New state     39 was old state     41
 New state     40 was old state     37
 New state     41 was old state     38
 New state     42 was old state     36
 New state     43 was old state     44
 New state     44 was old state     47
 New state     45 was old state     43
 New state     46 was old state     42
 New state     47 was old state     48
 New state     48 was old state     46
 New state     49 was old state     50
 New state     50 was old state     54
 New state     51 was old state     57
 New state     52 was old state     53
 New state     53 was old state     51
 New state     54 was old state     52
 New state     55 was old state     49
 New state     57 was old state     59
 New state     58 was old state     67
 New state     59 was old state     55
 New state     61 was old state     68
 New state     62 was old state     63
 New state     63 was old state     66
 New state     64 was old state     61
 New state     66 was old state     58
 New state     67 was old state     71
 New state     68 was old state     70
 New state     69 was old state     64
 New state     70 was old state     73
 New state     71 was old state     76
 New state     72 was old state     62
 New state     73 was old state     74
 New state     74 was old state     80
 New state     75 was old state     69
 New state     76 was old state     72
 New state     78 was old state     82
 New state     79 was old state     78
 New state     80 was old state     85
 New state     81 was old state     84
 New state     82 was old state     75
 New state     84 was old state     86
 New state     85 was old state     97
 New state     86 was old state     81
 New state     87 was old state     99
 New state     88 was old state     79
 New state     89 was old state     88
 New state     90 was old state     89
 New state     91 was old state     92
 New state     92 was old state     91
 New state     93 was old state     90
 New state     94 was old state     95
 New state     95 was old state     87
 New state     96 was old state     98
 New state     97 was old state     93
 New state     98 was old state     94
 New state     99 was old state    100
 New state    100 was old state     96
 New state    101 was old state    102
 New state    102 was old state    106
 New state    103 was old state    110
 New state    104 was old state    103
 New state    105 was old state    101
 New state    106 was old state    107
 New state    107 was old state    112
 New state    108 was old state    111
 New state    109 was old state    108
 New state    110 was old state    104
 New state    111 was old state    119
 New state    112 was old state    109
 New state    113 was old state    105
 New state    114 was old state    125
 New state    115 was old state    114
 New state    116 was old state    126
 New state    117 was old state    115
 New state    118 was old state    117
 New state    119 was old state    118
 New state    120 was old state    121
 New state    121 was old state    120
 New state    122 was old state    116
 New state    123 was old state    124
 New state    124 was old state    113
 New state    125 was old state    122
 New state    126 was old state    136
 New state    128 was old state    134
 New state    129 was old state    130
 New state    130 was old state    123
 New state    131 was old state    133
 New state    133 was old state    129
 New state    134 was old state    139
 New state    135 was old state    149
 New state    136 was old state    137
 New state    137 was old state    143
 New state    138 was old state    145
 New state    139 was old state    141
 New state    140 was old state    138
 New state    141 was old state    131
 New state    142 was old state    140
 New state    143 was old state    142
 New state    144 was old state    148
 New state    145 was old state    152
 New state    147 was old state    154
 New state    148 was old state    128
 New state    149 was old state    144
 New state    150 was old state    135
 New state    151 was old state    150
 New state    152 was old state    151
 New state    153 was old state    155
 New state    154 was old state    153
 New state    155 was old state    156
 New state    156 was old state    158
 New state    157 was old state    163
 New state    158 was old state    147
 New state    159 was old state    160
 New state    160 was old state    159
 New state    162 was old state    157
 New state    163 was old state    164
 New state    164 was old state    166
 New state    165 was old state    162
 New state    166 was old state    168
 New state    167 was old state    165
 New state    168 was old state    170
 New state    169 was old state    176
 New state    170 was old state    169
 New state    171 was old state    173
 New state    172 was old state    174
 New state    173 was old state    180
 New state    174 was old state    175
 New state    175 was old state    178
 New state    176 was old state    171
 New state    177 was old state    167
 New state    178 was old state    179
 New state    179 was old state    172
 New state    180 was old state    181
 New state    181 was old state    184
 New state    183 was old state    177
 New state    184 was old state    183
 New state    187 was old state    188
 New state    188 was old state    189
 New state    189 was old state    187
 New state    190 was old state    193
 New state    192 was old state    197
 New state    193 was old state    196
 New state    195 was old state    192
 New state    196 was old state    199
 New state    197 was old state    202
 New state    198 was old state    190
 New state    199 was old state    195
 New state    200 was old state    198
 New state    201 was old state    203
 New state    202 was old state    201
 New state    203 was old state    205
 New state    204 was old state    212
 New state    205 was old state    204
 New state    206 was old state    200
 New state    208 was old state    209
 New state    209 was old state    206
 New state    210 was old state    208
 New state    211 was old state    210
 New state    212 was old state    211
 New state    213 was old state    215
 New state    214 was old state    213
 New state    215 was old state    218
 New state    218 was old state    220
 New state    219 was old state    227
 New state    220 was old state    222
 New state    221 was old state    238
 New state    222 was old state    228
 New state    224 was old state    221
 New state    225 was old state    219
 New state    226 was old state    224
 New state    227 was old state    226
 New state    228 was old state    229
 New state    229 was old state    259
 New state    230 was old state    236
 New state    231 was old state    225
 New state    232 was old state    231
 New state    233 was old state    234
 New state    234 was old state    232
 New state    235 was old state    230
 New state    236 was old state    237
 New state    237 was old state    243
 New state    238 was old state    239
 New state    239 was old state    240
 New state    240 was old state    241
 New state    241 was old state    242
 New state    242 was old state    235
 New state    243 was old state    233
 New state    246 was old state    253
 New state    247 was old state    249
 New state    248 was old state    247
 New state    249 was old state    257
 New state    250 was old state    248
 New state    251 was old state    252
 New state    252 was old state    258
 New state    253 was old state    250
 New state    254 was old state    246
 New state    255 was old state    260
 New state    256 was old state    255
 New state    257 was old state    271
 New state    258 was old state    256
 New state    259 was old state    262
 New state    260 was old state    263
 New state    262 was old state    265
 New state    263 was old state    264
 New state    264 was old state    251
 New state    265 was old state    254
 New state    266 was old state    270
 New state    267 was old state    281
 New state    268 was old state    273
 New state    269 was old state    279
 New state    270 was old state    269
 New state    271 was old state    276
 New state    272 was old state    275
 New state    273 was old state    286
 New state    274 was old state    282
 New state    275 was old state    280
 New state    276 was old state    266
 New state    277 was old state    268
 New state    278 was old state    277
 New state    279 was old state    284
 New state    280 was old state    267
 New state    281 was old state    274
 New state    282 was old state    272
 New state    283 was old state    293
 New state    284 was old state    289
 New state    285 was old state    287
 New state    286 was old state    298
 New state    287 was old state    278
 New state    288 was old state    291
 New state    289 was old state    294
 New state    290 was old state    295
 New state    291 was old state    292
 New state    292 was old state    283
 New state    293 was old state    290
 New state    294 was old state    296
 New state    295 was old state    300
 New state    296 was old state    285
 New state    297 was old state    288
 New state    298 was old state    305
 New state    299 was old state    310
 New state    300 was old state    302
 New state    301 was old state    304
 New state    302 was old state    303
 New state    303 was old state    311
 New state    304 was old state    313
 New state    305 was old state    301
 New state    306 was old state    318
 New state    307 was old state    297
 New state    309 was old state    299
 New state    310 was old state    319
 New state    311 was old state    322
 New state    312 was old state    325
 New state    313 was old state    312
 New state    314 was old state    316
 New state    315 was old state    323
 New state    316 was old state    309
 New state    318 was old state    327
 New state    319 was old state    307
 New state    320 was old state    306
 New state    321 was old state    328
 New state    322 was old state    320
 New state    323 was old state    321
 New state    324 was old state    314
 New state    325 was old state    324
 New state    326 was old state    335
 New state    327 was old state    339
 New state    328 was old state    337
 New state    329 was old state    326
 New state    330 was old state    338
 New state    331 was old state    332
 New state    332 was old state    342
 New state    333 was old state    346
 New state    334 was old state    331
 New state    335 was old state    329
 New state    336 was old state    330
 New state    337 was old state    333
 New state    338 was old state    334
 New state    339 was old state    345
 New state    340 was old state    336
 New state    342 was old state    340
 New state    343 was old state    348
 New state    344 was old state    355
 New state    345 was old state    350
 New state    346 was old state    360
 New state    347 was old state    356
 New state    348 was old state    343
 New state    349 was old state    344
 New state    350 was old state    352
 New state    351 was old state    349
 New state    352 was old state    347
 New state    353 was old state    361
 New state    354 was old state    357
 New state    355 was old state    362
 New state    356 was old state    354
 New state    357 was old state    353
 New state    359 was old state    372
 New state    360 was old state    351
 New state    361 was old state    366
 New state    362 was old state    374
 New state    363 was old state    370
 New state    364 was old state    359
 New state    365 was old state    375
 New state    366 was old state    376
 New state    367 was old state    368
 New state    368 was old state    369
 New state    369 was old state    363
 New state    370 was old state    364
 New state    371 was old state    365
 New state    372 was old state    377
 New state    373 was old state    378
 New state    374 was old state    379
 New state    375 was old state    381
 New state    376 was old state    367
 New state    377 was old state    371
 New state    378 was old state    373
 New state    379 was old state    386
 New state    380 was old state    385
 New state    381 was old state    380
 New state    382 was old state    387
 New state    383 was old state    384
 New state    384 was old state    382
 New state    385 was old state    393
 New state    386 was old state    383
 New state    387 was old state    391
 New state    388 was old state    401
 New state    389 was old state    392
 New state    391 was old state    394
 New state    392 was old state    388
 New state    393 was old state    395
 New state    394 was old state    396
 New state    395 was old state    389
 New state    396 was old state    397
 New state    397 was old state    404
 New state    399 was old state    403
 New state    400 was old state    406
 New state    401 was old state    400
 New state    402 was old state    399
 New state    403 was old state    409
 New state    404 was old state    408
 New state    405 was old state    402
 New state    406 was old state    405
 New state    407 was old state    414
 New state    408 was old state    415
 New state    409 was old state    410
 New state    410 was old state    407
 New state    411 was old state    413
 New state    412 was old state    411
 New state    413 was old state    420
 New state    414 was old state    418
 New state    415 was old state    422
 New state    416 was old state    412
 New state    417 was old state    419
 New state    418 was old state    417
 New state    419 was old state    416
 New state    420 was old state    425
 New state    421 was old state    426
 No map to state    422
 New state    423 was old state    421
 New state    424 was old state    428
 New state    425 was old state    423
 New state    426 was old state    424
 New state    428 was old state    430
 New state    429 was old state    433
 New state    430 was old state    431
 New state    431 was old state    429
 No map to state    432
 New state    433 was old state    432
 New state    434 was old state    435
 New state    435 was old state    439
 New state    436 was old state    434
 New state    437 was old state    443
 New state    438 was old state    436
 New state    439 was old state    437
 New state    440 was old state    438
 New state    441 was old state    440
 New state    443 was old state    444
 New state    444 was old state    445
 New state    445 was old state    446
 New state    446 was old state    441
 New state    447 was old state    451
 New state    448 was old state    447
 New state    449 was old state    450
 New state    450 was old state    453
 New state    451 was old state    449
 New state    453 was old state    458
 New state    455 was old state    456
 New state    456 was old state    455
 New state    457 was old state    459
 New state    458 was old state    464
 New state    459 was old state    457
 New state    460 was old state    462
 New state    461 was old state    460
 New state    462 was old state    467
 New state    463 was old state    461
 New state    464 was old state    466
 New state    465 was old state    463
 New state    466 was old state    465
 New state    467 was old state    468
 New state    468 was old state    474
 New state    469 was old state    472
 New state    470 was old state    469
 New state    471 was old state    473
 New state    472 was old state    471
 New state    473 was old state    470
 New state    474 was old state    478
 New state    475 was old state    483
 New state    476 was old state    475
 New state    477 was old state    476
 New state    478 was old state    479
 New state    479 was old state    482
 New state    480 was old state    481
 New state    481 was old state    480
 New state    482 was old state    477
 New state    483 was old state    485
 New state    485 was old state    488
 New state    486 was old state    487
 New state    487 was old state    489
 New state    488 was old state    491
 New state    489 was old state    486
 No map to state    490
 New state    491 was old state    490
 New state    492 was old state    498
 New state    493 was old state    494
 New state    494 was old state    493
 New state    495 was old state    497
 New state    496 was old state    495
 New state    497 was old state    492
 New state    498 was old state    496
 New state    499 was old state    500
 New state    500 was old state    504
 New state    501 was old state    499
 New state    502 was old state    505
 New state    504 was old state    501
 New state    505 was old state    507
 New state    507 was old state    511
 New state    508 was old state    509
 New state    509 was old state    512
 New state    510 was old state    508
 New state    511 was old state    510
 New state    512 was old state    515
 New state    513 was old state    514
 New state    514 was old state    516
 New state    515 was old state    513
 New state    516 was old state    520
 New state    517 was old state    522
 New state    518 was old state    530
 New state    519 was old state    518
 New state    520 was old state    519
 New state    521 was old state    524
 New state    522 was old state    517
 New state    523 was old state    521
 New state    524 was old state    523
 New state    525 was old state    526
 New state    526 was old state    527
 New state    527 was old state    525
 New state    528 was old state    529
 New state    529 was old state    531
 New state    530 was old state    538
 New state    531 was old state    528
 New state    533 was old state    534
 New state    534 was old state    533
 New state    538 was old state    544
 New state    539 was old state    540
 New state    540 was old state    541
 New state    541 was old state    539
 New state    544 was old state    545
 New state    545 was old state    546
 New state    546 was old state    547
 New state    547 was old state    548
 New state    548 was old state    553
 New state    550 was old state    552
 New state    552 was old state    550
 New state    553 was old state    554
 New state    554 was old state    562
 New state    555 was old state    557
 New state    557 was old state    555
 New state    558 was old state    561
 New state    559 was old state    558
 New state    561 was old state    559
 New state    562 was old state    564
 New state    564 was old state    567
 New state    565 was old state    571
 New state    566 was old state    568
 New state    567 was old state    565
 New state    568 was old state    569
 New state    569 was old state    566
 New state    571 was old state    579
 New state    573 was old state    574
 New state    574 was old state    573
 New state    576 was old state    580
 New state    577 was old state    583
 New state    578 was old state    576
 New state    579 was old state    577
 New state    580 was old state    578
 New state    582 was old state    585
 New state    583 was old state    584
 New state    584 was old state    582
 New state    585 was old state    594
 New state    589 was old state    591
 New state    590 was old state    589
 New state    591 was old state    593
 New state    592 was old state    590
 New state    593 was old state    592
 New state    594 was old state    598
 New state    595 was old state    596
 New state    596 was old state    599
 No map to state    597
 New state    598 was old state    595
 New state    599 was old state    597
 New state    600 was old state    601
 New state    601 was old state    604
 New state    603 was old state    600
 New state    604 was old state    603
 New state    607 was old state    608
 New state    608 was old state    609
 New state    609 was old state    607
 New state    612 was old state    614
 New state    614 was old state    612
 New state    615 was old state    616
 New state    616 was old state    617
 New state    617 was old state    615
 New state    621 was old state    623
 New state    622 was old state    621
 New state    623 was old state    622
 New state    627 was old state    629
 New state    629 was old state    630
 New state    630 was old state    627
 New state    634 was old state    635
 New state    635 was old state    638
 New state    636 was old state    634
 New state    637 was old state    636
 New state    638 was old state    637
 New state    640 was old state    641
 New state    641 was old state    640
 New state    642 was old state    649
 New state    644 was old state    642
 New state    645 was old state    644
 New state    646 was old state    650
 New state    647 was old state    645
 New state    648 was old state    646
 New state    649 was old state    648
 New state    650 was old state    647
 New state    659 was old state    665
 New state    662 was old state    664
 New state    663 was old state    666
 New state    664 was old state    663
 New state    665 was old state    659
 New state    666 was old state    667
 New state    667 was old state    662
 New state    669 was old state    670
 New state    670 was old state    669
 New state    673 was old state    676
 New state    674 was old state    673
 New state    675 was old state    677
 New state    676 was old state    675
 New state    677 was old state    674
 New state    678 was old state    683
 New state    679 was old state    678
 New state    680 was old state    682
 New state    681 was old state    685
 New state    682 was old state    679
 New state    683 was old state    680
 New state    684 was old state    681
 New state    685 was old state    684
 New state    686 was old state    687
 New state    687 was old state    686
 New state    688 was old state    689
 New state    689 was old state    691
 New state    690 was old state    688
 New state    691 was old state    690
 New state    697 was old state    699
 New state    698 was old state    700
 New state    699 was old state    701
 New state    700 was old state    698
 New state    701 was old state    697
 New state    702 was old state    708
 New state    705 was old state    702
 New state    706 was old state    707
 New state    707 was old state    709
 New state    708 was old state    706
 New state    709 was old state    705
 New state    710 was old state    712
 New state    711 was old state    714
 New state    712 was old state    710
 New state    713 was old state    715
 New state    714 was old state    718
 New state    715 was old state    716
 New state    716 was old state    717
 New state    717 was old state    713
 New state    718 was old state    722
 New state    720 was old state    723
 New state    721 was old state    711
 New state    722 was old state    727
 New state    723 was old state    721
 New state    725 was old state    726
 New state    726 was old state    725
 New state    727 was old state    728
 New state    728 was old state    720
 New state    731 was old state    734
 New state    733 was old state    731
 New state    734 was old state    735
 New state    735 was old state    736
 New state    736 was old state    733
 New state    743 was old state    747
 New state    744 was old state    745
 New state    745 was old state    743
 New state    746 was old state    749
 New state    747 was old state    744
 New state    749 was old state    750
 New state    750 was old state    746
 New state    754 was old state    755
 New state    755 was old state    754
 New state    757 was old state    758
 New state    758 was old state    760
 New state    759 was old state    766
 New state    760 was old state    759
 New state    762 was old state    764
 New state    763 was old state    765
 New state    764 was old state    762
 New state    765 was old state    757
 New state    766 was old state    763
 New state    770 was old state    771
 New state    771 was old state    770
 New state    776 was old state    778
 New state    777 was old state    776
 New state    778 was old state    777
 New state    780 was old state    782
 New state    781 was old state    783
 New state    782 was old state    781
 New state    783 was old state    780
 New state    784 was old state    786
 New state    786 was old state    784
 New state    787 was old state    789
 New state    789 was old state    790
 New state    790 was old state    787
 New state    795 was old state    796
 New state    796 was old state    795
 New state    804 was old state    805
 New state    805 was old state    806
 New state    806 was old state    804
 New state    807 was old state    808
 New state    808 was old state    807
 New state    813 was old state    815
 New state    815 was old state    813
 New state    816 was old state    817
 New state    817 was old state    816
 New state    818 was old state    819
 New state    819 was old state    818
 New state    821 was old state    822
 New state    822 was old state    821
 New state    824 was old state    825
 New state    825 was old state    824
 New state    827 was old state    828
 New state    828 was old state    830
 New state    829 was old state    827
 New state    830 was old state    829
 New state    832 was old state    834
 New state    833 was old state    832
 New state    834 was old state    833
 New state    835 was old state    837
 New state    836 was old state    835
 New state    837 was old state    836
 New state    839 was old state    840
 New state    840 was old state    839
 New state    846 was old state    847
 New state    847 was old state    846
 New state    852 was old state    853
 New state    853 was old state    852
 New state    861 was old state    863
 New state    862 was old state    861
 New state    863 was old state    862
 New state    869 was old state    872
 New state    870 was old state    871
 New state    871 was old state    869
 New state    872 was old state    870
 New state    873 was old state    875
 New state    874 was old state    876
 New state    875 was old state    873
 New state    876 was old state    874
 New state    878 was old state    879
 New state    879 was old state    881
 New state    881 was old state    878
 New state    882 was old state    885
 New state    883 was old state    882
 New state    885 was old state    883
 New state    887 was old state    888
 New state    888 was old state    887
 New state    890 was old state    891
 New state    891 was old state    890
 New state    893 was old state    894
 New state    894 was old state    893
 New state    895 was old state    897
 New state    897 was old state    899
 New state    898 was old state    895
 New state    899 was old state    901
 New state    901 was old state    898
 New state    905 was old state    906
 New state    906 was old state    905
 New state    908 was old state    909
 New state    909 was old state    908
 New state    913 was old state    915
 New state    914 was old state    913
 New state    915 was old state    916
 New state    916 was old state    914
 New state    917 was old state    919
 New state    918 was old state    921
 New state    919 was old state    918
 New state    920 was old state    917
 New state    921 was old state    920
 New state    922 was old state    924
 New state    923 was old state    925
 New state    924 was old state    922
 New state    925 was old state    923
 New state    928 was old state    930
 New state    929 was old state    928
 New state    930 was old state    929
 New state    933 was old state    934
 New state    934 was old state    933
 New state    935 was old state    940
 New state    937 was old state    935
 New state    939 was old state    937
 New state    940 was old state    939
 New state    946 was old state    947
 New state    947 was old state    946
 New state    949 was old state    950
 New state    950 was old state    949
 New state    951 was old state    952
 New state    952 was old state    951
 New state    953 was old state    955
 New state    955 was old state    953
 New state    956 was old state    957
 New state    957 was old state    959
 New state    958 was old state    956
 New state    959 was old state    958
 New state    963 was old state    965
 New state    964 was old state    963
 New state    965 was old state    966
 New state    966 was old state    967
 New state    967 was old state    964
 New state    969 was old state    970
 New state    970 was old state    969
 New state    971 was old state    972
 New state    972 was old state    971
 New state    973 was old state    978
 New state    974 was old state    977
 New state    977 was old state    973
 New state    978 was old state    974
 New state    979 was old state    980
 New state    980 was old state    983
 New state    981 was old state    982
 New state    982 was old state    981
 New state    983 was old state    987
 New state    984 was old state    979
 New state    985 was old state    986
 New state    986 was old state    985
 New state    987 was old state    988
 New state    988 was old state    984
 New state    989 was old state    993
 New state    990 was old state    991
 New state    991 was old state    989
 New state    992 was old state    990
 New state    993 was old state   1002
 New state    994 was old state    992
 New state    996 was old state    997
 New state    997 was old state    996
 New state    999 was old state    994
 New state   1000 was old state    999
 New state   1001 was old state   1004
 New state   1002 was old state   1000
 New state   1003 was old state   1001
 New state   1004 was old state   1003
 New state   1005 was old state   1007
 New state   1006 was old state   1005
 New state   1007 was old state   1006
 New state   1010 was old state   1014
 New state   1011 was old state   1013
 New state   1012 was old state   1011
 New state   1013 was old state   1015
 New state   1014 was old state   1010
 New state   1015 was old state   1016
 New state   1016 was old state   1012
 New state   1019 was old state   1020
 New state   1020 was old state   1019
 New state   1023 was old state   1025
 New state   1025 was old state   1023
 New state   1027 was old state   1028
 New state   1028 was old state   1027
 New state   1030 was old state   1032
 New state   1031 was old state   1030
 New state   1032 was old state   1031
 New state   1033 was old state   1035
 New state   1034 was old state   1039
 New state   1035 was old state   1037
 New state   1036 was old state   1033
 New state   1037 was old state   1034
 New state   1038 was old state   1044
 New state   1039 was old state   1042
 New state   1040 was old state   1038
 New state   1041 was old state   1036
 New state   1042 was old state   1041
 New state   1043 was old state   1040
 New state   1044 was old state   1048
 New state   1045 was old state   1046
 New state   1046 was old state   1047
 New state   1047 was old state   1043
 New state   1048 was old state   1045
 New state   1049 was old state   1054
 New state   1050 was old state   1052
 New state   1051 was old state   1050
 New state   1052 was old state   1049
 New state   1054 was old state   1051
 New state   1058 was old state   1061
 New state   1059 was old state   1062
 New state   1060 was old state   1058
 New state   1061 was old state   1059
 New state   1062 was old state   1060
 New state   1063 was old state   1064
 New state   1064 was old state   1063
 New state   1065 was old state   1068
 New state   1066 was old state   1065
 New state   1067 was old state   1066
 New state   1068 was old state   1067
 New state   1071 was old state   1072
 New state   1072 was old state   1071
 New state   1085 was old state   1086
 New state   1086 was old state   1085
 New state   1090 was old state   1092
 New state   1092 was old state   1094
 New state   1094 was old state   1090
 New state   1095 was old state   1096
 New state   1096 was old state   1095
 New state   1097 was old state   1099
 New state   1099 was old state   1097
 Excitation Energies [eV] at current iteration:
 Root      1 :     5.890671733990628
 Root      2 :     7.854921700975528
 Root      3 :     8.476555611733662
 Root      4 :     8.695552747271028
 Root      5 :     8.777409750643507
 Root      6 :     9.335246819637002
 Root      7 :     9.424419826531597
 Root      8 :     9.426709876030422
 Root      9 :     9.702268272174662
 Root     10 :    10.374041472383640
 Root     11 :    10.413989669714810
 Root     12 :    10.432436078649590
 Root     13 :    10.505541017125360
 Root     14 :    10.626062768673020
 Root     15 :    10.872253796872470
 Root     16 :    10.885618376819810
 Root     17 :    11.227154955029350
 Root     18 :    11.437069947715580
 Root     19 :    11.548731475658530
 Root     20 :    11.683600641650870
 Root     21 :    11.718006878047450
 Root     22 :    11.888661371936150
 Root     23 :    11.953124667910310
 Root     24 :    12.090404418318000
 Root     25 :    12.177658891516360
 Root     26 :    12.225241266229070
 Root     27 :    12.397358378356590
 Root     28 :    12.443372451648190
 Root     29 :    12.496261445175040
 Root     30 :    12.512200353533490
 Root     31 :    12.562577822689590
 Root     32 :    13.073023137727230
 Root     33 :    13.289256433187310
 Root     34 :    13.351965564287050
 Root     35 :    13.368960930193820
 Root     36 :    13.585247698055100
 Root     37 :    13.605208310617050
 Root     38 :    13.711556756843510
 Root     39 :    13.849845534212340
 Root     40 :    13.947741762324610
 Root     41 :    13.979226126773480
 Root     42 :    14.014516727247390
 Root     43 :    14.051978144390730
 Root     44 :    14.208699309895430
 Root     45 :    14.278433007687260
 Root     46 :    14.345159724290540
 Root     47 :    14.386295825754550
 Root     48 :    14.551314973726650
 Root     49 :    14.737222344192500
 Root     50 :    14.790581241786660
 Root     51 :    14.835460538133290
 Root     52 :    14.849997106746960
 Root     53 :    15.107052691380450
 Root     54 :    15.146724670276390
 Root     55 :    15.179713395990530
 Root     56 :    15.294047241193530
 Root     57 :    15.333602409438050
 Root     58 :    15.365962341259690
 Root     59 :    15.392576226491040
 Root     60 :    15.506798617029150
 Root     61 :    15.543340365061340
 Root     62 :    15.553393042939530
 Root     63 :    15.675773380473800
 Root     64 :    15.752561399464030
 Root     65 :    15.805604602230690
 Root     66 :    15.854996607766020
 Root     67 :    15.983612677554550
 Root     68 :    15.988927318962410
 Root     69 :    16.142702806628210
 Root     70 :    16.262695190906250
 Root     71 :    16.286376651120530
 Root     72 :    16.307698699365850
 Root     73 :    16.403664298368650
 Root     74 :    16.435502091901870
 Root     75 :    16.491439209401230
 Root     76 :    16.537900641350390
 Root     77 :    16.560646642283070
 Root     78 :    16.586953276089260
 Root     79 :    16.801809856388500
 Root     80 :    16.894993495235860
 Root     81 :    16.905006196355600
 Root     82 :    16.940696723968490
 Root     83 :    17.059925409059940
 Root     84 :    17.132321074278000
 Root     85 :    17.143338155305580
 Root     86 :    17.200859995015260
 Root     87 :    17.253346150729130
 Root     88 :    17.337898734327050
 Root     89 :    17.400548311178780
 Root     90 :    17.466388898231910
 Root     91 :    17.518145683933170
 Root     92 :    17.642299346554690
 Root     93 :    17.673642708354460
 Root     94 :    17.744804640108570
 Root     95 :    17.817876279892940
 Root     96 :    17.988333807231440
 Root     97 :    17.991459984217800
 Root     98 :    18.141937256745860
 Root     99 :    18.257515802148640
 Root    100 :    18.329210208850320
 Root    101 :    18.342635718866230
 Root    102 :    18.491112661804060
 Root    103 :    18.523197123333170
 Root    104 :    18.597488457747460
 Root    105 :    18.701282281549030
 Root    106 :    18.731985461757980
 Root    107 :    18.834974742479470
 Root    108 :    18.842025012846290
 Root    109 :    18.877089066649290
 Root    110 :    18.973661138356930
 Root    111 :    19.018961931094430
 Root    112 :    19.052243089699440
 Root    113 :    19.118062478320660
 Root    114 :    19.194841231416760
 Root    115 :    19.305064517057520
 Root    116 :    19.314785479480230
 Root    117 :    19.413770696174250
 Root    118 :    19.553230018385100
 Root    119 :    19.614546724382200
 Root    120 :    19.646772550605390
 Root    121 :    19.687940973587650
 Root    122 :    19.761548816446030
 Root    123 :    19.831722204655560
 Root    124 :    19.891293122859870
 Root    125 :    19.919640832557250
 Root    126 :    19.929945296856210
 Root    127 :    19.954797210864210
 Root    128 :    19.967478623495330
 Root    129 :    20.051822360897050
 Root    130 :    20.154806532410130
 Root    131 :    20.216191436210710
 Root    132 :    20.245567444542320
 Root    133 :    20.471473315239630
 Root    134 :    20.479881257550570
 Root    135 :    20.545331868945390
 Root    136 :    20.615344554414890
 Root    137 :    20.660584339588940
 Root    138 :    20.684547955055200
 Root    139 :    20.771123416193640
 Root    140 :    20.831198970718520
 Root    141 :    20.883656151009080
 Root    142 :    20.988652907005230
 Root    143 :    21.063739015114890
 Root    144 :    21.128424961830910
 Root    145 :    21.179904494607770
 Root    146 :    21.224660821266900
 Root    147 :    21.295969571172030
 Root    148 :    21.344960280875980
 Root    149 :    21.434708037460360
 Root    150 :    21.455850195815400
 Root    151 :    21.517384185460000
 Root    152 :    21.630170198906900
 Root    153 :    21.667800992426560
 Root    154 :    21.775771170249300
 Root    155 :    21.861136760659790
 Root    156 :    21.946109627990010
 Root    157 :    21.958921200024270
 Root    158 :    22.045585366550470
 Root    159 :    22.096613218388600
 Root    160 :    22.192476181886640
 Root    161 :    22.197288022090720
 Root    162 :    22.219637261065110
 Root    163 :    22.310629878452810
 Root    164 :    22.369247540665220
 Root    165 :    22.382747074466020
 Root    166 :    22.614428782311520
 Root    167 :    22.640085299120770
 Root    168 :    22.684807027143070
 Root    169 :    22.737268372242350
 Root    170 :    22.751124318607920
 Root    171 :    22.948702355910080
 Root    172 :    23.013177296965840
 Root    173 :    23.014545123006490
 Root    174 :    23.068833082176870
 Root    175 :    23.117156130991680
 Root    176 :    23.142566342217970
 Root    177 :    23.170009724974650
 Root    178 :    23.259099056454330
 Root    179 :    23.382039386119480
 Root    180 :    23.390087243422310
 Root    181 :    23.460238345494750
 Root    182 :    23.490540403393130
 Root    183 :    23.616804570374840
 Root    184 :    23.642833664373920
 Root    185 :    23.738834359187140
 Root    186 :    23.762469069112230
 Root    187 :    23.796351040091620
 Root    188 :    23.872211711096000
 Root    189 :    24.067938058111250
 Root    190 :    24.084520275066050
 Root    191 :    24.145233204261330
 Root    192 :    24.226165734291770
 Root    193 :    24.279051314892460
 Root    194 :    24.383092005722680
 Root    195 :    24.487378237451330
 Root    196 :    24.571710263827000
 Root    197 :    24.590937840902470
 Root    198 :    24.606494878741930
 Root    199 :    24.757521683202110
 Root    200 :    24.820592253160130
 Root    201 :    25.031569701838970
 Root    202 :    25.071470076101490
 Root    203 :    25.190863830164480
 Root    204 :    25.256961994959720
 Root    205 :    25.271571052491180
 Root    206 :    25.327467276093560
 Root    207 :    25.504458358120360
 Root    208 :    25.611138639393070
 Root    209 :    25.764385890692900
 Root    210 :    25.842133774525340
 Root    211 :    25.914441794518440
 Root    212 :    25.955223551060890
 Root    213 :    26.025479930192220
 Root    214 :    26.049872511634140
 Root    215 :    26.089681708944750
 Root    216 :    26.173665709174140
 Root    217 :    26.198099344092250
 Root    218 :    26.315831332740000
 Root    219 :    26.527170342946470
 Root    220 :    26.605629376580430
 Root    221 :    26.657031870347660
 Root    222 :    26.700063539258470
 Root    223 :    26.730244217555190
 Root    224 :    26.801028005256150
 Root    225 :    26.808968270668140
 Root    226 :    26.878114610466280
 Root    227 :    26.986952561901400
 Root    228 :    27.094389577137290
 Root    229 :    27.129911667669560
 Root    230 :    27.207346539993820
 Root    231 :    27.244248224288400
 Root    232 :    27.375809223490480
 Root    233 :    27.510819706138790
 Root    234 :    27.586330011651360
 Root    235 :    27.593212618634390
 Root    236 :    27.669674330970620
 Root    237 :    27.691813169856520
 Root    238 :    27.815864225977280
 Root    239 :    27.965980523813710
 Root    240 :    28.115484823417350
 Root    241 :    28.145042281169760
 Root    242 :    28.239931795319340
 Root    243 :    28.277814969844090
 Root    244 :    28.315484795695060
 Root    245 :    28.346404571159920
 Root    246 :    28.535953414429710
 Root    247 :    28.575562321277390
 Root    248 :    28.591039184843190
 Root    249 :    28.737348383392110
 Root    250 :    28.771484357399470
 Root    251 :    28.792158644054150
 Root    252 :    28.823167069136260
 Root    253 :    28.849130429719840
 Root    254 :    29.034599366022470
 Root    255 :    29.106081094510180
 Root    256 :    29.306301665333410
 Root    257 :    29.329208468023460
 Root    258 :    29.435522874739990
 Root    259 :    29.520037064051030
 Root    260 :    29.528703503943290
 Root    261 :    29.607402800574300
 Root    262 :    29.706036859839890
 Root    263 :    29.770124365326420
 Root    264 :    29.777954889029060
 Root    265 :    29.863482397082710
 Root    266 :    29.960313560316690
 Root    267 :    29.970284655206100
 Root    268 :    30.072392519675130
 Root    269 :    30.233675909371960
 Root    270 :    30.309383960611960
 Root    271 :    30.429963937920320
 Root    272 :    30.602664276116850
 Root    273 :    30.631948208218050
 Root    274 :    30.687654960364510
 Root    275 :    30.746291852490800
 Root    276 :    30.755751145435390
 Root    277 :    30.814049954875780
 Root    278 :    30.895857349601440
 Root    279 :    30.938225011192490
 Root    280 :    31.013618823140330
 Root    281 :    31.113501613065620
 Root    282 :    31.316977615770710
 Root    283 :    31.370456506564450
 Root    284 :    31.444453738144730
 Root    285 :    31.466462352675140
 Root    286 :    31.592040957856400
 Root    287 :    31.667636022748660
 Root    288 :    31.690788107793790
 Root    289 :    31.748259011057340
 Root    290 :    31.790478118912650
 Root    291 :    31.902211122349850
 Root    292 :    31.905973977809520
 Root    293 :    31.965581921156880
 Root    294 :    32.074189361317790
 Root    295 :    32.302707218197970
 Root    296 :    32.363801144217870
 Root    297 :    32.370306665777020
 Root    298 :    32.425294649694210
 Root    299 :    32.593199750058350
 Root    300 :    32.766021504339970
 Root    301 :    32.837025082047060
 Root    302 :    32.881255553317580
 Root    303 :    32.950949027833000
 Root    304 :    32.959840140208110
 Root    305 :    33.050312388548880
 Root    306 :    33.070501397573120
 Root    307 :    33.103062647367470
 Root    308 :    33.320980373215160
 Root    309 :    33.454204023144840
 Root    310 :    33.539678574102770
 Root    311 :    33.611494576586490
 Root    312 :    33.647642330163560
 Root    313 :    33.704840295490920
 Root    314 :    33.733966212217890
 Root    315 :    33.806737044347970
 Root    316 :    33.821310373291580
 Root    317 :    33.874671442301220
 Root    318 :    33.883988697036010
 Root    319 :    33.905524851921560
 Root    320 :    33.939252755056810
 Root    321 :    34.039789602770180
 Root    322 :    34.119496189771890
 Root    323 :    34.286047382500570
 Root    324 :    34.361105207959990
 Root    325 :    34.468697696878440
 Root    326 :    34.596744330281060
 Root    327 :    34.728338625724900
 Root    328 :    34.772948869524820
 Root    329 :    34.805074268039910
 Root    330 :    34.927954583578940
 Root    331 :    35.074593981643630
 Root    332 :    35.183396949720470
 Root    333 :    35.233043474531510
 Root    334 :    35.243056241622370
 Root    335 :    35.352106742306770
 Root    336 :    35.413198364947060
 Root    337 :    35.437302301599030
 Root    338 :    35.781059338939020
 Root    339 :    35.925274993298800
 Root    340 :    35.968361629364260
 Root    341 :    36.089123444045260
 Root    342 :    36.113142756991200
 Root    343 :    36.142121152584290
 Root    344 :    36.221783592986280
 Root    345 :    36.343116499276880
 Root    346 :    36.357832227917500
 Root    347 :    36.456749009711160
 Root    348 :    36.459115110233060
 Root    349 :    36.610671387470840
 Root    350 :    36.648067147490920
 Root    351 :    36.693586930534490
 Root    352 :    36.819803498137410
 Root    353 :    36.864985724194610
 Root    354 :    36.868946410319880
 Root    355 :    36.942708617572820
 Root    356 :    37.027287050380250
 Root    357 :    37.030358241746040
 Root    358 :    37.205073467210460
 Root    359 :    37.252703757664950
 Root    360 :    37.351718769902030
 Root    361 :    37.437974020003910
 Root    362 :    37.617605562368890
 Root    363 :    37.766740079184910
 Root    364 :    37.807848382474820
 Root    365 :    37.836952145344550
 Root    366 :    37.844733686498370
 Root    367 :    37.923123529730000
 Root    368 :    37.994641679260930
 Root    369 :    38.036884284376370
 Root    370 :    38.083551107906950
 Root    371 :    38.123108475112540
 Root    372 :    38.266552229502690
 Root    373 :    38.295346880483200
 Root    374 :    38.310981489856670
 Root    375 :    38.350771490562270
 Root    376 :    38.457918408866360
 Root    377 :    38.519472485323850
 Root    378 :    38.567002730882660
 Root    379 :    38.719249399208170
 Root    380 :    38.885911510928200
 Root    381 :    39.221288816511480
 Root    382 :    39.331719005087290
 Root    383 :    39.446336300595960
 Root    384 :    39.516993881573090
 Root    385 :    39.615481810453350
 Root    386 :    39.688279922097660
 Root    387 :    39.746362593687860
 Root    388 :    39.827597652781360
 Root    389 :    40.072188134011270
 Root    390 :    40.232371697873630
 Root    391 :    40.295081728837130
 Root    392 :    40.338478853408840
 Root    393 :    40.467036713237460
 Root    394 :    40.708278707047310
 Root    395 :    40.741287942675670
 Root    396 :    40.892747944604710
 Root    397 :    40.942465868121270
 Root    398 :    41.025970130770190
 Root    399 :    41.080352016140840
 Root    400 :    41.191275139630960
 Root    401 :    41.206068555969180
 Root    402 :    41.390585743385020
 Root    403 :    41.493227255732940
 Root    404 :    41.749682544858230
 Root    405 :    41.788391818476480
 Root    406 :    41.936257677828390
 Root    407 :    42.040889915499830
 Root    408 :    42.149994296343580
 Root    409 :    42.194752214902760
 Root    410 :    42.229238099092470
 Root    411 :    42.289261720143810
 Root    412 :    42.526353311763510
 Root    413 :    42.675380538760000
 Root    414 :    42.677783148950550
 Root    415 :    42.772951217164800
 Root    416 :    42.788764903331660
 Root    417 :    42.927113000655960
 Root    418 :    42.956783476543170
 Root    419 :    43.138062160879820
 Root    420 :    43.168533047093450
 Root    421 :    43.249324046451530
 Root    422 :    43.332285928924290
 Root    423 :    43.427677411566380
 Root    424 :    43.540782937247190
 Root    425 :    43.762504821138230
 Root    426 :    43.874230914240820
 Root    427 :    44.199541998739320
 Root    428 :    44.395425806835550
 Root    429 :    44.401549735986580
 Root    430 :    44.454476159939400
 Root    431 :    44.588849129042100
 Root    432 :    44.851540256035780
 Root    433 :    45.306605138111440
 Root    434 :    45.396130643910560
 Root    435 :    45.641536675918810
 Root    436 :    45.692097023590210
 Root    437 :    46.113620380739830
 Root    438 :    46.164093561984930
 Root    439 :    46.181998272903690
 Root    440 :    46.277815117819400
 Root    441 :    46.294212874333360
 Root    442 :    46.681705136708740
 Root    443 :    46.898816589632840
 Root    444 :    46.946071305082160
 Root    445 :    47.065375512488050
 Root    446 :    47.182761659823430
 Root    447 :    47.587193349862300
 Root    448 :    47.657017397128020
 Root    449 :    47.986389815759400
 Root    450 :    48.048661703677630
 Root    451 :    48.435827299490680
 Root    452 :    48.538056078818920
 Root    453 :    48.708774216581060
 Root    454 :    49.079566717114550
 Root    455 :    49.297956706206140
 Root    456 :    49.394526073005980
 Root    457 :    49.458011295243120
 Root    458 :    49.745838985998870
 Root    459 :    49.748561995521150
 Root    460 :    50.234674285534530
 Root    461 :    50.342781778194420
 Root    462 :    50.562301408264520
 Root    463 :    50.714488189672940
 Root    464 :    50.772524991242310
 Root    465 :    50.835176099852450
 Root    466 :    51.080096209936930
 Root    467 :    51.235125148558180
 Root    468 :    51.616103081736680
 Root    469 :    51.890138047083180
 Root    470 :    52.136464942432690
 Root    471 :    52.294603735428770
 Root    472 :    52.328332613301460
 Root    473 :    52.395313705247160
 Root    474 :    52.705670072517710
 Root    475 :    52.822820580192520
 Root    476 :    52.992434211109590
 Root    477 :    53.392220813337120
 Root    478 :    53.515965365945430
 Root    479 :    53.697010760640790
 Root    480 :    53.750229580671920
 Root    481 :    53.845284052695460
 Root    482 :    53.877291086479920
 Root    483 :    54.120060430367640
 Root    484 :    54.137680422975420
 Root    485 :    54.375608922907460
 Root    486 :    54.720162598137130
 Root    487 :    54.948413947504380
 Root    488 :    55.029145868925070
 Root    489 :    55.157913925925760
 Root    490 :    55.212970988769950
 Root    491 :    55.215760607689920
 Root    492 :    55.363940611400540
 Root    493 :    55.452667440801870
 Root    494 :    55.528562884648270
[...]
     10   0.000000D+00 -0.122396D+01  0.000000D+00 -0.259778D-01  0.597929D-01
     11   0.000000D+00  0.951697D+00  0.000000D+00  0.359582D+00 -0.954431D+00
     12   0.000000D+00 -0.259896D+00  0.000000D+00  0.374700D-01 -0.327349D+00
     13   0.000000D+00  0.970529D-02  0.000000D+00  0.703045D-01  0.340653D-01
     14   0.000000D+00 -0.126760D+01  0.000000D+00  0.352070D-01 -0.393754D+00
     15  -0.676323D+00  0.000000D+00 -0.286253D+00  0.000000D+00  0.000000D+00
     16  -0.112568D+00  0.000000D+00 -0.998310D-01  0.000000D+00  0.000000D+00
              1041          1042          1043          1044          1045 
      1  -0.182325D+03 -0.182314D+03 -0.182285D+03 -0.182267D+03 -0.182263D+03
      2   0.000000D+00  0.000000D+00  0.478826D-01  0.000000D+00  0.443984D-02
      3   0.000000D+00  0.000000D+00  0.543980D-02  0.000000D+00 -0.164964D-02
      4   0.203560D-01  0.342813D-01  0.000000D+00  0.944962D-02  0.000000D+00
      5   0.000000D+00  0.000000D+00 -0.352175D+00  0.000000D+00 -0.103992D-01
      6   0.000000D+00  0.000000D+00 -0.422297D-01  0.000000D+00 -0.105046D-01
      7  -0.136963D+00 -0.265306D+00  0.000000D+00 -0.697556D-01  0.000000D+00
      8  -0.619885D-03 -0.127376D+00  0.000000D+00  0.243625D-01  0.000000D+00
      9  -0.273936D-01  0.855022D+00  0.000000D+00 -0.377623D-01  0.000000D+00
     10   0.000000D+00  0.000000D+00 -0.638692D+00  0.000000D+00  0.619395D-01
     11   0.000000D+00  0.000000D+00 -0.877221D-01  0.000000D+00  0.219712D+00
     12   0.000000D+00  0.000000D+00 -0.264381D+00  0.000000D+00  0.131674D+00
     13   0.000000D+00  0.000000D+00  0.180956D-01  0.000000D+00  0.453099D-02
     14   0.000000D+00  0.000000D+00 -0.556744D+00  0.000000D+00 -0.713928D-01
     15   0.220201D-02 -0.101199D+01  0.000000D+00  0.254845D-01  0.000000D+00
     16  -0.134713D-01 -0.139619D+00  0.000000D+00 -0.781116D-01  0.000000D+00
              1046          1047          1048          1049          1050 
      1  -0.182256D+03 -0.182253D+03 -0.182250D+03 -0.182226D+03 -0.182210D+03
      2   0.000000D+00  0.000000D+00  0.346426D-01  0.109064D-01 -0.386800D-02
      3   0.000000D+00  0.000000D+00  0.243866D-01  0.431417D-02  0.118863D-01
      4   0.104724D-01 -0.318887D-03  0.000000D+00  0.000000D+00  0.000000D+00
      5   0.000000D+00  0.000000D+00 -0.298916D+00 -0.918683D-01  0.346087D-01
      6   0.000000D+00  0.000000D+00 -0.182158D+00 -0.899351D-02 -0.966289D-01
      7  -0.775262D-01  0.277573D-02  0.000000D+00  0.000000D+00  0.000000D+00
      8  -0.880026D-02  0.286623D-01  0.000000D+00  0.000000D+00  0.000000D+00
      9   0.780862D-02 -0.108603D+00  0.000000D+00  0.000000D+00  0.000000D+00
     10   0.000000D+00  0.000000D+00 -0.262628D+00 -0.141449D-01 -0.234984D+00
     11   0.000000D+00  0.000000D+00  0.571136D+00  0.153018D+01 -0.129408D+01
     12   0.000000D+00  0.000000D+00 -0.759096D-01  0.631239D-02 -0.957994D-01
     13   0.000000D+00  0.000000D+00 -0.115748D-01 -0.257399D-01  0.592671D-01
     14   0.000000D+00  0.000000D+00 -0.899396D-01  0.472498D+00 -0.565483D+00
     15  -0.120950D-01  0.134161D+00  0.000000D+00  0.000000D+00  0.000000D+00
     16   0.297479D-01  0.304209D-02  0.000000D+00  0.000000D+00  0.000000D+00
              1051          1052          1053          1054          1055 
      1  -0.182200D+03 -0.182196D+03 -0.182193D+03 -0.182178D+03 -0.182172D+03
      2   0.565375D-01  0.869031D-01  0.000000D+00  0.101803D-01 -0.844904D-02
      3   0.246921D-01 -0.245975D-01  0.000000D+00  0.109637D-01 -0.393591D-01
      4   0.000000D+00  0.000000D+00  0.535494D-02  0.000000D+00  0.000000D+00
      5  -0.423360D+00 -0.654440D+00  0.000000D+00 -0.702641D-01  0.527935D-01
      6  -0.184025D+00  0.191019D+00  0.000000D+00 -0.922020D-01  0.263081D+00
      7   0.000000D+00  0.000000D+00 -0.388813D-01  0.000000D+00  0.000000D+00
      8   0.000000D+00  0.000000D+00  0.159148D-01  0.000000D+00  0.000000D+00
      9   0.000000D+00  0.000000D+00 -0.323819D-01  0.000000D+00  0.000000D+00
     10   0.556556D-01  0.408663D+00  0.000000D+00 -0.213640D+00  0.258090D-01
     11  -0.207086D+01 -0.129018D+01  0.000000D+00 -0.106981D+00 -0.111623D+01
     12   0.119725D+00  0.157189D+00  0.000000D+00 -0.497669D-02 -0.785303D-01
     13   0.107255D-01  0.724395D-01  0.000000D+00 -0.987591D-02 -0.582043D-02
     14  -0.183574D+00  0.582816D+00  0.000000D+00 -0.214596D+00 -0.153489D+00
     15   0.000000D+00  0.000000D+00  0.379068D-01  0.000000D+00  0.000000D+00
     16   0.000000D+00  0.000000D+00 -0.208985D-01  0.000000D+00  0.000000D+00
              1056          1057          1058          1059          1060 
      1  -0.182158D+03 -0.182157D+03 -0.182127D+03 -0.182125D+03 -0.182119D+03
      2   0.000000D+00  0.295366D-01  0.987332D-02  0.000000D+00  0.507170D-01
      3   0.000000D+00  0.711741D-01  0.621663D-02  0.000000D+00 -0.139646D-01
      4  -0.322190D-01  0.000000D+00  0.000000D+00 -0.118140D-02  0.000000D+00
      5   0.000000D+00 -0.222561D+00 -0.669802D-01  0.000000D+00 -0.374371D+00
      6   0.000000D+00 -0.508514D+00 -0.485515D-01  0.000000D+00  0.101076D+00
      7   0.267086D+00  0.000000D+00  0.000000D+00  0.111554D-01  0.000000D+00
      8  -0.832488D-01  0.000000D+00  0.000000D+00 -0.105972D-01  0.000000D+00
      9   0.237513D-01  0.000000D+00  0.000000D+00  0.642052D-01  0.000000D+00
     10   0.000000D+00  0.903832D+00 -0.236940D+00  0.000000D+00  0.320066D+00
     11   0.000000D+00  0.643400D+00  0.834858D-01  0.000000D+00 -0.198667D+01
     12   0.000000D+00  0.771727D+00 -0.203542D-01  0.000000D+00  0.979110D-01
     13   0.000000D+00 -0.154532D-01 -0.157080D-01  0.000000D+00  0.539515D-01
     14   0.000000D+00  0.146475D+01 -0.198641D+00  0.000000D+00  0.653780D-01
     15  -0.378115D-01  0.000000D+00  0.000000D+00 -0.134648D+00  0.000000D+00
     16  -0.949190D-01  0.000000D+00  0.000000D+00 -0.538900D-01  0.000000D+00
              1061          1062          1063          1064          1065 
      1  -0.182109D+03 -0.182088D+03 -0.182057D+03 -0.182050D+03 -0.182048D+03
      2   0.000000D+00 -0.184238D-01  0.592969D-02 -0.233782D-02  0.000000D+00
      3   0.000000D+00 -0.160138D-01  0.106372D-01  0.236488D-02  0.000000D+00
      4  -0.174096D-02  0.000000D+00  0.000000D+00  0.000000D+00 -0.102725D-01
      5   0.000000D+00  0.144953D+00 -0.339269D-01  0.165875D-01  0.000000D+00
      6   0.000000D+00  0.139186D+00 -0.946628D-01 -0.151171D-01  0.000000D+00
      7   0.251370D-01  0.000000D+00  0.000000D+00  0.000000D+00  0.960984D-01
      8   0.270498D-01  0.000000D+00  0.000000D+00  0.000000D+00 -0.222188D-04
      9  -0.143532D+00  0.000000D+00  0.000000D+00  0.000000D+00 -0.186751D+00
     10   0.000000D+00  0.164275D+00 -0.161772D-01 -0.278467D+00  0.000000D+00
     11   0.000000D+00 -0.142067D+00  0.566260D+00 -0.588950D+00  0.000000D+00
     12   0.000000D+00 -0.120819D+00  0.986168D-01 -0.164516D+00  0.000000D+00
     13   0.000000D+00  0.444245D-01 -0.165681D-01 -0.610342D-02  0.000000D+00
     14   0.000000D+00  0.393684D-01  0.187688D+00 -0.464778D+00  0.000000D+00
     15   0.158951D+00  0.000000D+00  0.000000D+00  0.000000D+00  0.274615D+00
     16  -0.163385D-01  0.000000D+00  0.000000D+00  0.000000D+00 -0.398528D-01
              1066          1067          1068          1069          1070 
      1  -0.182042D+03 -0.182023D+03 -0.182006D+03 -0.181977D+03 -0.181925D+03
      2  -0.297748D-01 -0.326286D-01  0.000000D+00  0.859345D-02 -0.630551D-02
      3   0.326931D-01 -0.379039D-01  0.000000D+00  0.724126D-02  0.982985D-02
      4   0.000000D+00  0.000000D+00 -0.155997D-02  0.000000D+00  0.000000D+00
      5   0.223309D+00  0.246858D+00  0.000000D+00 -0.760447D-01  0.526199D-01
      6  -0.225198D+00  0.273104D+00  0.000000D+00 -0.484766D-01 -0.568782D-01
      7   0.000000D+00  0.000000D+00  0.429654D-03  0.000000D+00  0.000000D+00
      8   0.000000D+00  0.000000D+00  0.363596D-01  0.000000D+00  0.000000D+00
      9   0.000000D+00  0.000000D+00 -0.982535D-01  0.000000D+00  0.000000D+00
     10   0.707669D+00 -0.228994D+00  0.000000D+00 -0.159218D+00 -0.895362D-01
     11  -0.128093D+01 -0.132421D+01  0.000000D+00  0.163179D+00  0.524344D+00
     12   0.411978D+00 -0.402751D+00  0.000000D+00 -0.109514D+00 -0.331297D-02
     13   0.373829D-01 -0.238683D-03  0.000000D+00  0.164196D-01  0.104958D-01
     14   0.356242D+00 -0.716804D+00  0.000000D+00 -0.708430D-01  0.236190D+00
     15   0.000000D+00  0.000000D+00  0.148815D+00  0.000000D+00  0.000000D+00
     16   0.000000D+00  0.000000D+00  0.405467D-01  0.000000D+00  0.000000D+00
              1071          1072          1073          1074          1075 
      1  -0.181904D+03 -0.181874D+03 -0.181840D+03 -0.181769D+03 -0.181668D+03
      2   0.387812D-01  0.000000D+00  0.209435D-01  0.164059D-02 -0.102174D-01
      3  -0.223196D-01  0.000000D+00 -0.520008D-02 -0.200667D-03 -0.812665D-02
      4   0.000000D+00  0.710111D-03  0.000000D+00  0.000000D+00  0.000000D+00
      5  -0.283165D+00  0.000000D+00 -0.168992D+00  0.109190D-01  0.903716D-01
      6   0.158203D+00  0.000000D+00  0.448304D-01  0.993502D-02  0.614985D-01
      7   0.000000D+00  0.998553D-02  0.000000D+00  0.000000D+00  0.000000D+00
      8   0.000000D+00 -0.186670D-01  0.000000D+00  0.000000D+00  0.000000D+00
      9   0.000000D+00 -0.495093D-01  0.000000D+00  0.000000D+00  0.000000D+00
     10  -0.388120D+00  0.000000D+00 -0.605707D-02  0.166220D+00 -0.101837D+00
     11   0.870876D+00  0.000000D+00  0.122893D+00 -0.415066D+00 -0.167165D-01
     12  -0.200470D+00  0.000000D+00 -0.815670D-01  0.312745D-01 -0.435878D-01
     13  -0.345036D-01  0.000000D+00  0.238460D-01 -0.148047D-01 -0.130345D-01
     14  -0.236627D+00  0.000000D+00  0.960189D-01  0.524507D-01 -0.823158D-02
     15   0.000000D+00  0.768233D-01  0.000000D+00  0.000000D+00  0.000000D+00
     16   0.000000D+00 -0.152057D-01  0.000000D+00  0.000000D+00  0.000000D+00
              1076          1077          1078          1079          1080 
      1  -0.181612D+03 -0.181584D+03 -0.181544D+03 -0.181475D+03 -0.181442D+03
      2   0.208615D-02  0.312863D-02  0.830688D-03 -0.135851D-01  0.244128D-02
      3   0.718746D-02 -0.349614D-02  0.588279D-02  0.384775D-02 -0.133201D-02
      4   0.000000D+00  0.000000D+00  0.000000D+00  0.000000D+00  0.000000D+00
      5  -0.273952D-01 -0.460608D-01  0.451880D-02  0.104856D+00 -0.113132D-01
      6  -0.465522D-01  0.195245D-01 -0.684491D-01 -0.324364D-01  0.245965D-01
      7   0.000000D+00  0.000000D+00  0.000000D+00  0.000000D+00  0.000000D+00
      8   0.000000D+00  0.000000D+00  0.000000D+00  0.000000D+00  0.000000D+00
      9   0.000000D+00  0.000000D+00  0.000000D+00  0.000000D+00  0.000000D+00
     10   0.689584D-02 -0.937244D-02  0.123405D+00 -0.402387D-01 -0.914964D-02
     11   0.254739D+00  0.313168D+00  0.603700D-02 -0.697813D-01  0.203753D+00
     12  -0.433085D-01  0.809784D-02  0.169343D+00 -0.353730D-01 -0.616649D-01
     13  -0.244609D-01 -0.503602D-02  0.215154D-01 -0.514589D-02 -0.156582D-01
     14   0.113237D+00  0.727284D-01  0.923249D-01 -0.113432D-02  0.147607D-01
     15   0.000000D+00  0.000000D+00  0.000000D+00  0.000000D+00  0.000000D+00
     16   0.000000D+00  0.000000D+00  0.000000D+00  0.000000D+00  0.000000D+00
              1081          1082          1083          1084          1085 
      1  -0.166454D+03 -0.166414D+03 -0.166349D+03 -0.166317D+03 -0.166263D+03
      2  -0.142203D-02  0.000000D+00  0.786408D-02  0.000000D+00 -0.230200D-02
      3   0.373405D-02  0.000000D+00 -0.510546D-02  0.000000D+00 -0.934501D-02
      4   0.000000D+00  0.512009D-02  0.000000D+00 -0.644004D-02  0.000000D+00
      5   0.130635D-01  0.000000D+00 -0.980821D-01  0.000000D+00  0.390233D-01
      6  -0.364658D-01  0.000000D+00  0.702224D-01  0.000000D+00  0.121608D+00
      7   0.000000D+00 -0.613146D-01  0.000000D+00  0.809687D-01  0.000000D+00
      8   0.000000D+00 -0.387773D-01  0.000000D+00  0.749956D-01  0.000000D+00
      9   0.000000D+00 -0.122762D-01  0.000000D+00 -0.154069D-01  0.000000D+00
     10  -0.143991D-01  0.000000D+00  0.626133D-01  0.000000D+00 -0.260350D-01
     11   0.184199D-02  0.000000D+00  0.111832D-01  0.000000D+00  0.162289D-01
     12  -0.829979D-01  0.000000D+00  0.948841D-01  0.000000D+00  0.259027D+00
     13  -0.194971D-02  0.000000D+00 -0.141604D-01  0.000000D+00  0.192050D-01
     14   0.219643D-01  0.000000D+00 -0.126772D+00  0.000000D+00  0.293273D-01
     15   0.000000D+00  0.178740D-01  0.000000D+00  0.137432D-01  0.000000D+00
     16   0.000000D+00 -0.418434D-01  0.000000D+00  0.714540D-01  0.000000D+00
              1086          1087          1088          1089          1090 
      1  -0.166243D+03 -0.166082D+03 -0.165724D+03 -0.165622D+03 -0.145661D+03
      2   0.117637D-02  0.916839D-02 -0.640852D-02  0.435597D-02  0.227606D-02
      3   0.341677D-02 -0.501702D-02 -0.313650D-02  0.797657D-03  0.985427D-02
      4   0.000000D+00  0.000000D+00  0.000000D+00  0.000000D+00  0.000000D+00
      5  -0.325961D-01 -0.952142D-01  0.105853D+00 -0.391284D-01 -0.248394D-01
      6  -0.227217D-01  0.415260D-01  0.213820D-01 -0.358770D-01 -0.236956D+00
      7   0.000000D+00  0.000000D+00  0.000000D+00  0.000000D+00  0.000000D+00
      8   0.000000D+00  0.000000D+00  0.000000D+00  0.000000D+00  0.000000D+00
      9   0.000000D+00  0.000000D+00  0.000000D+00  0.000000D+00  0.000000D+00
     10   0.435853D-01  0.830851D-01 -0.893086D-01  0.343463D-01 -0.495288D+00
     11  -0.341854D-02  0.560956D-01  0.119498D+00  0.247644D+00 -0.439472D+00
     12  -0.693582D-01  0.209331D+00  0.598475D-01  0.121131D+00 -0.115033D+00
     13  -0.991127D-01  0.128922D+00  0.699592D-01  0.105705D+00 -0.619861D-02
     14  -0.309450D-02 -0.828349D-01 -0.793708D-02  0.425942D-01 -0.599845D+00
     15   0.000000D+00  0.000000D+00  0.000000D+00  0.000000D+00  0.000000D+00
     16   0.000000D+00  0.000000D+00  0.000000D+00  0.000000D+00  0.000000D+00
              1091          1092          1093          1094          1095 
      1  -0.145626D+03 -0.145579D+03 -0.145569D+03 -0.145511D+03 -0.145488D+03
      2   0.000000D+00  0.929858D-02  0.000000D+00 -0.259980D-02  0.111644D-01
      3   0.000000D+00  0.279065D-02  0.000000D+00 -0.565962D-02 -0.716351D-02
      4   0.168840D-01  0.000000D+00 -0.718073D-02  0.000000D+00  0.000000D+00
      5   0.000000D+00 -0.219110D+00  0.000000D+00  0.680931D-01 -0.264617D+00
      6   0.000000D+00 -0.482213D-01  0.000000D+00  0.109080D+00  0.142823D+00
      7  -0.309825D+00  0.000000D+00  0.124950D+00  0.000000D+00  0.000000D+00
      8   0.182039D+00  0.000000D+00  0.118795D+00  0.000000D+00  0.000000D+00
      9  -0.305519D+00  0.000000D+00 -0.637550D+00  0.000000D+00  0.000000D+00
     10   0.000000D+00 -0.360963D+00  0.000000D+00 -0.284582D+00 -0.220560D-01
     11   0.000000D+00  0.930810D+00  0.000000D+00  0.839187D+00 -0.682102D+00
     12   0.000000D+00 -0.364704D-02  0.000000D+00 -0.962290D-01 -0.148969D+00
     13   0.000000D+00  0.439152D-01  0.000000D+00  0.101350D+00 -0.280925D-01
     14   0.000000D+00  0.128718D-01  0.000000D+00 -0.152955D+00 -0.132477D-01
     15   0.309491D+00  0.000000D+00  0.644575D+00  0.000000D+00  0.000000D+00
     16   0.172527D+00  0.000000D+00  0.123707D+00  0.000000D+00  0.000000D+00
              1096          1097          1098          1099          1100 
      1  -0.145404D+03 -0.145378D+03 -0.145344D+03 -0.145340D+03 -0.145313D+03
      2   0.000000D+00 -0.224046D-02  0.000000D+00 -0.270196D-04  0.307944D-02
      3   0.000000D+00 -0.589085D-02  0.000000D+00  0.489241D-03  0.202223D-02
      4   0.177799D-02  0.000000D+00  0.237239D-02  0.000000D+00  0.000000D+00
      5   0.000000D+00  0.785015D-01  0.000000D+00  0.139160D-01 -0.434883D-01
      6   0.000000D+00  0.144522D+00  0.000000D+00 -0.127952D-01 -0.268730D-01
      7  -0.587869D-01  0.000000D+00 -0.859802D-01  0.000000D+00  0.000000D+00
      8   0.400196D-01  0.000000D+00  0.192924D-01  0.000000D+00  0.000000D+00
      9  -0.712598D-01  0.000000D+00  0.436401D-01  0.000000D+00  0.000000D+00
     10   0.000000D+00 -0.221128D+00  0.000000D+00  0.826708D-01  0.184486D+00
     11   0.000000D+00 -0.310725D+00  0.000000D+00 -0.181111D+00 -0.411680D+00
     12   0.000000D+00 -0.293650D+00  0.000000D+00  0.395352D-01  0.193279D-01
     13   0.000000D+00 -0.220041D-01  0.000000D+00 -0.106016D-01 -0.851185D-01
     14   0.000000D+00 -0.355592D+00  0.000000D+00  0.355204D-01  0.115117D+00
     15   0.689285D-01  0.000000D+00 -0.447238D-01  0.000000D+00  0.000000D+00
     16   0.396182D-01  0.000000D+00  0.276852D-01  0.000000D+00  0.000000D+00
              1101          1102          1103          1104          1105 
      1  -0.145280D+03 -0.145213D+03 -0.145107D+03 -0.144845D+03 -0.144810D+03
      2  -0.282908D-02  0.267221D-02 -0.250786D-02  0.131817D-02 -0.302054D-04
      3   0.302807D-03  0.508699D-02  0.257234D-02  0.326550D-03  0.648877D-03
      4   0.000000D+00  0.000000D+00  0.000000D+00  0.000000D+00  0.000000D+00
      5   0.202910D-01 -0.159038D-01  0.132722D-01 -0.182112D-01  0.345043D-01
      6  -0.867882D-02 -0.927605D-01 -0.436877D-01 -0.105299D-02 -0.158183D-01
      7   0.000000D+00  0.000000D+00  0.000000D+00  0.000000D+00  0.000000D+00
      8   0.000000D+00  0.000000D+00  0.000000D+00  0.000000D+00  0.000000D+00
      9   0.000000D+00  0.000000D+00  0.000000D+00  0.000000D+00  0.000000D+00
     10  -0.143594D+00  0.125895D+00  0.260674D-01  0.406844D-01  0.680674D-03
     11  -0.233877D+00  0.109387D+00  0.120496D+00  0.167940D+00  0.610197D-01
     12  -0.991951D-01  0.160657D+00  0.958539D-01  0.285264D+00  0.548458D-02
     13  -0.158443D-01  0.393014D-01  0.753090D-01  0.270506D+00 -0.401999D-05
     14  -0.206742D+00  0.136289D+00  0.609001D-01  0.149552D-01  0.350343D-02
     15   0.000000D+00  0.000000D+00  0.000000D+00  0.000000D+00  0.000000D+00
     16   0.000000D+00  0.000000D+00  0.000000D+00  0.000000D+00  0.000000D+00
              1106          1107 
      1  -0.144726D+03 -0.144657D+03
      2   0.778374D-03 -0.112854D-02
      3   0.571625D-03  0.414917D-03
      4   0.000000D+00  0.000000D+00
      5  -0.113840D-01  0.145347D-01
      6  -0.492990D-02 -0.176337D-02
      7   0.000000D+00  0.000000D+00
      8   0.000000D+00  0.000000D+00
      9   0.000000D+00  0.000000D+00
     10  -0.906755D-02 -0.101975D-01
     11  -0.401408D-01 -0.310678D-01
     12  -0.106174D+00 -0.102488D+00
     13  -0.974447D-01 -0.907140D-01
     14   0.381164D-02  0.122836D-01
     15   0.000000D+00  0.000000D+00
     16   0.000000D+00  0.000000D+00
 Unable to Open any file for archive entry.
 1\1\GINC-HEL21\SP\RwB97XD TD-FC\Gen\C1H2O2\RR\27-Feb-2022\0\\#P TD(Nst
 ates=10000) wB97XD/Gen SCF(maxcycles=100) Int(Grid=ultrafine)\\xGDB7_0
 0001_tier4.com\\0,1\O,0,-1.023804,-0.438792,0.\C,0,0.,0.418952,0.\O,0,
 1.152985,0.109983,0.\H,0,-0.656942,-1.333012,0.\H,0,-0.376499,1.44977,
 0.\\Version=EM64L-G16RevC.01\State=1-A'\HF=-189.7858239\RMSD=1.688e-09
 \PG=CS [SG(C1H2O2)]\\@
 The archive entry for this job was punched.


 THE VALUE OF PHILOSOPHY IS, IN FACT, TO BE SOUGHT LARGELY IN ITS
 VERY UNCERTAINTY.  THE MAN WHO HAS NO TINCTURE OF PHILOSOPHY GOES
 THROUGH LIFE IMPRISONED IN THE PREJUDICES DERIVED FROM COMMON SENSE,
 FROM THE HABITUAL BELIEFS OF HIS AGE OR HIS NATION, AND FROM
 CONVICTIONS WHICH HAVE GROWN UP IN HIS MIND WITHOUT THE CO-OPERATION
 OR CONSENT OF HIS DELIBERATE REASON.  TO SUCH A MAN THE WORLD TENDS
 TO BE DEFINITE, FINITE, OBVIOUS; COMMON OBJECTS ROUSE NO QUESTIONS,
 AND UNFAMILIAR POSSIBILITIES ARE CONTEMPTUOUSLY REJECTED.

                             -- BERTRAND RUSSELL
 Job cpu time:       0 days  0 hours 30 minutes  3.1 seconds.
 Elapsed time:       0 days  0 hours  3 minutes 46.8 seconds.
 File lengths (MBytes):  RWF=   1615 Int=      0 D2E=      0 Chk=    463 Scr=      1
 Normal termination of Gaussian 16 at Sun Feb 27 06:38:20 2022.
