 Entering Gaussian System, Link 0=g16
 Input=bigQM7w_TDwB97XD_def2TZVP_000022.com
 Output=bigQM7w_TDwB97XD_def2TZVP_000022.log
 Initial command:
 /home/rr/g16/l1.exe "/scratch/rr/PBS_7918675.helios/Gau-12892.inp" -scrdir="/scratch/rr/PBS_7918675.helios/"
 Entering Link 1 = /home/rr/g16/l1.exe PID=     12895.
  
 Copyright (c) 1988-2019, Gaussian, Inc.  All Rights Reserved.
  
 This is part of the Gaussian(R) 16 program.  It is based on
 the Gaussian(R) 09 system (copyright 2009, Gaussian, Inc.),
 the Gaussian(R) 03 system (copyright 2003, Gaussian, Inc.),
 the Gaussian(R) 98 system (copyright 1998, Gaussian, Inc.),
 the Gaussian(R) 94 system (copyright 1995, Gaussian, Inc.),
 the Gaussian 92(TM) system (copyright 1992, Gaussian, Inc.),
 the Gaussian 90(TM) system (copyright 1990, Gaussian, Inc.),
 the Gaussian 88(TM) system (copyright 1988, Gaussian, Inc.),
 the Gaussian 86(TM) system (copyright 1986, Carnegie Mellon
 University), and the Gaussian 82(TM) system (copyright 1983,
 Carnegie Mellon University). Gaussian is a federally registered
 trademark of Gaussian, Inc.
  
 This software contains proprietary and confidential information,
 including trade secrets, belonging to Gaussian, Inc.
  
 This software is provided under written license and may be
 used, copied, transmitted, or stored only in accord with that
 written license.
  
 The following legend is applicable only to US Government
 contracts under FAR:
  
                    RESTRICTED RIGHTS LEGEND
  
 Use, reproduction and disclosure by the US Government is
 subject to restrictions as set forth in subparagraphs (a)
 and (c) of the Commercial Computer Software - Restricted
 Rights clause in FAR 52.227-19.
  
 Gaussian, Inc.
 340 Quinnipiac St., Bldg. 40, Wallingford CT 06492
  
  
 ---------------------------------------------------------------
 Warning -- This program may not be used in any manner that
 competes with the business of Gaussian, Inc. or will provide
 assistance to any competitor of Gaussian, Inc.  The licensee
 of this program is prohibited from giving any competitor of
 Gaussian, Inc. access to this program.  By using this program,
 the user acknowledges that Gaussian, Inc. is engaged in the
 business of creating and licensing software in the field of
 computational chemistry and represents and warrants to the
 licensee that it is not a competitor of Gaussian, Inc. and that
 it will not use this program in any manner prohibited above.
 ---------------------------------------------------------------
  

 Cite this work as:
 Gaussian 16, Revision C.01,
 M. J. Frisch, G. W. Trucks, H. B. Schlegel, G. E. Scuseria, 
 M. A. Robb, J. R. Cheeseman, G. Scalmani, V. Barone, 
 G. A. Petersson, H. Nakatsuji, X. Li, M. Caricato, A. V. Marenich, 
 J. Bloino, B. G. Janesko, R. Gomperts, B. Mennucci, H. P. Hratchian, 
 J. V. Ortiz, A. F. Izmaylov, J. L. Sonnenberg, D. Williams-Young, 
 F. Ding, F. Lipparini, F. Egidi, J. Goings, B. Peng, A. Petrone, 
 T. Henderson, D. Ranasinghe, V. G. Zakrzewski, J. Gao, N. Rega, 
 G. Zheng, W. Liang, M. Hada, M. Ehara, K. Toyota, R. Fukuda, 
 J. Hasegawa, M. Ishida, T. Nakajima, Y. Honda, O. Kitao, H. Nakai, 
 T. Vreven, K. Throssell, J. A. Montgomery, Jr., J. E. Peralta, 
 F. Ogliaro, M. J. Bearpark, J. J. Heyd, E. N. Brothers, K. N. Kudin, 
 V. N. Staroverov, T. A. Keith, R. Kobayashi, J. Normand, 
 K. Raghavachari, A. P. Rendell, J. C. Burant, S. S. Iyengar, 
 J. Tomasi, M. Cossi, J. M. Millam, M. Klene, C. Adamo, R. Cammi, 
 J. W. Ochterski, R. L. Martin, K. Morokuma, O. Farkas, 
 J. B. Foresman, and D. J. Fox, Gaussian, Inc., Wallingford CT, 2019.
 
 ******************************************
 Gaussian 16:  EM64L-G16RevC.01  3-Jul-2019
                27-Feb-2022 
 ******************************************
 %mem=64gb
 %nproc=8
 Will use up to    8 processors via shared memory.
 ----------------------------------------------------------------------
 #P TD(Nstates=10000) wB97XD/Gen SCF(maxcycles=100) Int(Grid=ultrafine)
 ----------------------------------------------------------------------
 1/38=1,172=1/1;
 2/12=2,17=6,18=5,40=1/2;
 3/5=7,11=9,25=1,30=1,74=-58,75=-5/1,2,3,8;
 4//1;
 5/5=2,7=100,38=5/2;
 8/6=1,10=1,108=10000/1;
 9/41=10000,42=1,70=2/14;
 6/7=2,8=2,9=2,10=2/1;
 99/5=1,9=1/99;
 Leave Link    1 at Sun Feb 27 06:39:57 2022, MaxMem=  8589934592 cpu:               0.7 elap:               0.1
 (Enter /home/rr/g16/l101.exe)
 ---------------------
 xGDB7_00001_tier4.com
 ---------------------
 Symbolic Z-matrix:
 Charge =  0 Multiplicity = 1
 6                     0.92625  -0.71906   0. 
 6                     0.        0.45928   0. 
 8                    -1.197     0.38714   0. 
 1                     1.57597  -0.66868   0.8777 
 1                     1.57597  -0.66868  -0.8777 
 1                     0.36673  -1.65224   0. 
 1                     0.49981   1.45118   0. 
 
 ITRead=  0  0  0  0  0  0  0
 MicOpt= -1 -1 -1 -1 -1 -1 -1
 NAtoms=      7 NQM=        7 NQMF=       0 NMMI=      0 NMMIF=      0
                NMic=       0 NMicF=      0.
                    Isotopes and Nuclear Properties:
 (Nuclear quadrupole moments (NQMom) in fm**2, nuclear magnetic moments (NMagM)
  in nuclear magnetons)

  Atom         1           2           3           4           5           6           7
 IAtWgt=          12          12          16           1           1           1           1
 AtmWgt=  12.0000000  12.0000000  15.9949146   1.0078250   1.0078250   1.0078250   1.0078250
 NucSpn=           0           0           0           1           1           1           1
 AtZEff=  -0.0000000  -0.0000000  -0.0000000  -0.0000000  -0.0000000  -0.0000000  -0.0000000
 NQMom=    0.0000000   0.0000000   0.0000000   0.0000000   0.0000000   0.0000000   0.0000000
 NMagM=    0.0000000   0.0000000   0.0000000   2.7928460   2.7928460   2.7928460   2.7928460
 AtZNuc=   6.0000000   6.0000000   8.0000000   1.0000000   1.0000000   1.0000000   1.0000000
 Leave Link  101 at Sun Feb 27 06:39:57 2022, MaxMem=  8589934592 cpu:               1.1 elap:               0.2
 (Enter /home/rr/g16/l202.exe)
                          Input orientation:                          
 ---------------------------------------------------------------------
 Center     Atomic      Atomic             Coordinates (Angstroms)
 Number     Number       Type             X           Y           Z
 ---------------------------------------------------------------------
      1          6           0        0.926252   -0.719055    0.000000
      2          6           0        0.000000    0.459276    0.000000
      3          8           0       -1.196998    0.387135    0.000000
      4          1           0        1.575966   -0.668677    0.877698
      5          1           0        1.575966   -0.668677   -0.877698
      6          1           0        0.366734   -1.652236    0.000000
      7          1           0        0.499812    1.451182    0.000000
 ---------------------------------------------------------------------
                    Distance matrix (angstroms):
                    1          2          3          4          5
     1  C    0.000000
     2  C    1.498802   0.000000
     3  O    2.394128   1.199170   0.000000
     4  H    1.093170   2.127510   3.094256   0.000000
     5  H    1.093170   2.127510   3.094256   1.755396   0.000000
     6  H    1.088066   2.143123   2.569882   1.788850   1.788850
     7  H    2.211737   1.110716   2.002838   2.534218   2.534218
                    6          7
     6  H    0.000000
     7  H    3.106270   0.000000
 Stoichiometry    C2H4O
 Framework group  CS[SG(C2H2O),X(H2)]
 Deg. of freedom    10
 Full point group                 CS      NOp   2
 Largest Abelian subgroup         CS      NOp   2
 Largest concise Abelian subgroup CS      NOp   2
                         Standard orientation:                         
 ---------------------------------------------------------------------
 Center     Atomic      Atomic             Coordinates (Angstroms)
 Number     Number       Type             X           Y           Z
 ---------------------------------------------------------------------
      1          6           0        0.926251   -0.719055    0.000000
      2          6           0        0.000000    0.459276    0.000000
      3          8           0       -1.196998    0.387136    0.000000
      4          1           0        1.575965   -0.668678    0.877698
      5          1           0        1.575965   -0.668678   -0.877698
      6          1           0        0.366733   -1.652236    0.000000
      7          1           0        0.499813    1.451182    0.000000
 ---------------------------------------------------------------------
 Rotational constants (GHZ):          57.4985089          10.2267038           9.1717854
 Leave Link  202 at Sun Feb 27 06:39:58 2022, MaxMem=  8589934592 cpu:               0.2 elap:               0.1
 (Enter /home/rr/g16/l301.exe)
 General basis read from cards:  (5D, 7F)
 Centers:       4      5      6      7
 S 3 1.00
     Exponent=  3.4061341000D+01 Coefficients=  6.0251978000D-03
     Exponent=  5.1235746000D+00 Coefficients=  4.5021094000D-02
     Exponent=  1.1646626000D+00 Coefficients=  2.0189726000D-01
 S 1 1.00
     Exponent=  3.2723041000D-01 Coefficients=  1.0000000000D+00
 S 1 1.00
     Exponent=  1.0307241000D-01 Coefficients=  1.0000000000D+00
 P 1 1.00
     Exponent=  8.0000000000D-01 Coefficients=  1.0000000000D+00
 P 1 1.00
     Exponent=  9.5774129632D-02 Coefficients=  1.0000000000D+00
 ****
 Centers:       1      2
 S 6 1.00
     Exponent=  1.3575349682D+04 Coefficients=  2.2245814352D-04
     Exponent=  2.0352333680D+03 Coefficients=  1.7232738252D-03
     Exponent=  4.6322562359D+02 Coefficients=  8.9255715314D-03
     Exponent=  1.3120019598D+02 Coefficients=  3.5727984502D-02
     Exponent=  4.2853015891D+01 Coefficients=  1.1076259931D-01
     Exponent=  1.5584185766D+01 Coefficients=  2.4295627626D-01
 S 2 1.00
     Exponent=  6.2067138508D+00 Coefficients=  4.1440263448D-01
     Exponent=  2.5764896527D+00 Coefficients=  2.3744968655D-01
 S 1 1.00
     Exponent=  5.7696339419D-01 Coefficients=  1.0000000000D+00
 S 1 1.00
     Exponent=  2.2972831358D-01 Coefficients=  1.0000000000D+00
 S 1 1.00
     Exponent=  9.5164440028D-02 Coefficients=  1.0000000000D+00
 S 1 1.00
     Exponent=  4.8475401370D-02 Coefficients=  1.0000000000D+00
 P 4 1.00
     Exponent=  3.4697232244D+01 Coefficients=  5.3333657805D-03
     Exponent=  7.9582622826D+00 Coefficients=  3.5864109092D-02
     Exponent=  2.3780826883D+00 Coefficients=  1.4215873329D-01
     Exponent=  8.1433208183D-01 Coefficients=  3.4270471845D-01
 P 1 1.00
     Exponent=  2.8887547253D-01 Coefficients=  4.6445822433D-01
 P 1 1.00
     Exponent=  1.0056823671D-01 Coefficients=  2.4955789874D-01
 D 1 1.00
     Exponent=  1.0970000000D+00 Coefficients=  1.0000000000D+00
 D 1 1.00
     Exponent=  3.1800000000D-01 Coefficients=  1.0000000000D+00
 D 1 1.00
     Exponent=  9.0985336424D-02 Coefficients=  1.0000000000D+00
 F 1 1.00
     Exponent=  7.6100000000D-01 Coefficients=  1.0000000000D+00
 ****
 Centers:       3
 S 6 1.00
     Exponent=  2.7032382631D+04 Coefficients=  2.1726302465D-04
     Exponent=  4.0523871392D+03 Coefficients=  1.6838662199D-03
     Exponent=  9.2232722710D+02 Coefficients=  8.7395616265D-03
     Exponent=  2.6124070989D+02 Coefficients=  3.5239968808D-02
     Exponent=  8.5354641351D+01 Coefficients=  1.1153519115D-01
     Exponent=  3.1035035245D+01 Coefficients=  2.5588953961D-01
 S 2 1.00
     Exponent=  1.2260860728D+01 Coefficients=  3.9768730901D-01
     Exponent=  4.9987076005D+00 Coefficients=  2.4627849430D-01
 S 1 1.00
     Exponent=  1.1703108158D+00 Coefficients=  1.0000000000D+00
 S 1 1.00
     Exponent=  4.6474740994D-01 Coefficients=  1.0000000000D+00
 S 1 1.00
     Exponent=  1.8504536357D-01 Coefficients=  1.0000000000D+00
 S 1 1.00
     Exponent=  7.0288026270D-02 Coefficients=  1.0000000000D+00
 P 4 1.00
     Exponent=  6.3274954801D+01 Coefficients=  6.0685103418D-03
     Exponent=  1.4627049379D+01 Coefficients=  4.1912575824D-02
     Exponent=  4.4501223456D+00 Coefficients=  1.6153841088D-01
     Exponent=  1.5275799647D+00 Coefficients=  3.5706951311D-01
 P 1 1.00
     Exponent=  5.2935117943D-01 Coefficients=  4.4794207502D-01
 P 1 1.00
     Exponent=  1.7478421270D-01 Coefficients=  2.4446069663D-01
 P 1 1.00
     Exponent=  5.1112745706D-02 Coefficients=  1.0000000000D+00
 D 1 1.00
     Exponent=  2.3140000000D+00 Coefficients=  1.0000000000D+00
 D 1 1.00
     Exponent=  6.4500000000D-01 Coefficients=  1.0000000000D+00
 D 1 1.00
     Exponent=  1.4696477366D-01 Coefficients=  1.0000000000D+00
 F 1 1.00
     Exponent=  1.4280000000D+00 Coefficients=  1.0000000000D+00
 ****
 Ernie: Thresh=  0.10000D-02 Tol=  0.10000D-05 Strict=F.
 There are   115 symmetry adapted cartesian basis functions of A'  symmetry.
 There are    53 symmetry adapted cartesian basis functions of A"  symmetry.
 There are   100 symmetry adapted basis functions of A'  symmetry.
 There are    50 symmetry adapted basis functions of A"  symmetry.
   150 basis functions,   221 primitive gaussians,   168 cartesian basis functions
    12 alpha electrons       12 beta electrons
       nuclear repulsion energy        69.9674668624 Hartrees.
 IExCor= 4639 DFT=T Ex+Corr=wB97XD ExCW=0 ScaHFX=  1.000000
 ScaDFX=  1.000000  1.000000  1.000000  1.000000 ScalE2=  1.000000  1.000000
 IRadAn=      5 IRanWt=     -1 IRanGd=            0 ICorTp=0 IEmpDi=121
 HFx  wShort=  0.000000 wLong=  0.200000 cFull=  0.222036 cShort=  0.000000 cLong=  0.777964
 DFx  wShort=  0.000000 wLong=  0.200000 cFull=  0.000000 cShort=  0.000000 cLong=  1.000000
 NAtoms=    7 NActive=    7 NUniq=    6 SFac= 1.36D+00 NAtFMM=   60 NAOKFM=F Big=F
 Integral buffers will be    131072 words long.
 Raffenetti 1 integral format.
 Two-electron integral symmetry is turned on.
 R6Disp:  Grimme-D2 Dispersion energy=       -0.0012799591 Hartrees.
 Nuclear repulsion after empirical dispersion term =       69.9661869033 Hartrees.
 Leave Link  301 at Sun Feb 27 06:39:58 2022, MaxMem=  8589934592 cpu:               1.6 elap:               0.3
 (Enter /home/rr/g16/l302.exe)
 NPDir=0 NMtPBC=     1 NCelOv=     1 NCel=       1 NClECP=     1 NCelD=      1
         NCelK=      1 NCelE2=     1 NClLst=     1 CellRange=     0.0.
 One-electron integrals computed using PRISM.
 One-electron integral symmetry used in STVInt
 NBasis=   150 RedAO= T EigKep=  1.53D-05  NBF=   100    50
 NBsUse=   150 1.00D-06 EigRej= -1.00D+00 NBFU=   100    50
 Precomputing XC quadrature grid using
 IXCGrd= 4 IRadAn=           5 IRanWt=          -1 IRanGd=           0 AccXCQ= 0.00D+00.
 Generated NRdTot=       0 NPtTot=           0 NUsed=           0 NTot=          32
 NSgBfM=   168   168   168   168   168 MxSgAt=     7 MxSgA2=     7.
 Leave Link  302 at Sun Feb 27 06:39:59 2022, MaxMem=  8589934592 cpu:               2.5 elap:               0.4
 (Enter /home/rr/g16/l303.exe)
 DipDrv:  MaxL=1.
 Leave Link  303 at Sun Feb 27 06:39:59 2022, MaxMem=  8589934592 cpu:               0.7 elap:               0.2
 (Enter /home/rr/g16/l308.exe)
 Leave Link  308 at Sun Feb 27 06:40:00 2022, MaxMem=  8589934592 cpu:               0.6 elap:               0.2
 (Enter /home/rr/g16/l401.exe)
 ExpMin= 4.85D-02 ExpMax= 2.70D+04 ExpMxC= 9.22D+02 IAcc=3 IRadAn=         5 AccDes= 0.00D+00
 Harris functional with IExCor= 4639 and IRadAn=       5 diagonalized for initial guess.
 HarFok:  IExCor= 4639 AccDes= 0.00D+00 IRadAn=         5 IDoV= 1 UseB2=F ITyADJ=14
 ICtDFT=  3500011 ScaDFX=  1.000000  1.000000  1.000000  1.000000
 FoFCou: FMM=F IPFlag=           0 FMFlag=      100000 FMFlg1=           0
         NFxFlg=           0 DoJE=T BraDBF=F KetDBF=T FulRan=T
         wScrn=  0.000000 ICntrl=       500 IOpCl=  0 I1Cent=   200000004 NGrid=           0
         NMat0=    1 NMatS0=      1 NMatT0=    0 NMatD0=    1 NMtDS0=    0 NMtDT0=    0
 Petite list used in FoFCou.
 Harris En= -147.443701388915    
 JPrj=0 DoOrth=F DoCkMO=F.
 Initial guess orbital symmetries:
       Occupied  (A') (A') (A') (A') (A') (A') (A') (A") (A') (A')
                 (A") (A')
       Virtual   (A") (A') (A') (A') (A") (A') (A") (A') (A') (A")
                 (A') (A') (A') (A') (A") (A') (A") (A') (A") (A')
                 (A') (A") (A') (A') (A') (A") (A') (A") (A') (A')
                 (A') (A') (A") (A") (A') (A") (A') (A') (A") (A')
                 (A') (A") (A') (A") (A') (A') (A') (A") (A') (A')
                 (A') (A') (A") (A') (A") (A') (A") (A') (A') (A')
                 (A") (A') (A") (A') (A') (A') (A") (A") (A') (A")
                 (A') (A") (A') (A') (A') (A') (A') (A") (A") (A')
                 (A") (A') (A') (A') (A') (A") (A") (A') (A') (A')
                 (A") (A') (A') (A") (A') (A') (A") (A') (A") (A')
                 (A') (A") (A") (A') (A") (A') (A') (A") (A') (A')
                 (A") (A') (A") (A') (A") (A') (A') (A') (A") (A')
                 (A') (A') (A') (A") (A') (A") (A') (A") (A') (A')
                 (A") (A') (A") (A') (A') (A') (A') (A')
 The electronic state of the initial guess is 1-A'.
 Leave Link  401 at Sun Feb 27 06:40:01 2022, MaxMem=  8589934592 cpu:               4.3 elap:               0.6
 (Enter /home/rr/g16/l502.exe)
 Keep R1 ints in memory in symmetry-blocked form, NReq=193309929.
 FoFCou: FMM=F IPFlag=           0 FMFlag=           0 FMFlg1=           0
         NFxFlg=           0 DoJE=F BraDBF=F KetDBF=F FulRan=T
         wScrn=  0.000000 ICntrl=       600 IOpCl=  0 I1Cent=           0 NGrid=           0
         NMat0=    1 NMatS0=  11325 NMatT0=    0 NMatD0=    1 NMtDS0=    0 NMtDT0=    0
 Petite list used in FoFCou.
 Closed shell SCF:
 Using DIIS extrapolation, IDIIS=  1040.
 NGot=  8589934592 LenX=  8557341689 LenY=  8557313024
 Requested convergence on RMS density matrix=1.00D-08 within 100 cycles.
 Requested convergence on MAX density matrix=1.00D-06.
 Requested convergence on             energy=1.00D-06.
 No special actions if energy rises.

 Cycle   1  Pass 1  IDiag  1:
 E= -153.796731090145    
 DIIS: error= 4.06D-02 at cycle   1 NSaved=   1.
 NSaved= 1 IEnMin= 1 EnMin= -153.796731090145     IErMin= 1 ErrMin= 4.06D-02
 ErrMax= 4.06D-02  0.00D+00 EMaxC= 1.00D-01 BMatC= 3.30D-01 BMatP= 3.30D-01
 IDIUse=3 WtCom= 5.94D-01 WtEn= 4.06D-01
 Coeff-Com:  0.100D+01
 Coeff-En:   0.100D+01
 Coeff:      0.100D+01
 Gap=     0.397 Goal=   None    Shift=    0.000
 GapD=    0.397 DampG=1.000 DampE=0.500 DampFc=0.5000 IDamp=-1.
 Damping current iteration by 5.00D-01
 RMSDP=5.34D-03 MaxDP=2.95D-01              OVMax= 7.69D-02

 Cycle   2  Pass 1  IDiag  1:
 E= -153.819637006339     Delta-E=       -0.022905916194 Rises=F Damp=T
 DIIS: error= 1.80D-02 at cycle   2 NSaved=   2.
 NSaved= 2 IEnMin= 2 EnMin= -153.819637006339     IErMin= 2 ErrMin= 1.80D-02
 ErrMax= 1.80D-02  0.00D+00 EMaxC= 1.00D-01 BMatC= 6.67D-02 BMatP= 3.30D-01
 IDIUse=3 WtCom= 8.20D-01 WtEn= 1.80D-01
 Coeff-Com: -0.651D+00 0.165D+01
 Coeff-En:   0.000D+00 0.100D+01
 Coeff:     -0.534D+00 0.153D+01
 Gap=     0.387 Goal=   None    Shift=    0.000
 RMSDP=2.73D-03 MaxDP=1.74D-01 DE=-2.29D-02 OVMax= 8.13D-02

 Cycle   3  Pass 1  IDiag  1:
 E= -153.831321793744     Delta-E=       -0.011684787405 Rises=F Damp=F
 DIIS: error= 1.03D-02 at cycle   3 NSaved=   3.
 NSaved= 3 IEnMin= 3 EnMin= -153.831321793744     IErMin= 3 ErrMin= 1.03D-02
 ErrMax= 1.03D-02  0.00D+00 EMaxC= 1.00D-01 BMatC= 1.73D-02 BMatP= 6.67D-02
 IDIUse=3 WtCom= 8.97D-01 WtEn= 1.03D-01
 Coeff-Com: -0.395D+00 0.861D+00 0.534D+00
 Coeff-En:   0.000D+00 0.000D+00 0.100D+01
 Coeff:     -0.354D+00 0.772D+00 0.582D+00
 Gap=     0.399 Goal=   None    Shift=    0.000
 RMSDP=5.74D-04 MaxDP=1.83D-02 DE=-1.17D-02 OVMax= 4.44D-02

 Cycle   4  Pass 1  IDiag  1:
 E= -153.842276064537     Delta-E=       -0.010954270793 Rises=F Damp=F
 DIIS: error= 3.03D-03 at cycle   4 NSaved=   4.
 NSaved= 4 IEnMin= 4 EnMin= -153.842276064537     IErMin= 4 ErrMin= 3.03D-03
 ErrMax= 3.03D-03  0.00D+00 EMaxC= 1.00D-01 BMatC= 1.55D-03 BMatP= 1.73D-02
 IDIUse=3 WtCom= 9.70D-01 WtEn= 3.03D-02
 Coeff-Com: -0.155D+00 0.331D+00 0.321D+00 0.502D+00
 Coeff-En:   0.000D+00 0.000D+00 0.980D-02 0.990D+00
 Coeff:     -0.150D+00 0.321D+00 0.311D+00 0.517D+00
 Gap=     0.390 Goal=   None    Shift=    0.000
 RMSDP=1.34D-04 MaxDP=4.45D-03 DE=-1.10D-02 OVMax= 1.10D-02

 Cycle   5  Pass 1  IDiag  1:
 E= -153.843332231965     Delta-E=       -0.001056167428 Rises=F Damp=F
 DIIS: error= 1.72D-04 at cycle   5 NSaved=   5.
 NSaved= 5 IEnMin= 5 EnMin= -153.843332231965     IErMin= 5 ErrMin= 1.72D-04
 ErrMax= 1.72D-04  0.00D+00 EMaxC= 1.00D-01 BMatC= 5.26D-06 BMatP= 1.55D-03
 IDIUse=3 WtCom= 9.98D-01 WtEn= 1.72D-03
 Coeff-Com:  0.239D-01-0.524D-01-0.291D-01 0.176D-01 0.104D+01
 Coeff-En:   0.000D+00 0.000D+00 0.000D+00 0.000D+00 0.100D+01
 Coeff:      0.239D-01-0.523D-01-0.290D-01 0.175D-01 0.104D+01
 Gap=     0.390 Goal=   None    Shift=    0.000
 RMSDP=7.53D-05 MaxDP=2.45D-03 DE=-1.06D-03 OVMax= 1.28D-03

 Cycle   6  Pass 1  IDiag  1:
 E= -153.843340420508     Delta-E=       -0.000008188543 Rises=F Damp=F
 DIIS: error= 6.45D-05 at cycle   6 NSaved=   6.
 NSaved= 6 IEnMin= 6 EnMin= -153.843340420508     IErMin= 6 ErrMin= 6.45D-05
 ErrMax= 6.45D-05  0.00D+00 EMaxC= 1.00D-01 BMatC= 3.64D-07 BMatP= 5.26D-06
 IDIUse=1 WtCom= 1.00D+00 WtEn= 0.00D+00
 Coeff-Com:  0.127D-01-0.272D-01-0.223D-01-0.174D-01 0.203D+00 0.852D+00
 Coeff:      0.127D-01-0.272D-01-0.223D-01-0.174D-01 0.203D+00 0.852D+00
 Gap=     0.390 Goal=   None    Shift=    0.000
 RMSDP=1.51D-05 MaxDP=4.03D-04 DE=-8.19D-06 OVMax= 3.04D-04

 Cycle   7  Pass 1  IDiag  1:
 E= -153.843340986368     Delta-E=       -0.000000565860 Rises=F Damp=F
 DIIS: error= 1.31D-05 at cycle   7 NSaved=   7.
 NSaved= 7 IEnMin= 7 EnMin= -153.843340986368     IErMin= 7 ErrMin= 1.31D-05
 ErrMax= 1.31D-05  0.00D+00 EMaxC= 1.00D-01 BMatC= 3.65D-08 BMatP= 3.64D-07
 IDIUse=1 WtCom= 1.00D+00 WtEn= 0.00D+00
 Coeff-Com:  0.119D-03-0.200D-03-0.138D-02-0.293D-02-0.564D-01 0.177D+00
 Coeff-Com:  0.884D+00
 Coeff:      0.119D-03-0.200D-03-0.138D-02-0.293D-02-0.564D-01 0.177D+00
 Coeff:      0.884D+00
 Gap=     0.390 Goal=   None    Shift=    0.000
 RMSDP=5.45D-06 MaxDP=1.50D-04 DE=-5.66D-07 OVMax= 1.39D-04

 Cycle   8  Pass 1  IDiag  1:
 E= -153.843341044582     Delta-E=       -0.000000058215 Rises=F Damp=F
 DIIS: error= 4.76D-06 at cycle   8 NSaved=   8.
 NSaved= 8 IEnMin= 8 EnMin= -153.843341044582     IErMin= 8 ErrMin= 4.76D-06
 ErrMax= 4.76D-06  0.00D+00 EMaxC= 1.00D-01 BMatC= 1.63D-09 BMatP= 3.65D-08
 IDIUse=1 WtCom= 1.00D+00 WtEn= 0.00D+00
 Coeff-Com: -0.785D-03 0.169D-02 0.127D-02 0.106D-02-0.194D-01-0.403D-01
 Coeff-Com:  0.965D-01 0.960D+00
 Coeff:     -0.785D-03 0.169D-02 0.127D-02 0.106D-02-0.194D-01-0.403D-01
 Coeff:      0.965D-01 0.960D+00
 Gap=     0.390 Goal=   None    Shift=    0.000
 RMSDP=1.12D-06 MaxDP=2.03D-05 DE=-5.82D-08 OVMax= 3.79D-05

 Cycle   9  Pass 1  IDiag  1:
 E= -153.843341048501     Delta-E=       -0.000000003918 Rises=F Damp=F
 DIIS: error= 7.95D-07 at cycle   9 NSaved=   9.
 NSaved= 9 IEnMin= 9 EnMin= -153.843341048501     IErMin= 9 ErrMin= 7.95D-07
 ErrMax= 7.95D-07  0.00D+00 EMaxC= 1.00D-01 BMatC= 1.09D-10 BMatP= 1.63D-09
 IDIUse=1 WtCom= 1.00D+00 WtEn= 0.00D+00
 Coeff-Com:  0.214D-05-0.938D-05 0.720D-04 0.321D-03 0.359D-02-0.131D-01
 Coeff-Com: -0.552D-01 0.213D-02 0.106D+01
 Coeff:      0.214D-05-0.938D-05 0.720D-04 0.321D-03 0.359D-02-0.131D-01
 Coeff:     -0.552D-01 0.213D-02 0.106D+01
 Gap=     0.390 Goal=   None    Shift=    0.000
 RMSDP=2.49D-07 MaxDP=5.50D-06 DE=-3.92D-09 OVMax= 1.05D-05

 Cycle  10  Pass 1  IDiag  1:
 E= -153.843341048762     Delta-E=       -0.000000000261 Rises=F Damp=F
 DIIS: error= 1.54D-07 at cycle  10 NSaved=  10.
 NSaved=10 IEnMin=10 EnMin= -153.843341048762     IErMin=10 ErrMin= 1.54D-07
 ErrMax= 1.54D-07  0.00D+00 EMaxC= 1.00D-01 BMatC= 6.38D-12 BMatP= 1.09D-10
 IDIUse=1 WtCom= 1.00D+00 WtEn= 0.00D+00
 Coeff-Com:  0.260D-04-0.561D-04-0.445D-04 0.732D-05 0.818D-03 0.501D-03
 Coeff-Com: -0.507D-02-0.357D-01 0.224D-01 0.102D+01
 Coeff:      0.260D-04-0.561D-04-0.445D-04 0.732D-05 0.818D-03 0.501D-03
 Coeff:     -0.507D-02-0.357D-01 0.224D-01 0.102D+01
 Gap=     0.390 Goal=   None    Shift=    0.000
 RMSDP=6.99D-08 MaxDP=1.60D-06 DE=-2.61D-10 OVMax= 1.84D-06

 Cycle  11  Pass 1  IDiag  1:
 E= -153.843341048774     Delta-E=       -0.000000000011 Rises=F Damp=F
 DIIS: error= 3.03D-08 at cycle  11 NSaved=  11.
 NSaved=11 IEnMin=11 EnMin= -153.843341048774     IErMin=11 ErrMin= 3.03D-08
 ErrMax= 3.03D-08  0.00D+00 EMaxC= 1.00D-01 BMatC= 1.72D-13 BMatP= 6.38D-12
 IDIUse=1 WtCom= 1.00D+00 WtEn= 0.00D+00
 Coeff-Com: -0.502D-06 0.122D-05-0.299D-05-0.927D-05-0.139D-03 0.488D-03
 Coeff-Com:  0.266D-02 0.341D-03-0.475D-01-0.233D-01 0.107D+01
 Coeff:     -0.502D-06 0.122D-05-0.299D-05-0.927D-05-0.139D-03 0.488D-03
 Coeff:      0.266D-02 0.341D-03-0.475D-01-0.233D-01 0.107D+01
 Gap=     0.390 Goal=   None    Shift=    0.000
 RMSDP=2.22D-08 MaxDP=8.68D-07 DE=-1.13D-11 OVMax= 3.80D-07

 Cycle  12  Pass 1  IDiag  1:
 E= -153.843341048772     Delta-E=        0.000000000001 Rises=F Damp=F
 DIIS: error= 6.57D-09 at cycle  12 NSaved=  12.
 NSaved=12 IEnMin=11 EnMin= -153.843341048774     IErMin=12 ErrMin= 6.57D-09
 ErrMax= 6.57D-09  0.00D+00 EMaxC= 1.00D-01 BMatC= 5.38D-15 BMatP= 1.72D-13
 IDIUse=1 WtCom= 1.00D+00 WtEn= 0.00D+00
 Coeff-Com: -0.766D-06 0.163D-05 0.166D-05-0.752D-07-0.189D-04-0.607D-04
 Coeff-Com:  0.166D-03 0.117D-02 0.148D-02-0.368D-01-0.278D-01 0.106D+01
 Coeff:     -0.766D-06 0.163D-05 0.166D-05-0.752D-07-0.189D-04-0.607D-04
 Coeff:      0.166D-03 0.117D-02 0.148D-02-0.368D-01-0.278D-01 0.106D+01
 Gap=     0.390 Goal=   None    Shift=    0.000
 RMSDP=3.06D-09 MaxDP=8.60D-08 DE= 1.48D-12 OVMax= 7.39D-08

 SCF Done:  E(RwB97XD) =  -153.843341049     A.U. after   12 cycles
            NFock= 12  Conv=0.31D-08     -V/T= 2.0045
 KE= 1.531510117846D+02 PE=-4.998658684467D+02 EE= 1.229053287100D+02
 Leave Link  502 at Sun Feb 27 06:40:08 2022, MaxMem=  8589934592 cpu:              52.7 elap:               7.0
 (Enter /home/rr/g16/l801.exe)
 DoSCS=F DFT=T ScalE2(SS,OS)=  1.000000  1.000000
 ExpMin= 4.85D-02 ExpMax= 2.70D+04 ExpMxC= 9.22D+02 IAcc=3 IRadAn=         5 AccDes= 0.00D+00
 HarFok:  IExCor=  205 AccDes= 0.00D+00 IRadAn=         5 IDoV=-2 UseB2=F ITyADJ=14
 ICtDFT= 12500011 ScaDFX=  1.000000  1.000000  1.000000  1.000000
 Largest valence mixing into a core orbital is  6.54D-05
 Largest core mixing into a valence orbital is  9.25D-06
 Range of M.O.s used for correlation:     4   150
 NBasis=   150 NAE=    12 NBE=    12 NFC=     3 NFV=     0
 NROrb=    147 NOA=     9 NOB=     9 NVA=   138 NVB=   138

 **** Warning!!: The largest alpha MO coefficient is  0.87887323D+02

 Leave Link  801 at Sun Feb 27 06:40:08 2022, MaxMem=  8589934592 cpu:               0.6 elap:               0.1
 (Enter /home/rr/g16/l914.exe)
 RHF ground state
 Keep R1, R2, and R3 ints in memory in symmetry-blocked form, NReq=2792335042.
 FoFCou: FMM=F IPFlag=           0 FMFlag=           0 FMFlg1=           0
         NFxFlg=           0 DoJE=F BraDBF=F KetDBF=F FulRan=T
         wScrn=  0.000000 ICntrl=       600 IOpCl=  0 I1Cent=           0 NGrid=           0
         NMat0=    1 NMatS0=  11325 NMatT0=    0 NMatD0=    1 NMtDS0=    0 NMtDT0=    0
 Petite list used in FoFCou.
 MDV=  8589934592 DFT=T DoStab=F Mixed=T DoRPA=T DoScal=F NonHer=T
 Making orbital integer symmetry assigments:
 Orbital symmetries:
       Occupied  (A') (A') (A') (A') (A') (A') (A') (A") (A') (A')
                 (A") (A')
       Virtual   (A") (A') (A') (A') (A") (A') (A') (A") (A') (A")
                 (A') (A') (A') (A') (A") (A") (A') (A') (A') (A")
                 (A') (A") (A') (A') (A') (A") (A') (A") (A') (A')
                 (A') (A') (A") (A") (A') (A") (A') (A') (A") (A')
                 (A') (A") (A") (A') (A') (A') (A') (A') (A") (A')
                 (A') (A') (A') (A") (A") (A') (A") (A') (A') (A')
                 (A") (A') (A") (A') (A') (A') (A") (A") (A') (A")
                 (A') (A") (A') (A') (A') (A') (A') (A") (A") (A')
                 (A") (A') (A') (A') (A') (A") (A") (A') (A') (A')
                 (A") (A') (A') (A") (A') (A') (A") (A') (A") (A')
                 (A') (A") (A") (A') (A") (A') (A') (A") (A') (A')
                 (A") (A') (A") (A') (A") (A') (A') (A') (A") (A')
                 (A') (A') (A') (A") (A') (A") (A') (A") (A') (A')
                 (A") (A') (A") (A') (A') (A') (A') (A')
  1242 initial guesses have been made.
 Convergence on wavefunction:    0.001000000000000
 Davidson Disk Diagonalization:  ConvIn= 1.00D-03 SkipCon=T Conv= 1.00D-03.
 Max sub-space:  7452 roots to seek:  2484 dimension of matrix:         2484
 *** WARNING: Number of orthogonal guesses is         1242
 Iteration     1 Dimension  1242 NMult     0 NNew   1242
 CISAX will form  1242 AO SS matrices at one time.
 NMat=  1242 NSing=  1242 JSym2X=-1.
 New state      6 was old state     12
 New state      7 was old state      6
 New state      8 was old state      9
 New state      9 was old state      7
 New state     10 was old state      8
 New state     11 was old state     20
 New state     12 was old state     10
 New state     13 was old state     11
 New state     16 was old state     13
 New state     17 was old state     16
 New state     18 was old state     32
 New state     19 was old state     23
 New state     20 was old state     19
 New state     21 was old state     17
 New state     22 was old state     18
 New state     23 was old state     21
 New state     24 was old state     22
 New state     26 was old state     24
 New state     27 was old state     28
 New state     28 was old state     29
 New state     29 was old state     27
 New state     31 was old state     26
 New state     32 was old state     35
 New state     33 was old state     31
 New state     35 was old state     37
 New state     36 was old state     33
 New state     37 was old state     38
 New state     38 was old state     42
 New state     39 was old state     40
 New state     40 was old state     36
 New state     41 was old state     39
 New state     42 was old state     47
 New state     43 was old state     41
 New state     45 was old state     43
 New state     46 was old state     51
 New state     47 was old state     45
 New state     48 was old state     50
 New state     49 was old state     46
 New state     50 was old state     48
 New state     51 was old state     58
 New state     52 was old state     59
 New state     53 was old state     52
 New state     54 was old state     53
 New state     55 was old state     54
 New state     57 was old state     75
 New state     58 was old state     57
 New state     59 was old state     49
 New state     60 was old state     62
 New state     62 was old state     64
 New state     63 was old state     68
 New state     64 was old state     66
 New state     66 was old state     69
 New state     67 was old state     55
 New state     68 was old state     67
 New state     69 was old state     63
 New state     70 was old state     72
 New state     71 was old state     74
 New state     72 was old state     60
 New state     73 was old state     70
 New state     74 was old state     73
 New state     75 was old state     76
 New state     76 was old state     85
 New state     77 was old state     82
 New state     78 was old state     79
 New state     79 was old state     81
 New state     80 was old state     78
 New state     81 was old state     77
 New state     82 was old state     80
 New state     83 was old state     71
 New state     85 was old state     89
 New state     88 was old state     96
 New state     89 was old state     83
 New state     90 was old state     88
 New state     91 was old state     90
 New state     92 was old state     95
 New state     93 was old state     92
 New state     94 was old state     91
 New state     95 was old state    101
 New state     96 was old state     93
 New state     98 was old state    103
 New state     99 was old state    100
 New state    100 was old state     99
 New state    101 was old state    102
 New state    102 was old state    105
 New state    103 was old state     94
 New state    104 was old state     98
 New state    105 was old state    110
 New state    107 was old state    104
 New state    108 was old state    109
 New state    109 was old state    113
 New state    110 was old state    111
 New state    111 was old state    108
 New state    113 was old state    114
 New state    114 was old state    118
 New state    115 was old state    125
 New state    117 was old state    123
 New state    118 was old state    121
 New state    119 was old state    107
 New state    120 was old state    122
 New state    121 was old state    115
 New state    122 was old state    119
 New state    123 was old state    127
 New state    124 was old state    117
 New state    125 was old state    126
 New state    126 was old state    133
 New state    127 was old state    130
 New state    128 was old state    132
 New state    129 was old state    135
 New state    130 was old state    131
 New state    131 was old state    124
 New state    132 was old state    129
 New state    133 was old state    136
 New state    134 was old state    128
 New state    135 was old state    134
 New state    136 was old state    153
 New state    137 was old state    138
 New state    138 was old state    142
 New state    139 was old state    140
 New state    140 was old state    141
 New state    141 was old state    139
 New state    142 was old state    143
 New state    143 was old state    144
 New state    144 was old state    145
 New state    145 was old state    147
 New state    147 was old state    137
 New state    148 was old state    149
 New state    149 was old state    150
 New state    150 was old state    154
 New state    151 was old state    152
 New state    152 was old state    159
 New state    153 was old state    167
 New state    154 was old state    148
 New state    155 was old state    166
 New state    156 was old state    158
 New state    157 was old state    164
 New state    158 was old state    157
 New state    159 was old state    156
 New state    160 was old state    151
 New state    161 was old state    155
 New state    162 was old state    160
 New state    164 was old state    162
 New state    166 was old state    161
 New state    167 was old state    175
 New state    169 was old state    170
 New state    170 was old state    169
 New state    171 was old state    172
 New state    172 was old state    174
 New state    173 was old state    171
 New state    174 was old state    180
 New state    175 was old state    179
 New state    176 was old state    187
 New state    177 was old state    183
 New state    178 was old state    173
 New state    179 was old state    177
 New state    180 was old state    178
 New state    182 was old state    176
 New state    183 was old state    186
 New state    184 was old state    182
 New state    186 was old state    184
 New state    187 was old state    189
 New state    188 was old state    191
 New state    189 was old state    188
 New state    190 was old state    193
 New state    191 was old state    199
 New state    192 was old state    190
 New state    193 was old state    197
 New state    194 was old state    198
 New state    195 was old state    196
 New state    196 was old state    194
 New state    197 was old state    200
 New state    198 was old state    210
 New state    199 was old state    192
 New state    200 was old state    208
 New state    201 was old state    207
 New state    202 was old state    213
 New state    203 was old state    195
 New state    204 was old state    215
 New state    205 was old state    204
 New state    206 was old state    201
 New state    207 was old state    217
 New state    208 was old state    203
 New state    209 was old state    206
 New state    210 was old state    205
 New state    211 was old state    229
 New state    212 was old state    221
 New state    213 was old state    227
 New state    214 was old state    226
 New state    215 was old state    209
 New state    216 was old state    212
 New state    217 was old state    218
 New state    218 was old state    214
 New state    219 was old state    225
 New state    220 was old state    211
 New state    221 was old state    220
 New state    222 was old state    239
 New state    223 was old state    219
 New state    224 was old state    233
 New state    225 was old state    242
 New state    226 was old state    224
 New state    227 was old state    234
 New state    228 was old state    222
 New state    229 was old state    216
 New state    230 was old state    228
 New state    231 was old state    232
 New state    232 was old state    230
 New state    233 was old state    237
 New state    234 was old state    236
 New state    235 was old state    248
 New state    236 was old state    235
 New state    237 was old state    244
 New state    238 was old state    246
 New state    239 was old state    240
 New state    240 was old state    243
 New state    241 was old state    261
 New state    242 was old state    245
 New state    243 was old state    231
 New state    244 was old state    223
 New state    245 was old state    251
 New state    246 was old state    247
 New state    247 was old state    238
 New state    248 was old state    241
 New state    249 was old state    250
 New state    250 was old state    253
 New state    251 was old state    249
 New state    252 was old state    260
 New state    253 was old state    252
 New state    254 was old state    257
 New state    255 was old state    264
 New state    256 was old state    255
 New state    257 was old state    263
 New state    258 was old state    256
 New state    259 was old state    262
 New state    260 was old state    259
 New state    261 was old state    254
 New state    262 was old state    265
 New state    263 was old state    258
 New state    264 was old state    266
 New state    265 was old state    272
 New state    266 was old state    268
 New state    267 was old state    273
 New state    268 was old state    267
 New state    269 was old state    313
 New state    270 was old state    271
 New state    271 was old state    270
 New state    272 was old state    274
 New state    273 was old state    275
 New state    274 was old state    280
 New state    275 was old state    282
 New state    276 was old state    279
 New state    277 was old state    269
 New state    278 was old state    277
 New state    279 was old state    283
 New state    280 was old state    285
 New state    281 was old state    278
 New state    282 was old state    276
 New state    283 was old state    287
 New state    284 was old state    281
 New state    285 was old state    288
 New state    286 was old state    291
 New state    287 was old state    294
 New state    288 was old state    286
 New state    289 was old state    295
 New state    291 was old state    297
 New state    293 was old state    289
 New state    294 was old state    302
 New state    295 was old state    296
 New state    296 was old state    284
 New state    297 was old state    303
 New state    298 was old state    301
 New state    299 was old state    293
 New state    300 was old state    304
 New state    301 was old state    323
 New state    302 was old state    299
 New state    303 was old state    308
 New state    304 was old state    298
 New state    305 was old state    300
 New state    306 was old state    307
 New state    307 was old state    306
 New state    308 was old state    309
 New state    309 was old state    317
 New state    310 was old state    305
 New state    311 was old state    310
 New state    312 was old state    314
 New state    313 was old state    316
 New state    314 was old state    312
 New state    315 was old state    318
 New state    316 was old state    315
 New state    317 was old state    311
 New state    318 was old state    319
 New state    319 was old state    322
 New state    320 was old state    332
 New state    321 was old state    324
 New state    322 was old state    334
 New state    323 was old state    320
 New state    324 was old state    328
 New state    325 was old state    336
 New state    326 was old state    325
 New state    327 was old state    326
 New state    328 was old state    327
 New state    329 was old state    333
 New state    330 was old state    331
 New state    331 was old state    321
 New state    332 was old state    339
 New state    333 was old state    329
 New state    334 was old state    330
 New state    336 was old state    337
 New state    337 was old state    341
 New state    338 was old state    343
 New state    339 was old state    350
 New state    340 was old state    342
 New state    341 was old state    351
 New state    342 was old state    340
 New state    343 was old state    354
 New state    344 was old state    338
 New state    345 was old state    346
 New state    346 was old state    348
 New state    348 was old state    355
 New state    349 was old state    345
 New state    350 was old state    353
 New state    351 was old state    362
 New state    353 was old state    349
 New state    354 was old state    363
 New state    355 was old state    358
 New state    356 was old state    367
 New state    357 was old state    344
 New state    358 was old state    370
 New state    359 was old state    361
 New state    361 was old state    365
 New state    362 was old state    359
 New state    363 was old state    379
 New state    364 was old state    369
 New state    365 was old state    356
 New state    366 was old state    372
 New state    367 was old state    357
 New state    368 was old state    378
 New state    369 was old state    375
 New state    370 was old state    364
 New state    371 was old state    373
 New state    372 was old state    371
 New state    373 was old state    374
 New state    374 was old state    366
 New state    375 was old state    368
 New state    376 was old state    387
 New state    377 was old state    381
 New state    378 was old state    380
 New state    379 was old state    394
 New state    380 was old state    400
 New state    381 was old state    385
 New state    382 was old state    377
 New state    383 was old state    382
 New state    384 was old state    392
 New state    385 was old state    386
 New state    386 was old state    376
 New state    387 was old state    389
 New state    388 was old state    390
 New state    389 was old state    391
 New state    390 was old state    412
 New state    391 was old state    396
 New state    392 was old state    388
 New state    394 was old state    395
 New state    395 was old state    410
 New state    396 was old state    383
 New state    399 was old state    401
 New state    400 was old state    404
 New state    401 was old state    402
 New state    402 was old state    406
 New state    403 was old state    405
 New state    404 was old state    411
 New state    405 was old state    399
 New state    406 was old state    403
 New state    409 was old state    414
 No map to state    410
 New state    411 was old state    415
 New state    412 was old state    424
 New state    413 was old state    417
 New state    414 was old state    413
 New state    415 was old state    416
 New state    416 was old state    409
 New state    417 was old state    431
 New state    418 was old state    420
 New state    419 was old state    427
 New state    420 was old state    419
 New state    421 was old state    428
 New state    423 was old state    432
 New state    424 was old state    423
 New state    425 was old state    418
 New state    426 was old state    421
 New state    427 was old state    438
 New state    428 was old state    434
 New state    430 was old state    433
 New state    431 was old state    425
 New state    432 was old state    430
 New state    433 was old state    443
 New state    434 was old state    437
 New state    435 was old state    426
 New state    436 was old state    439
 New state    437 was old state    447
 New state    438 was old state    445
 New state    439 was old state    436
 New state    440 was old state    455
 New state    442 was old state    435
 New state    443 was old state    440
 New state    444 was old state    454
 New state    445 was old state    451
 New state    446 was old state    453
 New state    447 was old state    446
 New state    448 was old state    442
 New state    449 was old state    450
 New state    450 was old state    458
 No map to state    451
 New state    452 was old state    461
 New state    453 was old state    444
 New state    454 was old state    464
 New state    455 was old state    452
 New state    456 was old state    468
 New state    457 was old state    456
 New state    458 was old state    448
 New state    460 was old state    465
 New state    461 was old state    466
 New state    462 was old state    457
 New state    463 was old state    462
 New state    464 was old state    460
 New state    465 was old state    449
 New state    466 was old state    476
 New state    467 was old state    463
 New state    468 was old state    467
 New state    470 was old state    479
 New state    471 was old state    477
 New state    473 was old state    474
 New state    474 was old state    471
 New state    475 was old state    470
 New state    476 was old state    481
 New state    477 was old state    475
 New state    478 was old state    487
 New state    479 was old state    473
 New state    480 was old state    488
 New state    481 was old state    478
 New state    482 was old state    484
 New state    483 was old state    480
 New state    484 was old state    483
 New state    485 was old state    491
 New state    486 was old state    489
 New state    487 was old state    494
 New state    488 was old state    496
 New state    489 was old state    486
 New state    490 was old state    485
 New state    491 was old state    493
 New state    493 was old state    482
 New state    494 was old state    495
 New state    495 was old state    497
 New state    496 was old state    498
 New state    497 was old state    503
 New state    498 was old state    499
 New state    499 was old state    501
 New state    500 was old state    490
 New state    501 was old state    500
 New state    502 was old state    506
 New state    503 was old state    502
 New state    504 was old state    507
 New state    505 was old state    509
 New state    506 was old state    508
 New state    507 was old state    505
 New state    508 was old state    504
 New state    509 was old state    518
 New state    510 was old state    514
 New state    512 was old state    513
 New state    513 was old state    517
 New state    514 was old state    515
 New state    515 was old state    516
 New state    516 was old state    512
 New state    517 was old state    510
 New state    518 was old state    523
 New state    519 was old state    521
 New state    520 was old state    525
 New state    521 was old state    522
 New state    522 was old state    524
 New state    523 was old state    520
 New state    524 was old state    519
 New state    525 was old state    528
 New state    526 was old state    529
 New state    527 was old state    532
 New state    528 was old state    531
 New state    529 was old state    526
 New state    530 was old state    533
 New state    531 was old state    527
 New state    532 was old state    540
 New state    533 was old state    537
 New state    535 was old state    536
 New state    536 was old state    530
 New state    537 was old state    535
 New state    540 was old state    545
 New state    541 was old state    544
 New state    542 was old state    541
 New state    543 was old state    542
 New state    544 was old state    548
 New state    545 was old state    543
 New state    547 was old state    558
 New state    548 was old state    549
 New state    549 was old state    547
 New state    550 was old state    551
 New state    551 was old state    552
 New state    552 was old state    550
 New state    553 was old state    557
 New state    554 was old state    553
 New state    555 was old state    559
 New state    556 was old state    555
 New state    557 was old state    560
 New state    558 was old state    554
 New state    559 was old state    561
 New state    560 was old state    556
 New state    561 was old state    562
 New state    562 was old state    563
 New state    563 was old state    565
 New state    565 was old state    566
 New state    566 was old state    567
 New state    567 was old state    568
 New state    568 was old state    569
 New state    569 was old state    570
 New state    570 was old state    571
 New state    571 was old state    574
 New state    574 was old state    575
 No map to state    575
 New state    578 was old state    581
 New state    579 was old state    580
 New state    580 was old state    583
 New state    581 was old state    578
 New state    583 was old state    584
 New state    584 was old state    579
 New state    585 was old state    587
 New state    587 was old state    588
 New state    588 was old state    585
 New state    592 was old state    594
 New state    593 was old state    592
 New state    594 was old state    593
 New state    595 was old state    596
 New state    596 was old state    595
 New state    597 was old state    598
 New state    598 was old state    599
 New state    599 was old state    600
 New state    600 was old state    597
 New state    602 was old state    603
 New state    603 was old state    602
 New state    606 was old state    608
 New state    607 was old state    606
 New state    608 was old state    607
 New state    609 was old state    613
 New state    610 was old state    611
 New state    611 was old state    614
 New state    612 was old state    610
 New state    613 was old state    609
 New state    614 was old state    621
 New state    615 was old state    612
 New state    617 was old state    619
 New state    618 was old state    615
 New state    619 was old state    617
 New state    620 was old state    622
 New state    621 was old state    618
 New state    622 was old state    624
 New state    623 was old state    620
 New state    624 was old state    623
 New state    625 was old state    630
 New state    626 was old state    629
 New state    629 was old state    631
 New state    630 was old state    632
 New state    631 was old state    626
 New state    632 was old state    625
 New state    634 was old state    635
 New state    635 was old state    634
 New state    636 was old state    637
 New state    637 was old state    636
 New state    639 was old state    646
 New state    641 was old state    639
 New state    642 was old state    643
 New state    643 was old state    642
 New state    644 was old state    641
 New state    645 was old state    644
 New state    646 was old state    645
 New state    647 was old state    650
 New state    648 was old state    647
 New state    649 was old state    648
 New state    650 was old state    651
 New state    651 was old state    656
 New state    652 was old state    649
 New state    653 was old state    652
 New state    654 was old state    655
 New state    655 was old state    653
 New state    656 was old state    654
 New state    660 was old state    663
 New state    661 was old state    660
 New state    663 was old state    661
 New state    665 was old state    667
 New state    667 was old state    670
 New state    668 was old state    665
 New state    669 was old state    671
 New state    670 was old state    668
 New state    671 was old state    669
 New state    673 was old state    676
 New state    674 was old state    673
 New state    675 was old state    674
 New state    676 was old state    677
 New state    677 was old state    675
 New state    680 was old state    681
 New state    681 was old state    680
 New state    685 was old state    686
 New state    686 was old state    689
 New state    687 was old state    685
 New state    688 was old state    687
 New state    689 was old state    688
 New state    690 was old state    691
 New state    691 was old state    692
 New state    692 was old state    690
 New state    693 was old state    694
 New state    694 was old state    693
 New state    697 was old state    698
 New state    698 was old state    700
 New state    700 was old state    697
 New state    701 was old state    704
 New state    702 was old state    701
 New state    703 was old state    702
 New state    704 was old state    703
 New state    707 was old state    709
 New state    708 was old state    707
 New state    709 was old state    708
 New state    711 was old state    713
 New state    712 was old state    714
 New state    713 was old state    712
 New state    714 was old state    711
 New state    715 was old state    721
 New state    716 was old state    717
 New state    717 was old state    719
 New state    718 was old state    715
 New state    719 was old state    720
 New state    720 was old state    718
 New state    721 was old state    725
 New state    722 was old state    723
 New state    723 was old state    729
 New state    725 was old state    716
 New state    729 was old state    722
 New state    730 was old state    735
 New state    731 was old state    732
 New state    732 was old state    731
 New state    733 was old state    730
 New state    734 was old state    737
 New state    735 was old state    733
 New state    736 was old state    734
 New state    737 was old state    740
 New state    740 was old state    736
 New state    741 was old state    744
 New state    742 was old state    745
 New state    743 was old state    741
 New state    744 was old state    747
 New state    745 was old state    743
 New state    746 was old state    742
 New state    747 was old state    746
 New state    748 was old state    749
 New state    749 was old state    748
 New state    750 was old state    755
 New state    752 was old state    753
 New state    753 was old state    750
 New state    754 was old state    752
 New state    755 was old state    756
 New state    756 was old state    759
 New state    757 was old state    754
 New state    758 was old state    761
 New state    759 was old state    758
 New state    760 was old state    763
 New state    761 was old state    757
 New state    762 was old state    764
 New state    763 was old state    762
 New state    764 was old state    765
 New state    765 was old state    760
 New state    766 was old state    768
 New state    767 was old state    766
 New state    768 was old state    772
 New state    769 was old state    770
 New state    770 was old state    771
 New state    771 was old state    767
 New state    772 was old state    769
 New state    774 was old state    777
 New state    775 was old state    776
 New state    776 was old state    774
 New state    777 was old state    779
 New state    779 was old state    775
 New state    783 was old state    784
 New state    784 was old state    783
 New state    786 was old state    788
 New state    787 was old state    786
 New state    788 was old state    789
 New state    789 was old state    790
 New state    790 was old state    787
 New state    791 was old state    795
 New state    793 was old state    799
 New state    794 was old state    791
 New state    795 was old state    798
 New state    796 was old state    793
 New state    797 was old state    796
 New state    798 was old state    797
 New state    799 was old state    794
 New state    800 was old state    802
 New state    802 was old state    800
 New state    806 was old state    809
 New state    808 was old state    806
 New state    809 was old state    810
 New state    810 was old state    808
 New state    811 was old state    813
 New state    813 was old state    815
 New state    814 was old state    811
 New state    815 was old state    818
 New state    817 was old state    814
 New state    818 was old state    817
 New state    819 was old state    820
 New state    820 was old state    819
 New state    821 was old state    826
 New state    824 was old state    821
 New state    825 was old state    827
 New state    826 was old state    824
 New state    827 was old state    828
 New state    828 was old state    829
 New state    829 was old state    830
 New state    830 was old state    825
 New state    831 was old state    832
 New state    832 was old state    831
 New state    833 was old state    835
 New state    834 was old state    833
 New state    835 was old state    834
 New state    838 was old state    839
 New state    839 was old state    838
 New state    843 was old state    845
 New state    845 was old state    843
 New state    846 was old state    847
 New state    847 was old state    851
 New state    848 was old state    846
 New state    849 was old state    852
 New state    850 was old state    849
 New state    851 was old state    853
 New state    852 was old state    848
 New state    853 was old state    854
 New state    854 was old state    850
 New state    856 was old state    858
 New state    857 was old state    861
 New state    858 was old state    856
 New state    859 was old state    857
 New state    861 was old state    862
 New state    862 was old state    859
 New state    864 was old state    866
 New state    865 was old state    864
 New state    866 was old state    865
 New state    868 was old state    870
 New state    869 was old state    872
 New state    870 was old state    871
 New state    871 was old state    873
 New state    872 was old state    869
 New state    873 was old state    875
 New state    874 was old state    877
 New state    875 was old state    876
 New state    876 was old state    874
 New state    877 was old state    878
 New state    878 was old state    880
 New state    879 was old state    886
 New state    880 was old state    868
 New state    881 was old state    883
 New state    882 was old state    881
 New state    883 was old state    885
 New state    884 was old state    887
 New state    885 was old state    882
 New state    886 was old state    879
 New state    887 was old state    889
 New state    889 was old state    884
 New state    890 was old state    892
 New state    892 was old state    894
 New state    893 was old state    890
 New state    894 was old state    893
 New state    897 was old state    898
 New state    898 was old state    899
 New state    899 was old state    902
 New state    900 was old state    903
 New state    901 was old state    897
 New state    902 was old state    901
 New state    903 was old state    900
 New state    904 was old state    905
 New state    905 was old state    904
 New state    908 was old state    909
 New state    909 was old state    910
 New state    910 was old state    908
 New state    913 was old state    914
 New state    914 was old state    913
 New state    915 was old state    918
 New state    916 was old state    915
 New state    918 was old state    916
 New state    919 was old state    921
 New state    921 was old state    929
 New state    924 was old state    925
 New state    925 was old state    924
 New state    926 was old state    927
 New state    927 was old state    928
 New state    928 was old state    919
 New state    929 was old state    930
 New state    930 was old state    926
 New state    931 was old state    932
 New state    932 was old state    934
 New state    933 was old state    931
 New state    934 was old state    938
 New state    935 was old state    933
 New state    936 was old state    935
 New state    937 was old state    936
 New state    938 was old state    940
 New state    939 was old state    937
 New state    940 was old state    942
 New state    941 was old state    943
 New state    942 was old state    939
 New state    943 was old state    948
 New state    944 was old state    945
 New state    945 was old state    941
 New state    947 was old state    944
 New state    948 was old state    949
 New state    949 was old state    956
 New state    951 was old state    953
 New state    952 was old state    954
 New state    953 was old state    958
 New state    954 was old state    951
 New state    956 was old state    952
 New state    957 was old state    947
 New state    958 was old state    959
 New state    959 was old state    962
 New state    960 was old state    957
 New state    961 was old state    960
 New state    962 was old state    965
 New state    965 was old state    961
 New state    967 was old state    968
 New state    968 was old state    967
 New state    970 was old state    972
 New state    971 was old state    970
 New state    972 was old state    973
 New state    973 was old state    971
 New state    974 was old state    978
 New state    975 was old state    974
 New state    978 was old state    975
 New state    979 was old state    980
 New state    980 was old state    981
 New state    981 was old state    979
 New state    986 was old state    987
 New state    987 was old state    990
 New state    988 was old state    986
 New state    989 was old state    988
 New state    990 was old state    991
 New state    991 was old state    989
 New state    994 was old state    995
 New state    995 was old state    998
 New state    997 was old state    994
 New state    998 was old state    997
 New state    999 was old state   1000
 New state   1000 was old state    999
 New state   1001 was old state   1005
 New state   1004 was old state   1001
 New state   1005 was old state   1004
 New state   1009 was old state   1012
 New state   1010 was old state   1009
 New state   1011 was old state   1010
 New state   1012 was old state   1014
 New state   1013 was old state   1011
 New state   1014 was old state   1013
 New state   1016 was old state   1019
 New state   1017 was old state   1016
 New state   1018 was old state   1017
 New state   1019 was old state   1018
 New state   1020 was old state   1023
 New state   1022 was old state   1020
 New state   1023 was old state   1022
 New state   1025 was old state   1026
 New state   1026 was old state   1029
 New state   1028 was old state   1025
 New state   1029 was old state   1028
 New state   1035 was old state   1036
 New state   1036 was old state   1035
 New state   1042 was old state   1043
 New state   1043 was old state   1042
 New state   1046 was old state   1048
 New state   1047 was old state   1046
 New state   1048 was old state   1047
 New state   1049 was old state   1050
 New state   1050 was old state   1049
 New state   1051 was old state   1052
 New state   1052 was old state   1051
 New state   1055 was old state   1056
 New state   1056 was old state   1059
 New state   1058 was old state   1055
 New state   1059 was old state   1058
 New state   1061 was old state   1062
 New state   1062 was old state   1061
 New state   1063 was old state   1064
 New state   1064 was old state   1065
 New state   1065 was old state   1063
 New state   1066 was old state   1067
 New state   1067 was old state   1066
 New state   1069 was old state   1070
 New state   1070 was old state   1072
 New state   1071 was old state   1069
 New state   1072 was old state   1073
 New state   1073 was old state   1071
 New state   1074 was old state   1075
 New state   1075 was old state   1074
 New state   1078 was old state   1079
 New state   1079 was old state   1078
 New state   1081 was old state   1082
 New state   1082 was old state   1081
 New state   1092 was old state   1093
 New state   1093 was old state   1092
 New state   1094 was old state   1095
 New state   1095 was old state   1094
 New state   1096 was old state   1097
 New state   1097 was old state   1096
 New state   1099 was old state   1101
 New state   1100 was old state   1103
 New state   1101 was old state   1099
 New state   1102 was old state   1100
 New state   1103 was old state   1102
 New state   1104 was old state   1106
 New state   1105 was old state   1107
 New state   1106 was old state   1105
 New state   1107 was old state   1104
 New state   1108 was old state   1112
 New state   1109 was old state   1114
 New state   1110 was old state   1111
 New state   1111 was old state   1108
 New state   1112 was old state   1109
 New state   1113 was old state   1110
 New state   1114 was old state   1113
 New state   1115 was old state   1116
 New state   1116 was old state   1115
 New state   1119 was old state   1121
 New state   1120 was old state   1119
 New state   1121 was old state   1120
 New state   1122 was old state   1123
 New state   1123 was old state   1122
 New state   1125 was old state   1128
 New state   1126 was old state   1125
 New state   1127 was old state   1130
 New state   1128 was old state   1126
 New state   1129 was old state   1127
 New state   1130 was old state   1133
 New state   1131 was old state   1129
 New state   1132 was old state   1131
 New state   1133 was old state   1132
 New state   1138 was old state   1139
 New state   1139 was old state   1138
 New state   1140 was old state   1141
 New state   1141 was old state   1140
 New state   1144 was old state   1145
 New state   1145 was old state   1148
 New state   1146 was old state   1144
 New state   1147 was old state   1149
 New state   1148 was old state   1146
 New state   1149 was old state   1147
 New state   1151 was old state   1152
 New state   1152 was old state   1151
 New state   1153 was old state   1154
 New state   1154 was old state   1155
 New state   1155 was old state   1153
 New state   1156 was old state   1157
 New state   1157 was old state   1159
 New state   1158 was old state   1163
 New state   1159 was old state   1156
 New state   1160 was old state   1168
 New state   1161 was old state   1158
 New state   1162 was old state   1160
 New state   1163 was old state   1161
 New state   1164 was old state   1166
 New state   1166 was old state   1173
 New state   1167 was old state   1164
 New state   1168 was old state   1169
 New state   1169 was old state   1162
 New state   1170 was old state   1167
 New state   1171 was old state   1170
 New state   1173 was old state   1175
 New state   1174 was old state   1171
 New state   1175 was old state   1179
 New state   1177 was old state   1174
 New state   1178 was old state   1177
 New state   1179 was old state   1178
 New state   1180 was old state   1182
 New state   1181 was old state   1180
 New state   1182 was old state   1185
 New state   1183 was old state   1181
 New state   1184 was old state   1186
 New state   1185 was old state   1188
 New state   1186 was old state   1183
 New state   1187 was old state   1184
 New state   1188 was old state   1192
 New state   1189 was old state   1187
 New state   1190 was old state   1189
 New state   1191 was old state   1190
 New state   1192 was old state   1197
 New state   1193 was old state   1191
 New state   1194 was old state   1199
 New state   1195 was old state   1193
 New state   1196 was old state   1194
 New state   1197 was old state   1195
 New state   1198 was old state   1200
 New state   1199 was old state   1202
 New state   1200 was old state   1196
 New state   1201 was old state   1198
 New state   1202 was old state   1201
 New state   1203 was old state   1206
 New state   1204 was old state   1203
 New state   1205 was old state   1204
 New state   1206 was old state   1207
 New state   1207 was old state   1205
 New state   1210 was old state   1211
 New state   1211 was old state   1210
 New state   1213 was old state   1214
 New state   1214 was old state   1213
 New state   1217 was old state   1218
 New state   1218 was old state   1217
 New state   1236 was old state   1237
 New state   1237 was old state   1236
 Excitation Energies [eV] at current iteration:
 Root      1 :     4.365432375713679
 Root      2 :     7.109504341555764
 Root      3 :     7.907514351510840
 Root      4 :     8.342316768789734
 Root      5 :     8.460628672751719
 Root      6 :     8.883416131469387
 Root      7 :     9.022828597279002
 Root      8 :     9.335445837672527
 Root      9 :     9.365636942969271
 Root     10 :     9.415474186370480
 Root     11 :     9.636073640462234
 Root     12 :     9.944019186510170
 Root     13 :     9.998249867984912
 Root     14 :    10.625366975715880
 Root     15 :    10.699242870175790
 Root     16 :    10.777397217112180
 Root     17 :    10.872720365256690
 Root     18 :    10.977631528570970
 Root     19 :    11.124613102538440
 Root     20 :    11.189830315611450
 Root     21 :    11.310474928898560
 Root     22 :    11.499636515049310
 Root     23 :    11.595840160477380
 Root     24 :    11.684872092502800
 Root     25 :    11.952944448207960
 Root     26 :    12.148475944967440
 Root     27 :    12.175742932162360
 Root     28 :    12.211523140895560
 Root     29 :    12.289924911612000
 Root     30 :    12.348406220334170
 Root     31 :    12.416858535194840
 Root     32 :    12.505560805237630
 Root     33 :    12.569380523441720
 Root     34 :    12.717070402784180
 Root     35 :    12.767227858646730
 Root     36 :    12.897546546433020
 Root     37 :    12.985163754718370
 Root     38 :    13.045280570308890
 Root     39 :    13.093716726428180
 Root     40 :    13.239862790931460
 Root     41 :    13.334501173907110
 Root     42 :    13.351061105483620
 Root     43 :    13.411600863705710
 Root     44 :    13.464580865130500
 Root     45 :    13.488981929137960
 Root     46 :    13.660625272694280
 Root     47 :    13.744834208413330
 Root     48 :    13.751808268097630
 Root     49 :    13.825344058070240
 Root     50 :    13.937903831330750
 Root     51 :    13.992591123229040
 Root     52 :    14.023120756730970
 Root     53 :    14.060898236388440
 Root     54 :    14.094494954557890
 Root     55 :    14.208984100803510
 Root     56 :    14.212928494478330
 Root     57 :    14.234768805746770
 Root     58 :    14.315809905219770
 Root     59 :    14.376126407275180
 Root     60 :    14.390502446454630
 Root     61 :    14.467515574120260
 Root     62 :    14.559132964996200
 Root     63 :    14.612479037938480
 Root     64 :    14.723633256871530
 Root     65 :    14.809267417728410
 Root     66 :    14.814864564938960
 Root     67 :    14.830948634463870
 Root     68 :    14.897788282488920
 Root     69 :    14.941926400307570
 Root     70 :    14.979626873692480
 Root     71 :    15.044466577256220
 Root     72 :    15.221240666038900
 Root     73 :    15.255567478043720
 Root     74 :    15.327746284538280
 Root     75 :    15.415441473944360
 Root     76 :    15.434350244180800
 Root     77 :    15.536900911957200
 Root     78 :    15.542868116939050
 Root     79 :    15.548432104965330
 Root     80 :    15.575887135146250
 Root     81 :    15.653423370369940
 Root     82 :    15.735324913597760
 Root     83 :    15.800542279096190
 Root     84 :    15.967440149950830
 Root     85 :    16.057409433583490
 Root     86 :    16.089532950247770
 Root     87 :    16.146979663049680
 Root     88 :    16.154663382103900
 Root     89 :    16.177882525008100
 Root     90 :    16.377424497740800
 Root     91 :    16.391258613307650
 Root     92 :    16.423596735782730
 Root     93 :    16.427798471728260
 Root     94 :    16.491599744276920
 Root     95 :    16.546693770630760
 Root     96 :    16.614593237148140
 Root     97 :    16.648844209607260
 Root     98 :    16.675375646986050
 Root     99 :    16.752915441424340
 Root    100 :    16.798838807998310
 Root    101 :    16.891905584245480
 Root    102 :    16.897856918493670
 Root    103 :    16.969023281633340
 Root    104 :    16.993653151494540
 Root    105 :    17.048655938092490
 Root    106 :    17.138434313630780
 Root    107 :    17.194009848119610
 Root    108 :    17.376635716278910
 Root    109 :    17.400720045397450
 Root    110 :    17.419173099192360
 Root    111 :    17.515669818165100
 Root    112 :    17.534560512076470
 Root    113 :    17.564782421506220
 Root    114 :    17.582139851851150
 Root    115 :    17.664144412348330
 Root    116 :    17.668289937214710
 Root    117 :    17.682340624096140
 Root    118 :    17.718705933387470
 Root    119 :    17.726780424992790
 Root    120 :    17.782676583474000
 Root    121 :    17.818550645011790
 Root    122 :    17.838452704695820
 Root    123 :    17.864536643846280
 Root    124 :    17.916514927304720
 Root    125 :    17.972460520609960
 Root    126 :    18.088005127149990
 Root    127 :    18.101531235634420
 Root    128 :    18.126585819811830
 Root    129 :    18.160912301462970
 Root    130 :    18.246414523093830
 Root    131 :    18.247267337369620
 Root    132 :    18.295321243467880
 Root    133 :    18.408977841409620
 Root    134 :    18.427752604072200
 Root    135 :    18.471571380340590
 Root    136 :    18.496237968044210
 Root    137 :    18.592778242988780
 Root    138 :    18.658171547061650
 Root    139 :    18.688347497129590
 Root    140 :    18.783118820665360
 Root    141 :    18.821353237413300
 Root    142 :    18.849066523599450
 Root    143 :    18.886877131274390
 Root    144 :    18.926804837534970
 Root    145 :    19.014519350894010
 Root    146 :    19.061214908466800
 Root    147 :    19.075024869084770
 Root    148 :    19.101774750937910
 Root    149 :    19.158431221692100
 Root    150 :    19.222943307270190
 Root    151 :    19.298734589903950
 Root    152 :    19.310749903031750
 Root    153 :    19.362009001772380
 Root    154 :    19.432437490903550
 Root    155 :    19.502007523282040
 Root    156 :    19.528192509372170
 Root    157 :    19.550498747747840
 Root    158 :    19.566194405437690
 Root    159 :    19.623327653272760
 Root    160 :    19.713089141536250
 Root    161 :    19.734509575637810
 Root    162 :    19.766768089612650
 Root    163 :    19.800074378602970
 Root    164 :    19.895698595677400
 Root    165 :    19.907879916325790
 Root    166 :    19.955855757185980
 Root    167 :    20.072220149548010
 Root    168 :    20.073129959952690
 Root    169 :    20.107694315334390
 Root    170 :    20.177906630183820
 Root    171 :    20.227195427971380
 Root    172 :    20.238723235304010
 Root    173 :    20.263522306421260
 Root    174 :    20.336093906341160
 Root    175 :    20.360530242370150
 Root    176 :    20.479543405340080
 Root    177 :    20.491790232495050
 Root    178 :    20.551135739795640
 Root    179 :    20.598833912929790
 Root    180 :    20.668965307878790
 Root    181 :    20.692573926864170
 Root    182 :    20.713925298021030
 Root    183 :    20.759634212297180
 Root    184 :    20.834987970550500
 Root    185 :    20.878336438685700
 Root    186 :    20.925276929764940
 Root    187 :    20.951339421848420
 Root    188 :    21.007382524632880
 Root    189 :    21.040260122393150
 Root    190 :    21.111269420170860
 Root    191 :    21.128717213908560
 Root    192 :    21.228899970170240
 Root    193 :    21.330487145325660
 Root    194 :    21.362715553132680
 Root    195 :    21.416455035331270
 Root    196 :    21.464393195318940
 Root    197 :    21.519126522135140
 Root    198 :    21.559952841056590
 Root    199 :    21.580380610261900
 Root    200 :    21.629740784718110
 Root    201 :    21.655635027406080
 Root    202 :    21.688223000265510
 Root    203 :    21.717684254190940
 Root    204 :    21.748142707907420
 Root    205 :    21.749372521480250
 Root    206 :    21.759140802312840
 Root    207 :    21.888737285063990
 Root    208 :    21.937627263514750
 Root    209 :    21.958261177770690
 Root    210 :    21.984863806790200
 Root    211 :    22.075262273972470
 Root    212 :    22.083012804586990
 Root    213 :    22.168936685595880
 Root    214 :    22.187985281072440
 Root    215 :    22.216839733255630
 Root    216 :    22.320971361405360
 Root    217 :    22.341402756250460
 Root    218 :    22.371640961962010
 Root    219 :    22.468037108129950
 Root    220 :    22.492606063841210
 Root    221 :    22.555714941523880
 Root    222 :    22.558909136072910
 Root    223 :    22.662405061704390
 Root    224 :    22.678266197407190
 Root    225 :    22.721945101065770
 Root    226 :    22.735509131885440
 Root    227 :    22.826871905155150
 Root    228 :    22.898316064371020
 Root    229 :    22.919150381859980
 Root    230 :    22.966099295434390
 Root    231 :    23.025724826220230
 Root    232 :    23.041940400547510
 Root    233 :    23.069004940253680
 Root    234 :    23.084819947430550
 Root    235 :    23.126400616316980
 Root    236 :    23.198303061035720
 Root    237 :    23.257391649474960
 Root    238 :    23.283535824642200
 Root    239 :    23.294585665482360
 Root    240 :    23.374824279328110
 Root    241 :    23.388716366299790
 Root    242 :    23.454228273479430
 Root    243 :    23.484466398624560
 Root    244 :    23.563828776171340
 Root    245 :    23.687912475374780
 Root    246 :    23.694076063955770
 Root    247 :    23.757242075691840
 Root    248 :    23.860697905616540
 Root    249 :    23.882512462878910
 Root    250 :    23.939590929756970
 Root    251 :    23.953992204257500
 Root    252 :    24.026465643499910
 Root    253 :    24.028477143935590
 Root    254 :    24.146358494202730
 Root    255 :    24.261346234193540
 Root    256 :    24.293100881824540
 Root    257 :    24.362558768173120
 Root    258 :    24.395233138196970
 Root    259 :    24.412986538840150
 Root    260 :    24.471776456197440
 Root    261 :    24.510960009225190
 Root    262 :    24.576041910225760
 Root    263 :    24.658504061239890
 Root    264 :    24.756063847696960
 Root    265 :    24.792344278348840
 Root    266 :    24.855835352907560
 Root    267 :    24.931581834929570
 Root    268 :    24.981630116636460
 Root    269 :    25.039737959891480
 Root    270 :    25.044917396845510
 Root    271 :    25.135722511804870
 Root    272 :    25.242611393206620
 Root    273 :    25.303049424040460
 Root    274 :    25.312645242877210
 Root    275 :    25.373375664270770
 Root    276 :    25.448660410740420
 Root    277 :    25.461295475548360
 Root    278 :    25.504095176411330
 Root    279 :    25.562234739437820
 Root    280 :    25.630032316155860
 Root    281 :    25.713384346040600
 Root    282 :    25.723364563529960
 Root    283 :    25.880818564317550
 Root    284 :    25.885812234511450
 Root    285 :    25.961389857546830
 Root    286 :    26.071152831234330
 Root    287 :    26.095072272514400
 Root    288 :    26.194761661567100
 Root    289 :    26.230795188599140
 Root    290 :    26.281340142970360
 Root    291 :    26.313948275182380
 Root    292 :    26.316207834386970
 Root    293 :    26.427540733207290
 Root    294 :    26.482076968262660
 Root    295 :    26.512380767254590
 Root    296 :    26.589678332480000
 Root    297 :    26.609310660289100
 Root    298 :    26.637536923707880
 Root    299 :    26.653577912791890
 Root    300 :    26.722603546390190
 Root    301 :    26.738978049949960
 Root    302 :    26.816730828660060
 Root    303 :    26.833200107517560
 Root    304 :    26.873880502634510
 Root    305 :    26.918439798539940
 Root    306 :    26.987457975409310
 Root    307 :    26.988650191838520
 Root    308 :    27.032130399836770
[...]
      4   0.000000D+00 -0.340444D-01  0.000000D+00  0.000000D+00  0.144883D-02
      5  -0.822600D-02  0.000000D+00  0.182080D+00  0.105454D+00  0.000000D+00
      6   0.692646D-01  0.000000D+00 -0.792961D-01  0.309507D+00  0.000000D+00
      7   0.000000D+00  0.245748D+00  0.000000D+00  0.000000D+00  0.928142D-02
      8   0.000000D+00  0.172733D+00  0.000000D+00  0.000000D+00  0.742157D-02
      9   0.000000D+00  0.544701D+00  0.000000D+00  0.000000D+00  0.230121D-01
     10  -0.152169D+00  0.000000D+00  0.512217D-01 -0.774108D+00  0.000000D+00
     11   0.517690D-01  0.000000D+00 -0.173610D+00 -0.118332D+00  0.000000D+00
     12   0.100364D+00  0.000000D+00 -0.624892D-01  0.477201D+00  0.000000D+00
     13   0.440317D-02  0.000000D+00  0.102474D-01 -0.521894D-02  0.000000D+00
     14  -0.182208D+00  0.000000D+00  0.368247D+00 -0.531453D+00  0.000000D+00
     15   0.000000D+00 -0.529962D+00  0.000000D+00  0.000000D+00 -0.325839D-01
     16   0.000000D+00  0.174083D+00  0.000000D+00  0.000000D+00 -0.682701D-01
              1176          1177          1178          1179          1180 
      1  -0.146864D+03 -0.146851D+03 -0.146847D+03 -0.146802D+03 -0.146763D+03
      2   0.188899D-01  0.000000D+00  0.157865D-03  0.000000D+00  0.235988D-01
      3  -0.800536D-02  0.000000D+00 -0.311202D-01  0.000000D+00  0.465152D-02
      4   0.000000D+00  0.121877D-01  0.000000D+00 -0.578813D-02  0.000000D+00
      5  -0.109955D+00  0.000000D+00  0.447870D-02  0.000000D+00 -0.160419D+00
      6   0.441741D-01  0.000000D+00  0.235284D+00  0.000000D+00 -0.285706D-01
      7   0.000000D+00 -0.933798D-01  0.000000D+00  0.332845D-01  0.000000D+00
      8   0.000000D+00 -0.792876D-01  0.000000D+00  0.250791D-01  0.000000D+00
      9   0.000000D+00 -0.233125D+00  0.000000D+00  0.100466D+00  0.000000D+00
     10   0.502151D-01  0.000000D+00 -0.488809D+00  0.000000D+00  0.180663D+00
     11   0.679595D-01  0.000000D+00 -0.290155D-01  0.000000D+00  0.944909D+00
     12   0.815293D-01  0.000000D+00  0.331631D+00  0.000000D+00  0.162767D-01
     13  -0.336673D-01  0.000000D+00 -0.662978D-02  0.000000D+00 -0.108471D+00
     14  -0.130276D+00  0.000000D+00 -0.454183D+00  0.000000D+00 -0.333353D-01
     15   0.000000D+00  0.218317D+00  0.000000D+00 -0.102994D+00  0.000000D+00
     16   0.000000D+00 -0.833849D-01  0.000000D+00  0.331579D-01  0.000000D+00
              1181          1182          1183          1184          1185 
      1  -0.146742D+03 -0.146736D+03 -0.146694D+03 -0.146691D+03 -0.146677D+03
      2  -0.179941D-02  0.000000D+00  0.228028D-01  0.831703D-01  0.000000D+00
      3  -0.693830D-02  0.000000D+00 -0.405144D-02 -0.669645D-03  0.000000D+00
      4   0.000000D+00 -0.534269D-01  0.000000D+00  0.000000D+00  0.864773D-01
      5   0.215850D-01  0.000000D+00 -0.156780D+00 -0.570192D+00  0.000000D+00
      6   0.518894D-01  0.000000D+00  0.227679D-01  0.201879D-01  0.000000D+00
      7   0.000000D+00  0.362123D+00  0.000000D+00  0.000000D+00 -0.630745D+00
      8   0.000000D+00  0.264996D+00  0.000000D+00  0.000000D+00 -0.462610D+00
      9   0.000000D+00  0.787830D+00  0.000000D+00  0.000000D+00 -0.139127D+01
     10  -0.154157D+00  0.000000D+00  0.168367D+00  0.310367D+00  0.000000D+00
     11  -0.101113D+00  0.000000D+00  0.112672D+01  0.285736D+01  0.000000D+00
     12   0.719437D-01  0.000000D+00 -0.549871D-01 -0.515522D-01  0.000000D+00
     13   0.244439D-02  0.000000D+00 -0.477410D-01 -0.766470D-01  0.000000D+00
     14  -0.103598D+00  0.000000D+00 -0.495390D-01 -0.516809D+00  0.000000D+00
     15   0.000000D+00 -0.708058D+00  0.000000D+00  0.000000D+00  0.161652D+01
     16   0.000000D+00  0.277288D+00  0.000000D+00  0.000000D+00 -0.451202D+00
              1186          1187          1188          1189          1190 
      1  -0.146656D+03 -0.146625D+03 -0.146601D+03 -0.146600D+03 -0.146576D+03
      2   0.202471D-01  0.000000D+00  0.000000D+00  0.000000D+00  0.574868D-02
      3   0.398860D-03  0.000000D+00  0.000000D+00  0.000000D+00 -0.852512D-03
      4   0.000000D+00  0.131096D-01  0.357620D-02  0.264879D-02  0.000000D+00
      5  -0.146067D+00  0.000000D+00  0.000000D+00  0.000000D+00 -0.394388D-01
      6  -0.152346D-01  0.000000D+00  0.000000D+00  0.000000D+00 -0.997676D-03
      7   0.000000D+00 -0.108932D+00 -0.293628D-01 -0.191069D-01  0.000000D+00
      8   0.000000D+00 -0.775939D-01 -0.266753D-01 -0.257951D-01  0.000000D+00
      9   0.000000D+00 -0.236954D+00 -0.747738D-01 -0.568936D-01  0.000000D+00
     10   0.182886D+00  0.000000D+00  0.000000D+00  0.000000D+00  0.400645D-01
     11   0.329125D+00  0.000000D+00  0.000000D+00  0.000000D+00  0.289673D+00
     12  -0.330504D-01  0.000000D+00  0.000000D+00  0.000000D+00  0.159677D-02
     13   0.590978D-02  0.000000D+00  0.000000D+00  0.000000D+00 -0.266774D-01
     14  -0.441226D-01  0.000000D+00  0.000000D+00  0.000000D+00 -0.238115D-01
     15   0.000000D+00  0.278867D+00  0.774350D-01  0.578665D-01  0.000000D+00
     16   0.000000D+00 -0.109572D+00 -0.791778D-01  0.144591D-01  0.000000D+00
              1191          1192          1193          1194          1195 
      1  -0.146572D+03 -0.146552D+03 -0.146540D+03 -0.146485D+03 -0.146482D+03
      2   0.000000D+00 -0.207138D-02 -0.146093D-02  0.505501D-02  0.110598D-01
      3   0.000000D+00  0.249202D-01  0.328276D-02  0.567476D-01 -0.783482D-01
      4  -0.128939D-01  0.000000D+00  0.000000D+00  0.000000D+00  0.000000D+00
      5   0.000000D+00  0.213907D-01  0.988099D-02 -0.650078D-01 -0.125590D+00
      6   0.000000D+00 -0.189241D+00 -0.240105D-01 -0.438094D+00  0.574621D+00
      7   0.957964D-01  0.000000D+00  0.000000D+00  0.000000D+00  0.000000D+00
      8   0.655757D-01  0.000000D+00  0.000000D+00  0.000000D+00  0.000000D+00
      9   0.234283D+00  0.000000D+00  0.000000D+00  0.000000D+00  0.000000D+00
     10   0.000000D+00  0.382284D+00  0.374876D-01  0.100201D+01 -0.117550D+01
     11   0.000000D+00 -0.119208D+00  0.753488D-01  0.420606D+00  0.796029D+00
     12   0.000000D+00 -0.278649D+00  0.479608D-02 -0.572055D+00  0.857716D+00
     13   0.000000D+00 -0.233789D-02 -0.149749D-01  0.172826D-01  0.195863D-01
     14   0.000000D+00  0.481159D+00 -0.117253D-01  0.112176D+01 -0.144507D+01
     15  -0.251625D+00  0.000000D+00  0.000000D+00  0.000000D+00  0.000000D+00
     16   0.568005D-01  0.000000D+00  0.000000D+00  0.000000D+00  0.000000D+00
              1196          1197          1198          1199          1200 
      1  -0.146468D+03 -0.146465D+03 -0.146448D+03 -0.146419D+03 -0.146416D+03
      2   0.000000D+00  0.828032D-02 -0.104510D-01  0.000000D+00  0.000000D+00
      3   0.000000D+00  0.295166D-01 -0.273423D-01  0.000000D+00  0.000000D+00
      4  -0.272951D-02  0.000000D+00  0.000000D+00 -0.231955D-03  0.236293D-03
      5   0.000000D+00 -0.657280D-01  0.127727D+00  0.000000D+00  0.000000D+00
      6   0.000000D+00 -0.213339D+00  0.195067D+00  0.000000D+00  0.000000D+00
      7  -0.339312D-02  0.000000D+00  0.000000D+00  0.244733D-02 -0.166527D-02
      8   0.275010D-02  0.000000D+00  0.000000D+00 -0.582386D-03 -0.253169D-02
      9  -0.114960D+00  0.000000D+00  0.000000D+00  0.784400D-02  0.458956D-03
     10   0.000000D+00  0.558053D+00 -0.563684D+00  0.000000D+00  0.000000D+00
     11   0.000000D+00  0.468152D+00 -0.816351D+00  0.000000D+00  0.000000D+00
     12   0.000000D+00 -0.385110D+00  0.279227D+00  0.000000D+00  0.000000D+00
     13   0.000000D+00  0.146098D-01 -0.275494D-01  0.000000D+00  0.000000D+00
     14   0.000000D+00  0.575684D+00 -0.332169D+00  0.000000D+00  0.000000D+00
     15   0.119516D+00  0.000000D+00  0.000000D+00 -0.116773D-01 -0.724002D-03
     16  -0.182765D-02  0.000000D+00  0.000000D+00 -0.327599D-01 -0.326620D-01
              1201          1202          1203          1204          1205 
      1  -0.146413D+03 -0.146395D+03 -0.146358D+03 -0.146307D+03 -0.146289D+03
      2   0.480007D-02  0.000000D+00 -0.618502D-03 -0.166561D-01 -0.102184D+00
      3  -0.201230D-01  0.000000D+00 -0.296817D-02  0.697412D-02 -0.703298D-02
      4   0.000000D+00 -0.505788D-01  0.000000D+00  0.000000D+00  0.000000D+00
      5  -0.367001D-01  0.000000D+00  0.116983D-01  0.126073D+00  0.757347D+00
      6   0.152501D+00  0.000000D+00  0.235159D-01 -0.561681D-01  0.546861D-01
      7   0.000000D+00  0.399600D+00  0.000000D+00  0.000000D+00  0.000000D+00
      8   0.000000D+00  0.293737D+00  0.000000D+00  0.000000D+00  0.000000D+00
      9   0.000000D+00  0.902579D+00  0.000000D+00  0.000000D+00  0.000000D+00
     10  -0.330048D+00  0.000000D+00 -0.914038D-01  0.748623D-01 -0.689626D+00
     11   0.391262D+00  0.000000D+00 -0.867905D-03 -0.669470D+00 -0.365178D+01
     12   0.221247D+00  0.000000D+00 -0.336172D-02 -0.246541D-01  0.147524D+00
     13   0.908907D-02  0.000000D+00  0.600508D-01  0.415339D-01  0.916297D-01
     14  -0.443457D+00  0.000000D+00 -0.805073D-01  0.298648D+00  0.401009D+00
     15   0.000000D+00 -0.104498D+01  0.000000D+00  0.000000D+00  0.000000D+00
     16   0.000000D+00  0.288046D+00  0.000000D+00  0.000000D+00  0.000000D+00
              1206          1207          1208          1209          1210 
      1  -0.146264D+03 -0.146264D+03 -0.146216D+03 -0.146212D+03 -0.146107D+03
      2   0.385530D-01  0.000000D+00  0.000000D+00 -0.330110D-01  0.325681D-01
      3  -0.144746D-01  0.000000D+00  0.000000D+00 -0.133930D-01 -0.143714D-03
      4   0.000000D+00 -0.551162D-02 -0.555948D-02  0.000000D+00  0.000000D+00
      5  -0.287645D+00  0.000000D+00  0.000000D+00  0.242813D+00 -0.241526D+00
      6   0.123794D+00  0.000000D+00  0.000000D+00  0.110858D+00  0.107998D-01
      7   0.000000D+00  0.280921D-01  0.498436D-01  0.000000D+00  0.000000D+00
      8   0.000000D+00  0.218704D-01  0.315982D-01  0.000000D+00  0.000000D+00
      9   0.000000D+00  0.107647D-01  0.100308D+00  0.000000D+00  0.000000D+00
     10  -0.708303D-01  0.000000D+00  0.000000D+00 -0.402755D+00  0.155688D+00
     11   0.134654D+01  0.000000D+00  0.000000D+00 -0.972103D+00  0.650657D+00
     12   0.141366D+00  0.000000D+00  0.000000D+00  0.168083D+00  0.266771D-01
     13  -0.282793D-01  0.000000D+00  0.000000D+00  0.214821D-01  0.124168D-01
     14  -0.508472D+00  0.000000D+00  0.000000D+00 -0.732948D-01 -0.275100D+00
     15   0.000000D+00 -0.406697D-01 -0.102752D+00  0.000000D+00  0.000000D+00
     16   0.000000D+00  0.221576D-01  0.313602D-01  0.000000D+00  0.000000D+00
              1211          1212          1213          1214          1215 
      1  -0.146105D+03 -0.146082D+03 -0.145922D+03 -0.145904D+03 -0.145705D+03
      2  -0.135782D-01  0.000000D+00  0.103934D-02  0.109319D-01  0.153591D-01
      3  -0.271340D-02  0.000000D+00  0.721893D-02  0.402139D-03  0.679229D-03
      4   0.000000D+00  0.838681D-02  0.000000D+00  0.000000D+00  0.000000D+00
      5   0.904969D-01  0.000000D+00 -0.941787D-02 -0.770518D-01 -0.107740D+00
      6   0.182587D-01  0.000000D+00 -0.658042D-01 -0.103481D-01 -0.377732D-02
      7   0.000000D+00 -0.821962D-01  0.000000D+00  0.000000D+00  0.000000D+00
      8   0.000000D+00 -0.581038D-01  0.000000D+00  0.000000D+00  0.000000D+00
      9   0.000000D+00 -0.228394D+00  0.000000D+00  0.000000D+00  0.000000D+00
     10   0.927068D-02  0.000000D+00  0.192501D+00  0.929159D-01  0.761430D-01
     11  -0.155890D+00  0.000000D+00  0.531588D-01  0.484753D-01  0.170903D+00
     12   0.141969D-01  0.000000D+00 -0.866328D-01 -0.394132D-01 -0.337903D-01
     13  -0.374203D-02  0.000000D+00  0.118924D-01  0.197317D-01 -0.227713D-01
     14   0.197119D-01  0.000000D+00  0.269186D+00  0.695849D-03 -0.962599D-01
     15   0.000000D+00  0.339506D+00  0.000000D+00  0.000000D+00  0.000000D+00
     16   0.000000D+00 -0.545203D-01  0.000000D+00  0.000000D+00  0.000000D+00
              1216          1217          1218          1219          1220 
      1  -0.131174D+03 -0.131105D+03 -0.131104D+03 -0.131011D+03 -0.131000D+03
      2   0.573633D-02  0.871587D-02  0.000000D+00 -0.399771D-02  0.000000D+00
      3  -0.505877D-02  0.839513D-02  0.000000D+00  0.563514D-02  0.000000D+00
      4   0.000000D+00  0.000000D+00  0.112103D-01  0.000000D+00 -0.512707D-02
      5  -0.692880D-01 -0.104099D+00  0.000000D+00  0.536771D-01  0.000000D+00
      6   0.672566D-01 -0.956597D-01  0.000000D+00 -0.694575D-01  0.000000D+00
      7   0.000000D+00  0.000000D+00 -0.134578D+00  0.000000D+00  0.601327D-01
      8   0.000000D+00  0.000000D+00  0.186025D+00  0.000000D+00 -0.596890D-01
      9   0.000000D+00  0.000000D+00  0.234676D+00  0.000000D+00 -0.940163D-01
     10   0.430946D-01 -0.317910D+00  0.000000D+00 -0.232210D-01  0.000000D+00
     11  -0.214140D+00 -0.377867D+00  0.000000D+00  0.251174D+00  0.000000D+00
     12  -0.172599D+00  0.306996D+00  0.000000D+00  0.221943D+00  0.000000D+00
     13   0.147127D-01 -0.182043D-01  0.000000D+00  0.407485D-01  0.000000D+00
     14   0.218687D+00 -0.932520D-02  0.000000D+00 -0.200685D+00  0.000000D+00
     15   0.000000D+00  0.000000D+00 -0.262778D+00  0.000000D+00  0.106677D+00
     16   0.000000D+00  0.000000D+00  0.185558D+00  0.000000D+00 -0.735705D-01
              1221          1222          1223          1224          1225 
      1  -0.130938D+03 -0.130841D+03 -0.130729D+03 -0.130702D+03 -0.130633D+03
      2  -0.367193D-02 -0.222800D-03  0.107051D-02 -0.161258D-02  0.000000D+00
      3  -0.168240D-03 -0.300441D-02  0.644581D-02  0.264580D-03  0.000000D+00
      4   0.000000D+00  0.000000D+00  0.000000D+00  0.000000D+00 -0.985907D-02
      5   0.443890D-01 -0.646442D-02  0.932525D-02  0.133241D-01  0.000000D+00
      6   0.126638D-01  0.439327D-01 -0.692431D-01  0.555191D-02  0.000000D+00
      7   0.000000D+00  0.000000D+00  0.000000D+00  0.000000D+00  0.974268D-01
      8   0.000000D+00  0.000000D+00  0.000000D+00  0.000000D+00  0.798255D-01
      9   0.000000D+00  0.000000D+00  0.000000D+00  0.000000D+00 -0.356338D-02
     10   0.413896D-01  0.406381D-01  0.407729D-02  0.884833D-02  0.000000D+00
     11   0.153005D+00 -0.122735D+00  0.122950D-01  0.177868D+00  0.000000D+00
     12   0.127265D-01 -0.127305D+00 -0.120858D+00  0.159474D+00  0.000000D+00
     13   0.471513D-02 -0.825650D-01 -0.564665D-04  0.187020D+00  0.000000D+00
     14  -0.363082D-01  0.687248D-01 -0.203353D-01  0.265747D-01  0.000000D+00
     15   0.000000D+00  0.000000D+00  0.000000D+00  0.000000D+00  0.151471D-01
     16   0.000000D+00  0.000000D+00  0.000000D+00  0.000000D+00  0.817489D-01
              1226          1227          1228          1229          1230 
      1  -0.130580D+03 -0.130564D+03 -0.130513D+03 -0.130498D+03 -0.130398D+03
      2  -0.998933D-02  0.538483D-02  0.000000D+00 -0.423244D-03 -0.110995D-01
      3  -0.317997D-02 -0.628730D-02  0.000000D+00 -0.287693D-02 -0.385616D-02
      4   0.000000D+00  0.000000D+00 -0.195450D-02  0.000000D+00  0.000000D+00
      5   0.115668D+00 -0.771890D-01  0.000000D+00  0.148252D-01  0.905874D-01
      6   0.468584D-01  0.102976D+00  0.000000D+00  0.502855D-01  0.411063D-01
      7   0.000000D+00  0.000000D+00  0.339733D-01  0.000000D+00  0.000000D+00
      8   0.000000D+00  0.000000D+00  0.487982D-01  0.000000D+00  0.000000D+00
      9   0.000000D+00  0.000000D+00  0.166362D-01  0.000000D+00  0.000000D+00
     10  -0.893994D-01  0.772769D-01  0.000000D+00 -0.305851D-01 -0.821533D-01
     11   0.379219D-01 -0.309897D-01  0.000000D+00 -0.157396D-01  0.774669D-01
     12   0.796193D-01  0.149190D+00  0.000000D+00  0.899026D-01  0.259155D+00
     13  -0.206129D-01  0.472194D-02  0.000000D+00 -0.464150D-01  0.164800D+00
     14   0.113610D+00 -0.383441D-01  0.000000D+00  0.377822D-01  0.870326D-01
     15   0.000000D+00  0.000000D+00 -0.214488D-01  0.000000D+00  0.000000D+00
     16   0.000000D+00  0.000000D+00  0.425083D-01  0.000000D+00  0.000000D+00
              1231          1232          1233          1234          1235 
      1  -0.130338D+03 -0.130202D+03 -0.129941D+03 -0.109677D+03 -0.109544D+03
      2   0.136932D-02 -0.616057D-02  0.224286D-02 -0.121343D-02  0.000000D+00
      3  -0.793740D-03  0.832848D-03 -0.147599D-02  0.120342D-01  0.000000D+00
      4   0.000000D+00  0.000000D+00  0.000000D+00  0.000000D+00  0.116899D-01
      5  -0.217076D-01  0.707967D-01 -0.675137D-01  0.167140D-01  0.000000D+00
      6   0.100430D-01 -0.147036D-01  0.630420D-02 -0.262254D+00  0.000000D+00
      7   0.000000D+00  0.000000D+00  0.000000D+00  0.000000D+00 -0.219934D+00
      8   0.000000D+00  0.000000D+00  0.000000D+00  0.000000D+00 -0.160487D+00
      9   0.000000D+00  0.000000D+00  0.000000D+00  0.000000D+00 -0.495936D+00
     10   0.176678D-02 -0.551654D-01  0.603901D-01  0.581167D+00  0.000000D+00
     11   0.610841D-01  0.138622D-01  0.273530D+00 -0.694899D-01  0.000000D+00
     12   0.319287D-01  0.386741D-01  0.121158D+00 -0.382434D+00  0.000000D+00
     13   0.199456D-01  0.439040D-01  0.113103D+00 -0.102077D-01  0.000000D+00
     14  -0.171372D-01  0.412437D-01 -0.501942D-01  0.615014D+00  0.000000D+00
     15   0.000000D+00  0.000000D+00  0.000000D+00  0.000000D+00  0.498579D+00
     16   0.000000D+00  0.000000D+00  0.000000D+00  0.000000D+00 -0.164631D+00
              1236          1237          1238          1239          1240 
      1  -0.109492D+03 -0.109370D+03 -0.109316D+03 -0.109315D+03 -0.109205D+03
      2   0.102824D-01  0.196990D-02  0.000000D+00 -0.143598D-02  0.426485D-02
      3   0.107119D-02  0.136769D-02  0.000000D+00  0.153972D-02  0.864947D-03
      4   0.000000D+00  0.000000D+00  0.803082D-03  0.000000D+00  0.000000D+00
      5  -0.249061D+00 -0.163370D-01  0.000000D+00  0.343139D-01 -0.404366D-01
      6  -0.158641D-01 -0.541030D-01  0.000000D+00 -0.370710D-01 -0.202151D-01
      7   0.000000D+00  0.000000D+00 -0.217966D-01  0.000000D+00  0.000000D+00
      8   0.000000D+00  0.000000D+00 -0.166248D-01  0.000000D+00  0.000000D+00
      9   0.000000D+00  0.000000D+00 -0.524824D-01  0.000000D+00  0.000000D+00
     10   0.214711D+00  0.130357D+00  0.000000D+00  0.613950D-01  0.683097D-01
     11   0.120778D+01  0.853235D-01  0.000000D+00 -0.187644D+00  0.195646D+00
     12   0.673906D-01 -0.534916D-01  0.000000D+00 -0.932208D-01  0.382702D-01
     13   0.815279D-01  0.213605D-01  0.000000D+00 -0.357270D-01  0.801398D-01
     14  -0.145249D+00  0.108434D+00  0.000000D+00  0.116162D+00 -0.477133D-02
     15   0.000000D+00  0.000000D+00  0.559936D-01  0.000000D+00  0.000000D+00
     16   0.000000D+00  0.000000D+00 -0.174625D-01  0.000000D+00  0.000000D+00
              1241          1242 
      1  -0.109002D+03 -0.108809D+03
      2   0.180272D-02  0.124457D-02
      3  -0.419071D-03  0.469732D-03
      4   0.000000D+00  0.000000D+00
      5  -0.116440D-01 -0.404639D-01
      6   0.549556D-02 -0.423119D-02
      7   0.000000D+00  0.000000D+00
      8   0.000000D+00  0.000000D+00
      9   0.000000D+00  0.000000D+00
     10  -0.689000D-02  0.318838D-01
     11   0.544438D-01 -0.679757D-01
     12   0.646191D-01 -0.210882D+00
     13   0.648139D-01 -0.201585D+00
     14  -0.119053D-01 -0.277866D-01
     15   0.000000D+00  0.000000D+00
     16   0.000000D+00  0.000000D+00
 Unable to Open any file for archive entry.
 1\1\GINC-HEL20\SP\RwB97XD TD-FC\Gen\C2H4O1\RR\27-Feb-2022\0\\#P TD(Nst
 ates=10000) wB97XD/Gen SCF(maxcycles=100) Int(Grid=ultrafine)\\xGDB7_0
 0001_tier4.com\\0,1\C,0,0.926252,-0.719055,0.\C,0,0.,0.459276,0.\O,0,-
 1.196998,0.387135,0.\H,0,1.575966,-0.668677,0.877698\H,0,1.575966,-0.6
 68677,-0.877698\H,0,0.366734,-1.652236,0.\H,0,0.499812,1.451182,0.\\Ve
 rsion=EM64L-G16RevC.01\State=1-A'\HF=-153.843341\RMSD=3.065e-09\PG=CS 
 [SG(C2H2O1),X(H2)]\\@
 The archive entry for this job was punched.


 YOU CAN LEAD A BOY TO COLLEGE....
 BUT YOU CANNOT MAKE HIM THINK....
           ELBERT HUBBARD
 Job cpu time:       0 days  0 hours 30 minutes 15.7 seconds.
 Elapsed time:       0 days  0 hours  3 minutes 48.0 seconds.
 File lengths (MBytes):  RWF=   2051 Int=      0 D2E=      0 Chk=    631 Scr=      1
 Normal termination of Gaussian 16 at Sun Feb 27 06:43:47 2022.
