 Entering Gaussian System, Link 0=g16
 Input=bigQM7w_TDwB97XD_def2TZVP_000029.com
 Output=bigQM7w_TDwB97XD_def2TZVP_000029.log
 Initial command:
 /home/rr/g16/l1.exe "/scratch/rr/PBS_7918682.helios/Gau-4945.inp" -scrdir="/scratch/rr/PBS_7918682.helios/"
 Entering Link 1 = /home/rr/g16/l1.exe PID=      4948.
  
 Copyright (c) 1988-2019, Gaussian, Inc.  All Rights Reserved.
  
 This is part of the Gaussian(R) 16 program.  It is based on
 the Gaussian(R) 09 system (copyright 2009, Gaussian, Inc.),
 the Gaussian(R) 03 system (copyright 2003, Gaussian, Inc.),
 the Gaussian(R) 98 system (copyright 1998, Gaussian, Inc.),
 the Gaussian(R) 94 system (copyright 1995, Gaussian, Inc.),
 the Gaussian 92(TM) system (copyright 1992, Gaussian, Inc.),
 the Gaussian 90(TM) system (copyright 1990, Gaussian, Inc.),
 the Gaussian 88(TM) system (copyright 1988, Gaussian, Inc.),
 the Gaussian 86(TM) system (copyright 1986, Carnegie Mellon
 University), and the Gaussian 82(TM) system (copyright 1983,
 Carnegie Mellon University). Gaussian is a federally registered
 trademark of Gaussian, Inc.
  
 This software contains proprietary and confidential information,
 including trade secrets, belonging to Gaussian, Inc.
  
 This software is provided under written license and may be
 used, copied, transmitted, or stored only in accord with that
 written license.
  
 The following legend is applicable only to US Government
 contracts under FAR:
  
                    RESTRICTED RIGHTS LEGEND
  
 Use, reproduction and disclosure by the US Government is
 subject to restrictions as set forth in subparagraphs (a)
 and (c) of the Commercial Computer Software - Restricted
 Rights clause in FAR 52.227-19.
  
 Gaussian, Inc.
 340 Quinnipiac St., Bldg. 40, Wallingford CT 06492
  
  
 ---------------------------------------------------------------
 Warning -- This program may not be used in any manner that
 competes with the business of Gaussian, Inc. or will provide
 assistance to any competitor of Gaussian, Inc.  The licensee
 of this program is prohibited from giving any competitor of
 Gaussian, Inc. access to this program.  By using this program,
 the user acknowledges that Gaussian, Inc. is engaged in the
 business of creating and licensing software in the field of
 computational chemistry and represents and warrants to the
 licensee that it is not a competitor of Gaussian, Inc. and that
 it will not use this program in any manner prohibited above.
 ---------------------------------------------------------------
  

 Cite this work as:
 Gaussian 16, Revision C.01,
 M. J. Frisch, G. W. Trucks, H. B. Schlegel, G. E. Scuseria, 
 M. A. Robb, J. R. Cheeseman, G. Scalmani, V. Barone, 
 G. A. Petersson, H. Nakatsuji, X. Li, M. Caricato, A. V. Marenich, 
 J. Bloino, B. G. Janesko, R. Gomperts, B. Mennucci, H. P. Hratchian, 
 J. V. Ortiz, A. F. Izmaylov, J. L. Sonnenberg, D. Williams-Young, 
 F. Ding, F. Lipparini, F. Egidi, J. Goings, B. Peng, A. Petrone, 
 T. Henderson, D. Ranasinghe, V. G. Zakrzewski, J. Gao, N. Rega, 
 G. Zheng, W. Liang, M. Hada, M. Ehara, K. Toyota, R. Fukuda, 
 J. Hasegawa, M. Ishida, T. Nakajima, Y. Honda, O. Kitao, H. Nakai, 
 T. Vreven, K. Throssell, J. A. Montgomery, Jr., J. E. Peralta, 
 F. Ogliaro, M. J. Bearpark, J. J. Heyd, E. N. Brothers, K. N. Kudin, 
 V. N. Staroverov, T. A. Keith, R. Kobayashi, J. Normand, 
 K. Raghavachari, A. P. Rendell, J. C. Burant, S. S. Iyengar, 
 J. Tomasi, M. Cossi, J. M. Millam, M. Klene, C. Adamo, R. Cammi, 
 J. W. Ochterski, R. L. Martin, K. Morokuma, O. Farkas, 
 J. B. Foresman, and D. J. Fox, Gaussian, Inc., Wallingford CT, 2019.
 
 ******************************************
 Gaussian 16:  EM64L-G16RevC.01  3-Jul-2019
                27-Feb-2022 
 ******************************************
 %mem=64gb
 %nproc=8
 Will use up to    8 processors via shared memory.
 ----------------------------------------------------------------------
 #P TD(Nstates=10000) wB97XD/Gen SCF(maxcycles=100) Int(Grid=ultrafine)
 ----------------------------------------------------------------------
 1/38=1,172=1/1;
 2/12=2,17=6,18=5,40=1/2;
 3/5=7,11=9,25=1,30=1,74=-58,75=-5/1,2,3,8;
 4//1;
 5/5=2,7=100,38=5/2;
 8/6=1,10=1,108=10000/1;
 9/41=10000,42=1,70=2/14;
 6/7=2,8=2,9=2,10=2/1;
 99/5=1,9=1/99;
 Leave Link    1 at Sun Feb 27 06:35:51 2022, MaxMem=  8589934592 cpu:               0.5 elap:               0.1
 (Enter /home/rr/g16/l101.exe)
 ---------------------
 xGDB7_00001_tier4.com
 ---------------------
 Symbolic Z-matrix:
 Charge =  0 Multiplicity = 1
 8                    -1.02862  -0.39518   0. 
 7                     0.        0.52623   0. 
 6                     1.13275  -0.03091   0. 
 1                    -1.81657   0.15179   0. 
 1                     1.99426   0.62344   0. 
 1                     1.2548   -1.11197   0. 
 
 ITRead=  0  0  0  0  0  0
 MicOpt= -1 -1 -1 -1 -1 -1
 NAtoms=      6 NQM=        6 NQMF=       0 NMMI=      0 NMMIF=      0
                NMic=       0 NMicF=      0.
                    Isotopes and Nuclear Properties:
 (Nuclear quadrupole moments (NQMom) in fm**2, nuclear magnetic moments (NMagM)
  in nuclear magnetons)

  Atom         1           2           3           4           5           6
 IAtWgt=          16          14          12           1           1           1
 AtmWgt=  15.9949146  14.0030740  12.0000000   1.0078250   1.0078250   1.0078250
 NucSpn=           0           2           0           1           1           1
 AtZEff=  -0.0000000  -0.0000000  -0.0000000  -0.0000000  -0.0000000  -0.0000000
 NQMom=    0.0000000   2.0440000   0.0000000   0.0000000   0.0000000   0.0000000
 NMagM=    0.0000000   0.4037610   0.0000000   2.7928460   2.7928460   2.7928460
 AtZNuc=   8.0000000   7.0000000   6.0000000   1.0000000   1.0000000   1.0000000
 Leave Link  101 at Sun Feb 27 06:35:51 2022, MaxMem=  8589934592 cpu:               0.9 elap:               0.1
 (Enter /home/rr/g16/l202.exe)
                          Input orientation:                          
 ---------------------------------------------------------------------
 Center     Atomic      Atomic             Coordinates (Angstroms)
 Number     Number       Type             X           Y           Z
 ---------------------------------------------------------------------
      1          8           0       -1.028621   -0.395177    0.000000
      2          7           0        0.000000    0.526228    0.000000
      3          6           0        1.132746   -0.030907    0.000000
      4          1           0       -1.816572    0.151791    0.000000
      5          1           0        1.994262    0.623439    0.000000
      6          1           0        1.254802   -1.111965    0.000000
 ---------------------------------------------------------------------
                    Distance matrix (angstroms):
                    1          2          3          4          5
     1  O    0.000000
     2  N    1.380959   0.000000
     3  C    2.191849   1.262344   0.000000
     4  H    0.959188   1.854761   2.954971   0.000000
     5  H    3.189890   1.996630   1.081840   3.839910   0.000000
     6  H    2.393283   2.063542   1.087926   3.321207   1.886380
                    6
     6  H    0.000000
 Stoichiometry    CH3NO
 Framework group  CS[SG(CH3NO)]
 Deg. of freedom     9
 Full point group                 CS      NOp   2
 Largest Abelian subgroup         CS      NOp   2
 Largest concise Abelian subgroup C1      NOp   1
                         Standard orientation:                         
 ---------------------------------------------------------------------
 Center     Atomic      Atomic             Coordinates (Angstroms)
 Number     Number       Type             X           Y           Z
 ---------------------------------------------------------------------
      1          8           0       -1.028621   -0.395177   -0.000000
      2          7           0       -0.000000    0.526228   -0.000000
      3          6           0        1.132746   -0.030907    0.000000
      4          1           0       -1.816572    0.151791   -0.000000
      5          1           0        1.994262    0.623439    0.000000
      6          1           0        1.254802   -1.111965    0.000000
 ---------------------------------------------------------------------
 Rotational constants (GHZ):          71.1254820          11.9936263          10.2630126
 Leave Link  202 at Sun Feb 27 06:35:51 2022, MaxMem=  8589934592 cpu:               0.2 elap:               0.1
 (Enter /home/rr/g16/l301.exe)
 General basis read from cards:  (5D, 7F)
 Centers:       4      5      6
 S 3 1.00
     Exponent=  3.4061341000D+01 Coefficients=  6.0251978000D-03
     Exponent=  5.1235746000D+00 Coefficients=  4.5021094000D-02
     Exponent=  1.1646626000D+00 Coefficients=  2.0189726000D-01
 S 1 1.00
     Exponent=  3.2723041000D-01 Coefficients=  1.0000000000D+00
 S 1 1.00
     Exponent=  1.0307241000D-01 Coefficients=  1.0000000000D+00
 P 1 1.00
     Exponent=  8.0000000000D-01 Coefficients=  1.0000000000D+00
 P 1 1.00
     Exponent=  9.5774129632D-02 Coefficients=  1.0000000000D+00
 ****
 Centers:       3
 S 6 1.00
     Exponent=  1.3575349682D+04 Coefficients=  2.2245814352D-04
     Exponent=  2.0352333680D+03 Coefficients=  1.7232738252D-03
     Exponent=  4.6322562359D+02 Coefficients=  8.9255715314D-03
     Exponent=  1.3120019598D+02 Coefficients=  3.5727984502D-02
     Exponent=  4.2853015891D+01 Coefficients=  1.1076259931D-01
     Exponent=  1.5584185766D+01 Coefficients=  2.4295627626D-01
 S 2 1.00
     Exponent=  6.2067138508D+00 Coefficients=  4.1440263448D-01
     Exponent=  2.5764896527D+00 Coefficients=  2.3744968655D-01
 S 1 1.00
     Exponent=  5.7696339419D-01 Coefficients=  1.0000000000D+00
 S 1 1.00
     Exponent=  2.2972831358D-01 Coefficients=  1.0000000000D+00
 S 1 1.00
     Exponent=  9.5164440028D-02 Coefficients=  1.0000000000D+00
 S 1 1.00
     Exponent=  4.8475401370D-02 Coefficients=  1.0000000000D+00
 P 4 1.00
     Exponent=  3.4697232244D+01 Coefficients=  5.3333657805D-03
     Exponent=  7.9582622826D+00 Coefficients=  3.5864109092D-02
     Exponent=  2.3780826883D+00 Coefficients=  1.4215873329D-01
     Exponent=  8.1433208183D-01 Coefficients=  3.4270471845D-01
 P 1 1.00
     Exponent=  2.8887547253D-01 Coefficients=  4.6445822433D-01
 P 1 1.00
     Exponent=  1.0056823671D-01 Coefficients=  2.4955789874D-01
 D 1 1.00
     Exponent=  1.0970000000D+00 Coefficients=  1.0000000000D+00
 D 1 1.00
     Exponent=  3.1800000000D-01 Coefficients=  1.0000000000D+00
 D 1 1.00
     Exponent=  9.0985336424D-02 Coefficients=  1.0000000000D+00
 F 1 1.00
     Exponent=  7.6100000000D-01 Coefficients=  1.0000000000D+00
 ****
 Centers:       2
 S 6 1.00
     Exponent=  1.9730800647D+04 Coefficients=  2.1887984991D-04
     Exponent=  2.9578958745D+03 Coefficients=  1.6960708803D-03
     Exponent=  6.7322133595D+02 Coefficients=  8.7954603538D-03
     Exponent=  1.9068249494D+02 Coefficients=  3.5359382605D-02
     Exponent=  6.2295441898D+01 Coefficients=  1.1095789217D-01
     Exponent=  2.2654161182D+01 Coefficients=  2.4982972552D-01
 S 2 1.00
     Exponent=  8.9791477428D+00 Coefficients=  4.0623896148D-01
     Exponent=  3.6863002370D+00 Coefficients=  2.4338217176D-01
 S 1 1.00
     Exponent=  8.4660076805D-01 Coefficients=  1.0000000000D+00
 S 1 1.00
     Exponent=  3.3647133771D-01 Coefficients=  1.0000000000D+00
 S 1 1.00
     Exponent=  1.3647653675D-01 Coefficients=  1.0000000000D+00
 S 1 1.00
     Exponent=  6.8441605847D-02 Coefficients=  1.0000000000D+00
 P 4 1.00
     Exponent=  4.9200380510D+01 Coefficients=  5.5552416751D-03
     Exponent=  1.1346790537D+01 Coefficients=  3.8052379723D-02
     Exponent=  3.4273972411D+00 Coefficients=  1.4953671029D-01
     Exponent=  1.1785525134D+00 Coefficients=  3.4949305230D-01
 P 1 1.00
     Exponent=  4.1642204972D-01 Coefficients=  4.5843153697D-01
 P 1 1.00
     Exponent=  1.4260826011D-01 Coefficients=  2.4428771672D-01
 D 1 1.00
     Exponent=  1.6540000000D+00 Coefficients=  1.0000000000D+00
 D 1 1.00
     Exponent=  4.6900000000D-01 Coefficients=  1.0000000000D+00
 D 1 1.00
     Exponent=  1.2829642058D-01 Coefficients=  1.0000000000D+00
 F 1 1.00
     Exponent=  1.0930000000D+00 Coefficients=  1.0000000000D+00
 ****
 Centers:       1
 S 6 1.00
     Exponent=  2.7032382631D+04 Coefficients=  2.1726302465D-04
     Exponent=  4.0523871392D+03 Coefficients=  1.6838662199D-03
     Exponent=  9.2232722710D+02 Coefficients=  8.7395616265D-03
     Exponent=  2.6124070989D+02 Coefficients=  3.5239968808D-02
     Exponent=  8.5354641351D+01 Coefficients=  1.1153519115D-01
     Exponent=  3.1035035245D+01 Coefficients=  2.5588953961D-01
 S 2 1.00
     Exponent=  1.2260860728D+01 Coefficients=  3.9768730901D-01
     Exponent=  4.9987076005D+00 Coefficients=  2.4627849430D-01
 S 1 1.00
     Exponent=  1.1703108158D+00 Coefficients=  1.0000000000D+00
 S 1 1.00
     Exponent=  4.6474740994D-01 Coefficients=  1.0000000000D+00
 S 1 1.00
     Exponent=  1.8504536357D-01 Coefficients=  1.0000000000D+00
 S 1 1.00
     Exponent=  7.0288026270D-02 Coefficients=  1.0000000000D+00
 P 4 1.00
     Exponent=  6.3274954801D+01 Coefficients=  6.0685103418D-03
     Exponent=  1.4627049379D+01 Coefficients=  4.1912575824D-02
     Exponent=  4.4501223456D+00 Coefficients=  1.6153841088D-01
     Exponent=  1.5275799647D+00 Coefficients=  3.5706951311D-01
 P 1 1.00
     Exponent=  5.2935117943D-01 Coefficients=  4.4794207502D-01
 P 1 1.00
     Exponent=  1.7478421270D-01 Coefficients=  2.4446069663D-01
 P 1 1.00
     Exponent=  5.1112745706D-02 Coefficients=  1.0000000000D+00
 D 1 1.00
     Exponent=  2.3140000000D+00 Coefficients=  1.0000000000D+00
 D 1 1.00
     Exponent=  6.4500000000D-01 Coefficients=  1.0000000000D+00
 D 1 1.00
     Exponent=  1.4696477366D-01 Coefficients=  1.0000000000D+00
 F 1 1.00
     Exponent=  1.4280000000D+00 Coefficients=  1.0000000000D+00
 ****
 Ernie: Thresh=  0.10000D-02 Tol=  0.10000D-05 Strict=F.
 There are   113 symmetry adapted cartesian basis functions of A'  symmetry.
 There are    46 symmetry adapted cartesian basis functions of A"  symmetry.
 There are    98 symmetry adapted basis functions of A'  symmetry.
 There are    43 symmetry adapted basis functions of A"  symmetry.
   141 basis functions,   210 primitive gaussians,   159 cartesian basis functions
    12 alpha electrons       12 beta electrons
       nuclear repulsion energy        71.3165683749 Hartrees.
 IExCor= 4639 DFT=T Ex+Corr=wB97XD ExCW=0 ScaHFX=  1.000000
 ScaDFX=  1.000000  1.000000  1.000000  1.000000 ScalE2=  1.000000  1.000000
 IRadAn=      5 IRanWt=     -1 IRanGd=            0 ICorTp=0 IEmpDi=121
 HFx  wShort=  0.000000 wLong=  0.200000 cFull=  0.222036 cShort=  0.000000 cLong=  0.777964
 DFx  wShort=  0.000000 wLong=  0.200000 cFull=  0.000000 cShort=  0.000000 cLong=  1.000000
 NAtoms=    6 NActive=    6 NUniq=    6 SFac= 1.00D+00 NAtFMM=   60 NAOKFM=F Big=F
 Integral buffers will be    131072 words long.
 Raffenetti 1 integral format.
 Two-electron integral symmetry is turned on.
 R6Disp:  Grimme-D2 Dispersion energy=       -0.0006983295 Hartrees.
 Nuclear repulsion after empirical dispersion term =       71.3158700454 Hartrees.
 Leave Link  301 at Sun Feb 27 06:35:51 2022, MaxMem=  8589934592 cpu:               1.2 elap:               0.2
 (Enter /home/rr/g16/l302.exe)
 NPDir=0 NMtPBC=     1 NCelOv=     1 NCel=       1 NClECP=     1 NCelD=      1
         NCelK=      1 NCelE2=     1 NClLst=     1 CellRange=     0.0.
 One-electron integrals computed using PRISM.
 One-electron integral symmetry used in STVInt
 NBasis=   141 RedAO= T EigKep=  5.00D-05  NBF=    98    43
 NBsUse=   141 1.00D-06 EigRej= -1.00D+00 NBFU=    98    43
 Precomputing XC quadrature grid using
 IXCGrd= 4 IRadAn=           5 IRanWt=          -1 IRanGd=           0 AccXCQ= 0.00D+00.
 Generated NRdTot=       0 NPtTot=           0 NUsed=           0 NTot=          32
 NSgBfM=   159   159   159   159   159 MxSgAt=     6 MxSgA2=     6.
 Leave Link  302 at Sun Feb 27 06:35:52 2022, MaxMem=  8589934592 cpu:               2.3 elap:               0.4
 (Enter /home/rr/g16/l303.exe)
 DipDrv:  MaxL=1.
 Leave Link  303 at Sun Feb 27 06:35:52 2022, MaxMem=  8589934592 cpu:               0.4 elap:               0.1
 (Enter /home/rr/g16/l308.exe)
 Leave Link  308 at Sun Feb 27 06:35:52 2022, MaxMem=  8589934592 cpu:               0.4 elap:               0.1
 (Enter /home/rr/g16/l401.exe)
 ExpMin= 4.85D-02 ExpMax= 2.70D+04 ExpMxC= 9.22D+02 IAcc=3 IRadAn=         5 AccDes= 0.00D+00
 Harris functional with IExCor= 4639 and IRadAn=       5 diagonalized for initial guess.
 HarFok:  IExCor= 4639 AccDes= 0.00D+00 IRadAn=         5 IDoV= 1 UseB2=F ITyADJ=14
 ICtDFT=  3500011 ScaDFX=  1.000000  1.000000  1.000000  1.000000
 FoFCou: FMM=F IPFlag=           0 FMFlag=      100000 FMFlg1=           0
         NFxFlg=           0 DoJE=T BraDBF=F KetDBF=T FulRan=T
         wScrn=  0.000000 ICntrl=       500 IOpCl=  0 I1Cent=   200000004 NGrid=           0
         NMat0=    1 NMatS0=      1 NMatT0=    0 NMatD0=    1 NMtDS0=    0 NMtDT0=    0
 Petite list used in FoFCou.
 Harris En= -163.197840446161    
 JPrj=0 DoOrth=F DoCkMO=F.
 Initial guess orbital symmetries:
       Occupied  (A') (A') (A') (A') (A') (A') (A') (A') (A') (A")
                 (A') (A")
       Virtual   (A") (A') (A') (A') (A") (A') (A') (A') (A') (A")
                 (A') (A") (A') (A') (A") (A') (A') (A") (A') (A')
                 (A') (A') (A") (A') (A") (A') (A') (A') (A') (A")
                 (A') (A") (A') (A") (A') (A') (A') (A") (A') (A')
                 (A") (A') (A') (A') (A') (A") (A') (A') (A") (A')
                 (A") (A') (A') (A') (A') (A') (A") (A') (A") (A")
                 (A') (A') (A") (A') (A') (A') (A") (A") (A') (A')
                 (A") (A') (A") (A') (A') (A') (A") (A') (A') (A')
                 (A') (A') (A') (A') (A") (A') (A') (A") (A") (A")
                 (A') (A") (A') (A") (A') (A') (A') (A') (A') (A')
                 (A") (A') (A') (A") (A') (A') (A") (A") (A') (A')
                 (A") (A') (A") (A") (A') (A') (A') (A") (A') (A')
                 (A") (A') (A") (A') (A') (A') (A') (A') (A')
 The electronic state of the initial guess is 1-A'.
 Leave Link  401 at Sun Feb 27 06:35:53 2022, MaxMem=  8589934592 cpu:               3.6 elap:               0.5
 (Enter /home/rr/g16/l502.exe)
 Keep R1 ints in memory in symmetry-blocked form, NReq=151626412.
 FoFCou: FMM=F IPFlag=           0 FMFlag=           0 FMFlg1=           0
         NFxFlg=           0 DoJE=F BraDBF=F KetDBF=F FulRan=T
         wScrn=  0.000000 ICntrl=       600 IOpCl=  0 I1Cent=           0 NGrid=           0
         NMat0=    1 NMatS0=  10011 NMatT0=    0 NMatD0=    1 NMtDS0=    0 NMtDT0=    0
 Petite list used in FoFCou.
 Closed shell SCF:
 Using DIIS extrapolation, IDIIS=  1040.
 NGot=  8589934592 LenX=  8564172408 LenY=  8564146686
 Requested convergence on RMS density matrix=1.00D-08 within 100 cycles.
 Requested convergence on MAX density matrix=1.00D-06.
 Requested convergence on             energy=1.00D-06.
 No special actions if energy rises.

 Cycle   1  Pass 1  IDiag  1:
 E= -169.720156796727    
 DIIS: error= 6.76D-02 at cycle   1 NSaved=   1.
 NSaved= 1 IEnMin= 1 EnMin= -169.720156796727     IErMin= 1 ErrMin= 6.76D-02
 ErrMax= 6.76D-02  0.00D+00 EMaxC= 1.00D-01 BMatC= 4.47D-01 BMatP= 4.47D-01
 IDIUse=3 WtCom= 3.24D-01 WtEn= 6.76D-01
 Coeff-Com:  0.100D+01
 Coeff-En:   0.100D+01
 Coeff:      0.100D+01
 Gap=     0.438 Goal=   None    Shift=    0.000
 GapD=    0.438 DampG=2.000 DampE=0.500 DampFc=1.0000 IDamp=-1.
 RMSDP=6.10D-03 MaxDP=2.13D-01              OVMax= 2.68D-01

 Cycle   2  Pass 1  IDiag  1:
 E= -169.694188788442     Delta-E=        0.025968008285 Rises=F Damp=F
 DIIS: error= 2.85D-02 at cycle   2 NSaved=   2.
 NSaved= 2 IEnMin= 1 EnMin= -169.720156796727     IErMin= 2 ErrMin= 2.85D-02
 ErrMax= 2.85D-02  0.00D+00 EMaxC= 1.00D-01 BMatC= 1.84D-01 BMatP= 4.47D-01
 IDIUse=3 WtCom= 7.15D-01 WtEn= 2.85D-01
 Coeff-Com:  0.363D+00 0.637D+00
 Coeff-En:   0.555D+00 0.445D+00
 Coeff:      0.418D+00 0.582D+00
 Gap=     0.388 Goal=   None    Shift=    0.000
 RMSDP=2.36D-03 MaxDP=6.80D-02 DE= 2.60D-02 OVMax= 1.76D-01

 Cycle   3  Pass 1  IDiag  1:
 E= -169.811557231771     Delta-E=       -0.117368443329 Rises=F Damp=F
 DIIS: error= 9.34D-03 at cycle   3 NSaved=   3.
 NSaved= 3 IEnMin= 3 EnMin= -169.811557231771     IErMin= 3 ErrMin= 9.34D-03
 ErrMax= 9.34D-03  0.00D+00 EMaxC= 1.00D-01 BMatC= 2.11D-02 BMatP= 1.84D-01
 IDIUse=3 WtCom= 9.07D-01 WtEn= 9.34D-02
 Coeff-Com:  0.272D-01 0.259D+00 0.714D+00
 Coeff-En:   0.000D+00 0.747D-01 0.925D+00
 Coeff:      0.246D-01 0.242D+00 0.733D+00
 Gap=     0.413 Goal=   None    Shift=    0.000
 RMSDP=9.31D-04 MaxDP=2.89D-02 DE=-1.17D-01 OVMax= 6.49D-02

 Cycle   4  Pass 1  IDiag  1:
 E= -169.828078037334     Delta-E=       -0.016520805564 Rises=F Damp=F
 DIIS: error= 2.03D-03 at cycle   4 NSaved=   4.
 NSaved= 4 IEnMin= 4 EnMin= -169.828078037334     IErMin= 4 ErrMin= 2.03D-03
 ErrMax= 2.03D-03  0.00D+00 EMaxC= 1.00D-01 BMatC= 5.45D-04 BMatP= 2.11D-02
 IDIUse=3 WtCom= 9.80D-01 WtEn= 2.03D-02
 Coeff-Com:  0.162D-02 0.349D-01 0.207D+00 0.757D+00
 Coeff-En:   0.000D+00 0.000D+00 0.000D+00 0.100D+01
 Coeff:      0.159D-02 0.342D-01 0.202D+00 0.762D+00
 Gap=     0.415 Goal=   None    Shift=    0.000
 RMSDP=1.31D-04 MaxDP=3.13D-03 DE=-1.65D-02 OVMax= 6.76D-03

 Cycle   5  Pass 1  IDiag  1:
 E= -169.828528183266     Delta-E=       -0.000450145932 Rises=F Damp=F
 DIIS: error= 3.89D-04 at cycle   5 NSaved=   5.
 NSaved= 5 IEnMin= 5 EnMin= -169.828528183266     IErMin= 5 ErrMin= 3.89D-04
 ErrMax= 3.89D-04  0.00D+00 EMaxC= 1.00D-01 BMatC= 3.20D-05 BMatP= 5.45D-04
 IDIUse=3 WtCom= 9.96D-01 WtEn= 3.89D-03
 Coeff-Com: -0.138D-02-0.135D-01 0.825D-02 0.284D+00 0.723D+00
 Coeff-En:   0.000D+00 0.000D+00 0.000D+00 0.000D+00 0.100D+01
 Coeff:     -0.137D-02-0.134D-01 0.822D-02 0.283D+00 0.724D+00
 Gap=     0.414 Goal=   None    Shift=    0.000
 RMSDP=5.97D-05 MaxDP=1.80D-03 DE=-4.50D-04 OVMax= 2.26D-03

 Cycle   6  Pass 1  IDiag  1:
 E= -169.828554985453     Delta-E=       -0.000026802187 Rises=F Damp=F
 DIIS: error= 2.45D-04 at cycle   6 NSaved=   6.
 NSaved= 6 IEnMin= 6 EnMin= -169.828554985453     IErMin= 6 ErrMin= 2.45D-04
 ErrMax= 2.45D-04  0.00D+00 EMaxC= 1.00D-01 BMatC= 6.07D-06 BMatP= 3.20D-05
 IDIUse=3 WtCom= 9.98D-01 WtEn= 2.45D-03
 Coeff-Com: -0.789D-03-0.110D-01-0.219D-01 0.276D-01 0.344D+00 0.662D+00
 Coeff-En:   0.000D+00 0.000D+00 0.000D+00 0.000D+00 0.000D+00 0.100D+01
 Coeff:     -0.787D-03-0.109D-01-0.219D-01 0.275D-01 0.343D+00 0.663D+00
 Gap=     0.415 Goal=   None    Shift=    0.000
 RMSDP=2.00D-05 MaxDP=4.12D-04 DE=-2.68D-05 OVMax= 1.04D-03

 Cycle   7  Pass 1  IDiag  1:
 E= -169.828560722633     Delta-E=       -0.000005737180 Rises=F Damp=F
 DIIS: error= 4.82D-05 at cycle   7 NSaved=   7.
 NSaved= 7 IEnMin= 7 EnMin= -169.828560722633     IErMin= 7 ErrMin= 4.82D-05
 ErrMax= 4.82D-05  0.00D+00 EMaxC= 1.00D-01 BMatC= 4.25D-07 BMatP= 6.07D-06
 IDIUse=1 WtCom= 1.00D+00 WtEn= 0.00D+00
 Coeff-Com: -0.758D-04-0.101D-02-0.641D-02-0.416D-01-0.106D-01 0.175D+00
 Coeff-Com:  0.884D+00
 Coeff:     -0.758D-04-0.101D-02-0.641D-02-0.416D-01-0.106D-01 0.175D+00
 Coeff:      0.884D+00
 Gap=     0.415 Goal=   None    Shift=    0.000
 RMSDP=1.25D-05 MaxDP=3.59D-04 DE=-5.74D-06 OVMax= 4.52D-04

 Cycle   8  Pass 1  IDiag  1:
 E= -169.828561460908     Delta-E=       -0.000000738274 Rises=F Damp=F
 DIIS: error= 1.25D-05 at cycle   8 NSaved=   8.
 NSaved= 8 IEnMin= 8 EnMin= -169.828561460908     IErMin= 8 ErrMin= 1.25D-05
 ErrMax= 1.25D-05  0.00D+00 EMaxC= 1.00D-01 BMatC= 2.59D-08 BMatP= 4.25D-07
 IDIUse=1 WtCom= 1.00D+00 WtEn= 0.00D+00
 Coeff-Com:  0.648D-04 0.905D-03 0.157D-02-0.927D-02-0.288D-01-0.498D-01
 Coeff-Com:  0.708D-01 0.101D+01
 Coeff:      0.648D-04 0.905D-03 0.157D-02-0.927D-02-0.288D-01-0.498D-01
 Coeff:      0.708D-01 0.101D+01
 Gap=     0.415 Goal=   None    Shift=    0.000
 RMSDP=2.81D-06 MaxDP=8.13D-05 DE=-7.38D-07 OVMax= 1.60D-04

 Cycle   9  Pass 1  IDiag  1:
 E= -169.828561517869     Delta-E=       -0.000000056961 Rises=F Damp=F
 DIIS: error= 2.34D-06 at cycle   9 NSaved=   9.
 NSaved= 9 IEnMin= 9 EnMin= -169.828561517869     IErMin= 9 ErrMin= 2.34D-06
 ErrMax= 2.34D-06  0.00D+00 EMaxC= 1.00D-01 BMatC= 7.12D-10 BMatP= 2.59D-08
 IDIUse=1 WtCom= 1.00D+00 WtEn= 0.00D+00
 Coeff-Com:  0.547D-05 0.386D-04 0.376D-03 0.222D-02 0.204D-02-0.655D-02
 Coeff-Com: -0.376D-01-0.995D-01 0.114D+01
 Coeff:      0.547D-05 0.386D-04 0.376D-03 0.222D-02 0.204D-02-0.655D-02
 Coeff:     -0.376D-01-0.995D-01 0.114D+01
 Gap=     0.415 Goal=   None    Shift=    0.000
 RMSDP=8.27D-07 MaxDP=2.43D-05 DE=-5.70D-08 OVMax= 3.38D-05

 Cycle  10  Pass 1  IDiag  1:
 E= -169.828561520249     Delta-E=       -0.000000002380 Rises=F Damp=F
 DIIS: error= 4.10D-07 at cycle  10 NSaved=  10.
 NSaved=10 IEnMin=10 EnMin= -169.828561520249     IErMin=10 ErrMin= 4.10D-07
 ErrMax= 4.10D-07  0.00D+00 EMaxC= 1.00D-01 BMatC= 2.63D-11 BMatP= 7.12D-10
 IDIUse=1 WtCom= 1.00D+00 WtEn= 0.00D+00
 Coeff-Com: -0.135D-06-0.110D-04-0.588D-04-0.698D-04 0.556D-03 0.170D-02
 Coeff-Com:  0.328D-02-0.264D-01-0.958D-01 0.112D+01
 Coeff:     -0.135D-06-0.110D-04-0.588D-04-0.698D-04 0.556D-03 0.170D-02
 Coeff:      0.328D-02-0.264D-01-0.958D-01 0.112D+01
 Gap=     0.415 Goal=   None    Shift=    0.000
 RMSDP=2.31D-07 MaxDP=7.42D-06 DE=-2.38D-09 OVMax= 6.22D-06

 Cycle  11  Pass 1  IDiag  1:
 E= -169.828561520328     Delta-E=       -0.000000000079 Rises=F Damp=F
 DIIS: error= 1.20D-07 at cycle  11 NSaved=  11.
 NSaved=11 IEnMin=11 EnMin= -169.828561520328     IErMin=11 ErrMin= 1.20D-07
 ErrMax= 1.20D-07  0.00D+00 EMaxC= 1.00D-01 BMatC= 1.58D-12 BMatP= 2.63D-11
 IDIUse=1 WtCom= 1.00D+00 WtEn= 0.00D+00
 Coeff-Com: -0.354D-06-0.214D-05-0.165D-04-0.115D-03-0.282D-04 0.295D-03
 Coeff-Com:  0.221D-02 0.298D-02-0.509D-01-0.251D-02 0.105D+01
 Coeff:     -0.354D-06-0.214D-05-0.165D-04-0.115D-03-0.282D-04 0.295D-03
 Coeff:      0.221D-02 0.298D-02-0.509D-01-0.251D-02 0.105D+01
 Gap=     0.415 Goal=   None    Shift=    0.000
 RMSDP=4.86D-08 MaxDP=1.49D-06 DE=-7.92D-11 OVMax= 1.35D-06

 Cycle  12  Pass 1  IDiag  1:
 E= -169.828561520332     Delta-E=       -0.000000000003 Rises=F Damp=F
 DIIS: error= 2.18D-08 at cycle  12 NSaved=  12.
 NSaved=12 IEnMin=12 EnMin= -169.828561520332     IErMin=12 ErrMin= 2.18D-08
 ErrMax= 2.18D-08  0.00D+00 EMaxC= 1.00D-01 BMatC= 8.19D-14 BMatP= 1.58D-12
 IDIUse=1 WtCom= 1.00D+00 WtEn= 0.00D+00
 Coeff-Com:  0.264D-08 0.433D-07 0.341D-05 0.130D-04-0.191D-04-0.100D-03
 Coeff-Com: -0.301D-03 0.157D-03 0.999D-02-0.427D-01-0.132D+00 0.117D+01
 Coeff:      0.264D-08 0.433D-07 0.341D-05 0.130D-04-0.191D-04-0.100D-03
 Coeff:     -0.301D-03 0.157D-03 0.999D-02-0.427D-01-0.132D+00 0.117D+01
 Gap=     0.415 Goal=   None    Shift=    0.000
 RMSDP=9.37D-09 MaxDP=1.83D-07 DE=-3.38D-12 OVMax= 3.31D-07

 SCF Done:  E(RwB97XD) =  -169.828561520     A.U. after   12 cycles
            NFock= 12  Conv=0.94D-08     -V/T= 2.0042
 KE= 1.691188591862D+02 PE=-5.411419242495D+02 EE= 1.308786334975D+02
 Leave Link  502 at Sun Feb 27 06:35:59 2022, MaxMem=  8589934592 cpu:              45.1 elap:               6.0
 (Enter /home/rr/g16/l801.exe)
 DoSCS=F DFT=T ScalE2(SS,OS)=  1.000000  1.000000
 ExpMin= 4.85D-02 ExpMax= 2.70D+04 ExpMxC= 9.22D+02 IAcc=3 IRadAn=         5 AccDes= 0.00D+00
 HarFok:  IExCor=  205 AccDes= 0.00D+00 IRadAn=         5 IDoV=-2 UseB2=F ITyADJ=14
 ICtDFT= 12500011 ScaDFX=  1.000000  1.000000  1.000000  1.000000
 Largest valence mixing into a core orbital is  7.11D-05
 Largest core mixing into a valence orbital is  9.64D-06
 Range of M.O.s used for correlation:     4   141
 NBasis=   141 NAE=    12 NBE=    12 NFC=     3 NFV=     0
 NROrb=    138 NOA=     9 NOB=     9 NVA=   129 NVB=   129

 **** Warning!!: The largest alpha MO coefficient is  0.49456245D+02

 Leave Link  801 at Sun Feb 27 06:35:59 2022, MaxMem=  8589934592 cpu:               0.9 elap:               0.2
 (Enter /home/rr/g16/l914.exe)
 RHF ground state
 Keep R1, R2, and R3 ints in memory in symmetry-blocked form, NReq=2343373731.
 FoFCou: FMM=F IPFlag=           0 FMFlag=           0 FMFlg1=           0
         NFxFlg=           0 DoJE=F BraDBF=F KetDBF=F FulRan=T
         wScrn=  0.000000 ICntrl=       600 IOpCl=  0 I1Cent=           0 NGrid=           0
         NMat0=    1 NMatS0=  10011 NMatT0=    0 NMatD0=    1 NMtDS0=    0 NMtDT0=    0
 Petite list used in FoFCou.
 MDV=  8589934592 DFT=T DoStab=F Mixed=T DoRPA=T DoScal=F NonHer=T
 Making orbital integer symmetry assigments:
 Orbital symmetries:
       Occupied  (A') (A') (A') (A') (A') (A') (A') (A') (A") (A')
                 (A') (A")
       Virtual   (A") (A') (A') (A') (A") (A') (A') (A') (A') (A")
                 (A') (A") (A') (A') (A") (A') (A') (A") (A') (A')
                 (A') (A') (A") (A') (A") (A') (A') (A') (A') (A")
                 (A') (A') (A") (A") (A') (A') (A') (A") (A') (A')
                 (A") (A') (A') (A') (A') (A") (A') (A") (A') (A')
                 (A") (A') (A') (A') (A') (A') (A") (A') (A") (A")
                 (A') (A') (A") (A') (A') (A') (A") (A") (A') (A')
                 (A") (A') (A") (A') (A') (A') (A") (A') (A') (A')
                 (A') (A') (A') (A') (A") (A') (A') (A") (A") (A")
                 (A') (A") (A') (A") (A') (A') (A') (A') (A') (A')
                 (A") (A') (A') (A") (A') (A') (A") (A") (A') (A')
                 (A") (A') (A") (A") (A') (A') (A') (A") (A') (A')
                 (A") (A') (A") (A') (A') (A') (A') (A') (A')
  1161 initial guesses have been made.
 Convergence on wavefunction:    0.001000000000000
 Davidson Disk Diagonalization:  ConvIn= 1.00D-03 SkipCon=T Conv= 1.00D-03.
 Max sub-space:  6966 roots to seek:  2322 dimension of matrix:         2322
 *** WARNING: Number of orthogonal guesses is         1161
 Iteration     1 Dimension  1161 NMult     0 NNew   1161
 CISAX will form  1161 AO SS matrices at one time.
 NMat=  1161 NSing=  1161 JSym2X=-1.
 New state      1 was old state      3
 New state      2 was old state      1
 New state      3 was old state      2
 New state      8 was old state     10
 New state     10 was old state      8
 New state     12 was old state     19
 New state     14 was old state     12
 New state     16 was old state     14
 New state     18 was old state     16
 New state     19 was old state     20
 New state     20 was old state     18
 New state     21 was old state     29
 New state     23 was old state     21
 New state     24 was old state     25
 New state     25 was old state     26
 New state     26 was old state     23
 New state     27 was old state     28
 New state     28 was old state     27
 New state     29 was old state     24
 New state     31 was old state     33
 New state     32 was old state     34
 New state     33 was old state     31
 New state     34 was old state     37
 New state     35 was old state     36
 New state     36 was old state     52
 New state     37 was old state     38
 New state     38 was old state     35
 New state     39 was old state     32
 New state     40 was old state     43
 New state     41 was old state     40
 New state     42 was old state     46
 New state     43 was old state     39
 New state     46 was old state     41
 New state     47 was old state     48
 New state     48 was old state     42
 New state     49 was old state     51
 New state     50 was old state     47
 New state     51 was old state     49
 New state     52 was old state     54
 New state     54 was old state     55
 New state     55 was old state     60
 New state     56 was old state     50
 New state     58 was old state     61
 New state     59 was old state     56
 New state     60 was old state     62
 New state     61 was old state     63
 New state     62 was old state     58
 New state     63 was old state     59
 New state     64 was old state     65
 New state     65 was old state     67
 New state     66 was old state     70
 New state     67 was old state     66
 New state     68 was old state     75
 New state     70 was old state     64
 New state     71 was old state     68
 New state     72 was old state     71
 New state     74 was old state     82
 New state     75 was old state     74
 New state     76 was old state     79
 New state     77 was old state     78
 New state     78 was old state     81
 New state     79 was old state     76
 New state     80 was old state     77
 New state     81 was old state     72
 New state     82 was old state     85
 New state     84 was old state     90
 New state     85 was old state     84
 New state     86 was old state     80
 New state     87 was old state     93
 New state     88 was old state     92
 New state     89 was old state     87
 New state     90 was old state     89
 New state     91 was old state     94
 New state     92 was old state    101
 New state     93 was old state     88
 New state     94 was old state     96
 New state     95 was old state    100
 New state     96 was old state     91
 New state     97 was old state     99
 New state     98 was old state     97
 New state     99 was old state     98
 New state    100 was old state    106
 New state    101 was old state    103
 New state    102 was old state    109
 New state    103 was old state    104
 New state    104 was old state    102
 New state    105 was old state     95
 New state    106 was old state    112
 New state    107 was old state    105
 New state    108 was old state    119
 New state    109 was old state    107
 New state    110 was old state    121
 New state    111 was old state    110
 New state    112 was old state    111
 New state    113 was old state    115
 New state    114 was old state    113
 New state    115 was old state    117
 New state    116 was old state    114
 New state    117 was old state    118
 New state    118 was old state    108
 New state    119 was old state    147
 New state    120 was old state    129
 New state    121 was old state    116
 New state    122 was old state    132
 New state    123 was old state    120
 New state    125 was old state    123
 New state    126 was old state    130
 New state    127 was old state    122
 New state    128 was old state    125
 New state    129 was old state    127
 New state    130 was old state    142
 New state    131 was old state    134
 New state    132 was old state    128
 New state    133 was old state    135
 New state    134 was old state    140
 New state    135 was old state    139
 New state    136 was old state    133
 New state    137 was old state    131
 New state    138 was old state    141
 New state    139 was old state    138
 New state    140 was old state    126
 New state    141 was old state    143
 New state    142 was old state    136
 New state    143 was old state    145
 New state    144 was old state    137
 New state    145 was old state    144
 New state    146 was old state    154
 New state    147 was old state    152
 New state    148 was old state    150
 New state    149 was old state    148
 New state    150 was old state    159
 New state    151 was old state    146
 New state    152 was old state    162
 New state    153 was old state    151
 New state    154 was old state    157
 New state    155 was old state    149
 New state    156 was old state    153
 New state    157 was old state    161
 New state    159 was old state    160
 New state    160 was old state    165
 New state    161 was old state    155
 New state    162 was old state    164
 New state    163 was old state    171
 New state    164 was old state    156
 New state    165 was old state    168
 New state    166 was old state    172
 New state    167 was old state    163
 New state    168 was old state    170
 New state    169 was old state    173
 New state    170 was old state    167
 New state    171 was old state    166
 New state    172 was old state    178
 New state    173 was old state    177
 New state    174 was old state    182
 New state    175 was old state    176
 New state    176 was old state    169
 New state    177 was old state    179
 New state    178 was old state    187
 New state    179 was old state    185
 New state    180 was old state    183
 New state    181 was old state    190
 New state    182 was old state    195
 New state    183 was old state    174
 New state    184 was old state    193
 New state    185 was old state    184
 New state    186 was old state    175
 New state    187 was old state    186
 New state    188 was old state    180
 New state    189 was old state    181
 New state    190 was old state    197
 New state    191 was old state    188
 New state    192 was old state    189
 New state    193 was old state    199
 New state    195 was old state    191
 New state    197 was old state    205
 New state    198 was old state    202
 New state    199 was old state    192
 New state    201 was old state    198
 New state    202 was old state    211
 New state    203 was old state    210
 New state    204 was old state    207
 New state    205 was old state    201
 New state    206 was old state    209
 New state    207 was old state    208
 New state    208 was old state    203
 New state    209 was old state    206
 New state    210 was old state    204
 New state    211 was old state    217
 New state    212 was old state    215
 New state    214 was old state    222
 New state    215 was old state    225
 New state    216 was old state    214
 New state    217 was old state    219
 New state    218 was old state    224
 New state    219 was old state    212
 New state    220 was old state    218
 New state    221 was old state    223
 New state    222 was old state    226
 New state    223 was old state    216
 New state    224 was old state    221
 New state    225 was old state    228
 New state    226 was old state    227
 New state    227 was old state    234
 New state    228 was old state    239
 New state    229 was old state    233
 New state    230 was old state    220
 New state    231 was old state    249
 New state    233 was old state    231
 New state    234 was old state    243
 New state    235 was old state    230
 New state    236 was old state    229
 New state    237 was old state    242
 New state    238 was old state    241
 New state    239 was old state    235
 New state    240 was old state    238
 New state    241 was old state    244
 New state    242 was old state    237
 New state    243 was old state    240
 New state    244 was old state    245
 New state    245 was old state    246
 New state    246 was old state    251
 New state    247 was old state    255
 New state    248 was old state    236
 New state    249 was old state    250
 New state    250 was old state    257
 New state    251 was old state    247
 New state    252 was old state    258
 New state    253 was old state    248
 New state    254 was old state    252
 New state    255 was old state    260
 New state    256 was old state    254
 New state    257 was old state    261
 New state    258 was old state    259
 New state    259 was old state    256
 New state    260 was old state    264
 New state    261 was old state    266
 New state    262 was old state    253
 New state    263 was old state    267
 New state    264 was old state    262
 New state    265 was old state    273
 New state    266 was old state    265
 New state    267 was old state    270
 New state    270 was old state    280
 New state    271 was old state    272
 New state    272 was old state    263
 New state    273 was old state    277
 New state    274 was old state    278
 New state    275 was old state    271
 New state    276 was old state    274
 New state    277 was old state    275
 New state    278 was old state    276
 New state    279 was old state    282
 New state    280 was old state    279
 New state    281 was old state    287
 New state    282 was old state    290
 New state    283 was old state    286
 New state    284 was old state    281
 New state    285 was old state    291
 New state    286 was old state    289
 New state    287 was old state    284
 New state    289 was old state    285
 New state    290 was old state    283
 New state    291 was old state    301
 New state    292 was old state    296
 New state    293 was old state    309
 New state    294 was old state    300
 New state    295 was old state    306
 New state    296 was old state    295
 New state    297 was old state    292
 New state    298 was old state    302
 New state    299 was old state    297
 New state    300 was old state    293
 New state    301 was old state    294
 New state    302 was old state    312
 New state    303 was old state    298
 New state    304 was old state    299
 New state    305 was old state    304
 New state    306 was old state    317
 New state    307 was old state    316
 New state    308 was old state    331
 New state    309 was old state    307
 New state    311 was old state    305
 New state    312 was old state    328
 New state    313 was old state    308
 New state    314 was old state    326
 New state    315 was old state    313
 New state    316 was old state    333
 New state    317 was old state    319
 New state    318 was old state    321
 New state    319 was old state    303
 New state    320 was old state    322
 New state    321 was old state    325
 New state    322 was old state    323
 New state    323 was old state    315
 New state    324 was old state    327
 New state    325 was old state    320
 New state    326 was old state    336
 New state    327 was old state    314
 New state    328 was old state    318
 New state    329 was old state    330
 New state    330 was old state    324
 New state    331 was old state    332
 New state    332 was old state    339
 New state    333 was old state    337
 New state    334 was old state    329
 New state    335 was old state    345
 New state    336 was old state    335
 New state    337 was old state    338
 New state    338 was old state    342
 New state    339 was old state    350
 New state    340 was old state    346
 New state    341 was old state    351
 New state    342 was old state    344
 New state    343 was old state    334
 New state    344 was old state    341
 New state    345 was old state    343
 New state    346 was old state    355
 New state    347 was old state    354
 New state    349 was old state    340
 New state    350 was old state    370
 New state    351 was old state    349
 New state    352 was old state    357
 New state    353 was old state    352
 New state    354 was old state    347
 New state    355 was old state    353
 New state    357 was old state    364
 New state    358 was old state    360
 New state    359 was old state    362
 New state    360 was old state    361
 New state    361 was old state    369
 New state    362 was old state    367
 New state    363 was old state    371
 New state    364 was old state    365
 New state    365 was old state    368
 New state    366 was old state    375
 New state    367 was old state    358
 New state    368 was old state    363
 New state    369 was old state    366
 New state    370 was old state    374
 New state    371 was old state    381
 New state    372 was old state    377
 New state    373 was old state    359
 New state    374 was old state    373
 New state    375 was old state    372
 New state    376 was old state    380
 New state    377 was old state    382
 New state    379 was old state    386
 New state    380 was old state    387
 New state    381 was old state    376
 New state    382 was old state    379
 New state    383 was old state    388
 New state    384 was old state    390
 New state    385 was old state    383
 New state    386 was old state    392
 New state    387 was old state    397
 New state    388 was old state    391
 New state    389 was old state    384
 New state    390 was old state    385
 New state    391 was old state    394
 New state    392 was old state    398
 New state    393 was old state    395
 New state    394 was old state    403
 New state    395 was old state    396
 New state    396 was old state    393
 New state    397 was old state    406
 New state    398 was old state    389
 New state    399 was old state    400
 New state    400 was old state    402
 New state    401 was old state    409
 New state    402 was old state    412
 New state    403 was old state    408
 New state    404 was old state    405
 New state    405 was old state    404
 New state    406 was old state    401
 New state    407 was old state    411
 New state    408 was old state    399
 New state    409 was old state    416
 New state    411 was old state    415
 New state    412 was old state    413
 New state    413 was old state    417
 New state    414 was old state    418
 New state    415 was old state    407
 New state    416 was old state    423
 New state    417 was old state    414
 New state    418 was old state    421
 New state    419 was old state    420
 New state    420 was old state    422
 New state    421 was old state    424
 New state    422 was old state    426
 New state    423 was old state    427
 New state    424 was old state    419
 New state    425 was old state    431
 New state    426 was old state    428
 New state    427 was old state    433
 New state    428 was old state    437
 New state    429 was old state    425
 New state    430 was old state    436
 New state    431 was old state    430
 New state    432 was old state    429
 New state    433 was old state    451
 New state    434 was old state    435
 New state    435 was old state    438
 New state    436 was old state    434
 New state    437 was old state    439
 New state    438 was old state    432
 New state    439 was old state    442
 New state    440 was old state    449
 New state    441 was old state    447
 New state    442 was old state    445
 New state    443 was old state    446
 New state    444 was old state    441
 New state    445 was old state    443
 New state    446 was old state    440
 New state    447 was old state    454
 New state    448 was old state    455
 New state    449 was old state    450
 New state    450 was old state    452
 New state    451 was old state    448
 New state    452 was old state    444
 New state    454 was old state    456
 New state    455 was old state    457
 New state    456 was old state    463
 New state    457 was old state    458
 New state    458 was old state    459
 New state    459 was old state    460
 No map to state    460
 New state    461 was old state    468
 New state    462 was old state    465
 New state    463 was old state    461
 New state    465 was old state    467
 New state    467 was old state    462
 New state    468 was old state    472
 New state    469 was old state    471
 New state    471 was old state    469
 New state    472 was old state    473
 New state    473 was old state    476
 New state    474 was old state    477
 New state    475 was old state    479
 New state    476 was old state    474
 New state    477 was old state    475
 New state    478 was old state    482
 New state    479 was old state    481
 New state    481 was old state    478
 No map to state    482
 New state    486 was old state    488
 New state    488 was old state    486
 New state    489 was old state    496
 New state    492 was old state    489
 New state    495 was old state    497
 New state    496 was old state    495
 New state    497 was old state    501
 New state    498 was old state    492
 New state    499 was old state    504
 New state    500 was old state    503
 New state    501 was old state    502
 New state    502 was old state    505
 New state    503 was old state    500
 New state    504 was old state    498
 New state    505 was old state    508
 New state    507 was old state    499
 New state    508 was old state    507
 New state    510 was old state    511
 New state    511 was old state    513
 New state    513 was old state    515
 New state    514 was old state    510
 New state    515 was old state    514
 New state    517 was old state    518
 New state    518 was old state    520
 New state    519 was old state    522
 New state    520 was old state    519
 New state    522 was old state    517
 New state    523 was old state    524
 New state    524 was old state    523
 New state    526 was old state    529
 New state    527 was old state    526
 New state    528 was old state    530
 New state    529 was old state    531
 New state    530 was old state    527
 New state    531 was old state    528
 New state    532 was old state    535
 New state    534 was old state    536
 New state    535 was old state    534
 New state    536 was old state    532
 New state    538 was old state    540
 New state    540 was old state    543
 New state    541 was old state    542
 New state    542 was old state    544
 New state    543 was old state    541
 New state    544 was old state    538
 New state    545 was old state    549
 New state    548 was old state    551
 New state    549 was old state    548
 New state    550 was old state    545
 New state    551 was old state    554
 New state    552 was old state    550
 New state    553 was old state    555
 New state    554 was old state    552
 New state    555 was old state    557
 New state    557 was old state    553
 New state    559 was old state    560
 New state    560 was old state    559
 New state    563 was old state    564
 New state    564 was old state    565
 New state    565 was old state    563
 New state    567 was old state    568
 New state    568 was old state    570
 New state    569 was old state    575
 New state    570 was old state    571
 New state    571 was old state    567
 New state    572 was old state    569
 New state    573 was old state    574
 New state    574 was old state    578
 New state    575 was old state    576
 New state    576 was old state    581
 New state    577 was old state    573
 New state    578 was old state    572
 New state    579 was old state    577
 New state    580 was old state    579
 New state    581 was old state    582
 New state    582 was old state    584
 New state    584 was old state    580
 New state    587 was old state    589
 New state    588 was old state    590
 New state    589 was old state    588
 New state    590 was old state    587
 New state    593 was old state    594
 New state    594 was old state    593
 New state    598 was old state    600
 New state    599 was old state    604
 New state    600 was old state    603
 New state    601 was old state    598
 New state    602 was old state    599
 New state    603 was old state    602
 New state    604 was old state    601
 New state    608 was old state    609
 New state    609 was old state    608
 New state    611 was old state    612
 New state    612 was old state    611
 New state    614 was old state    615
 New state    615 was old state    618
 New state    617 was old state    614
 New state    618 was old state    617
 New state    619 was old state    620
 New state    620 was old state    623
 New state    621 was old state    619
 New state    622 was old state    621
 New state    623 was old state    624
 New state    624 was old state    622
 New state    625 was old state    626
 New state    626 was old state    627
 New state    627 was old state    625
 New state    633 was old state    640
 New state    634 was old state    633
 New state    637 was old state    634
 New state    638 was old state    637
 New state    639 was old state    638
 New state    640 was old state    639
 New state    641 was old state    642
 New state    642 was old state    643
 New state    643 was old state    641
 New state    644 was old state    645
 New state    645 was old state    646
 New state    646 was old state    644
 New state    647 was old state    648
 New state    648 was old state    650
 New state    650 was old state    647
 New state    653 was old state    654
 New state    654 was old state    653
 New state    655 was old state    656
 New state    656 was old state    658
 New state    658 was old state    663
 New state    659 was old state    660
 New state    660 was old state    664
 New state    661 was old state    659
 New state    662 was old state    655
 New state    663 was old state    661
 New state    664 was old state    662
 New state    666 was old state    667
 New state    667 was old state    666
 New state    671 was old state    672
 New state    672 was old state    671
 New state    674 was old state    676
 New state    675 was old state    674
 New state    676 was old state    675
 New state    680 was old state    682
 New state    682 was old state    683
 New state    683 was old state    686
 New state    684 was old state    680
 New state    685 was old state    684
 New state    686 was old state    687
 New state    687 was old state    688
 New state    688 was old state    691
 New state    691 was old state    685
 New state    693 was old state    694
 New state    694 was old state    695
 New state    695 was old state    699
 New state    696 was old state    700
 New state    697 was old state    696
 New state    699 was old state    693
 New state    700 was old state    697
 New state    707 was old state    709
 New state    708 was old state    710
 New state    709 was old state    707
 New state    710 was old state    708
 New state    711 was old state    713
 New state    712 was old state    715
 New state    713 was old state    711
 New state    715 was old state    717
 New state    716 was old state    712
 New state    717 was old state    718
 New state    718 was old state    723
 New state    719 was old state    716
 New state    720 was old state    719
 New state    722 was old state    720
 New state    723 was old state    724
 New state    724 was old state    726
 New state    725 was old state    722
 New state    726 was old state    727
 New state    727 was old state    728
 New state    728 was old state    729
 New state    729 was old state    725
 New state    730 was old state    734
 New state    731 was old state    732
 New state    732 was old state    731
 New state    733 was old state    730
 New state    734 was old state    733
 New state    735 was old state    739
 New state    736 was old state    737
 New state    737 was old state    735
 New state    739 was old state    740
 New state    740 was old state    736
 New state    742 was old state    743
 New state    743 was old state    745
 New state    744 was old state    742
 New state    745 was old state    747
 New state    746 was old state    751
 New state    747 was old state    746
 New state    748 was old state    750
 New state    749 was old state    748
 New state    750 was old state    744
 New state    751 was old state    749
 New state    754 was old state    755
 New state    755 was old state    754
 New state    756 was old state    758
 New state    757 was old state    759
 New state    758 was old state    756
 New state    759 was old state    763
 New state    760 was old state    757
 New state    763 was old state    760
 New state    764 was old state    765
 New state    765 was old state    764
 New state    766 was old state    771
 New state    768 was old state    766
 New state    769 was old state    768
 New state    771 was old state    776
 New state    772 was old state    769
 New state    773 was old state    777
 New state    774 was old state    772
 New state    775 was old state    773
 New state    776 was old state    774
 New state    777 was old state    775
 New state    778 was old state    783
 New state    780 was old state    782
 New state    781 was old state    778
 New state    782 was old state    780
 New state    783 was old state    781
 New state    784 was old state    789
 New state    785 was old state    786
 New state    786 was old state    785
 New state    787 was old state    784
 New state    788 was old state    790
 New state    789 was old state    792
 New state    790 was old state    787
 New state    791 was old state    793
 New state    792 was old state    788
 New state    793 was old state    795
 New state    794 was old state    791
 New state    795 was old state    798
 New state    796 was old state    794
 New state    798 was old state    799
 New state    799 was old state    796
 New state    801 was old state    802
 New state    802 was old state    801
 New state    803 was old state    804
 New state    804 was old state    803
 New state    809 was old state    810
 New state    810 was old state    809
 New state    812 was old state    814
 New state    813 was old state    812
 New state    814 was old state    813
 New state    815 was old state    817
 New state    817 was old state    818
 New state    818 was old state    815
 New state    822 was old state    823
 New state    823 was old state    822
 New state    824 was old state    825
 New state    825 was old state    826
 New state    826 was old state    824
 New state    828 was old state    829
 New state    829 was old state    828
 New state    832 was old state    833
 New state    833 was old state    832
 New state    836 was old state    837
 New state    837 was old state    836
 New state    839 was old state    844
 New state    843 was old state    839
 New state    844 was old state    843
 New state    849 was old state    850
 New state    850 was old state    849
 New state    852 was old state    853
 New state    853 was old state    852
 New state    854 was old state    856
 New state    856 was old state    857
 New state    857 was old state    854
 New state    861 was old state    862
 New state    862 was old state    861
 New state    863 was old state    864
 New state    864 was old state    863
 New state    865 was old state    867
 New state    866 was old state    865
 New state    867 was old state    866
 New state    868 was old state    869
 New state    869 was old state    870
 New state    870 was old state    871
 New state    871 was old state    872
 New state    872 was old state    868
 New state    873 was old state    874
 New state    874 was old state    873
 New state    875 was old state    879
 New state    876 was old state    878
 New state    877 was old state    876
 New state    878 was old state    877
 New state    879 was old state    875
 New state    882 was old state    883
 New state    883 was old state    885
 New state    884 was old state    882
 New state    885 was old state    884
 New state    886 was old state    887
 New state    887 was old state    888
 New state    888 was old state    893
 New state    889 was old state    890
 New state    890 was old state    889
 New state    891 was old state    886
 New state    892 was old state    891
 New state    893 was old state    894
 New state    894 was old state    892
 New state    899 was old state    900
 New state    900 was old state    902
 New state    902 was old state    899
 New state    904 was old state    905
 New state    905 was old state    904
 New state    908 was old state    911
 New state    909 was old state    908
 New state    910 was old state    912
 New state    911 was old state    910
 New state    912 was old state    909
 New state    913 was old state    914
 New state    914 was old state    916
 New state    915 was old state    913
 New state    916 was old state    915
 New state    925 was old state    926
 New state    926 was old state    928
 New state    927 was old state    925
 New state    928 was old state    927
 New state    930 was old state    931
 New state    931 was old state    930
 New state    932 was old state    933
 New state    933 was old state    934
 New state    934 was old state    932
 New state    935 was old state    937
 New state    936 was old state    935
 New state    937 was old state    938
 New state    938 was old state    940
 New state    939 was old state    936
 New state    940 was old state    939
 New state    941 was old state    942
 New state    942 was old state    941
 New state    943 was old state    945
 New state    944 was old state    943
 New state    945 was old state    947
 New state    946 was old state    948
 New state    947 was old state    944
 New state    948 was old state    946
 New state    950 was old state    951
 New state    951 was old state    950
 New state    954 was old state    956
 New state    955 was old state    954
 New state    956 was old state    958
 New state    957 was old state    955
 New state    958 was old state    957
 New state    959 was old state    960
 New state    960 was old state    961
 New state    961 was old state    959
 New state    965 was old state    967
 New state    966 was old state    965
 New state    967 was old state    968
 New state    968 was old state    969
 New state    969 was old state    966
 New state    971 was old state    972
 New state    972 was old state    974
 New state    973 was old state    971
 New state    974 was old state    975
 New state    975 was old state    976
 New state    976 was old state    973
 New state    977 was old state    978
 New state    978 was old state    977
 New state    981 was old state    983
 New state    982 was old state    981
 New state    983 was old state    982
 New state    984 was old state    986
 New state    986 was old state    984
 New state    987 was old state    988
 New state    988 was old state    987
 New state    989 was old state    990
 New state    990 was old state    991
 New state    991 was old state    989
 New state    993 was old state    995
 New state    994 was old state    993
 New state    995 was old state    994
 New state    996 was old state    997
 New state    997 was old state    996
 New state    998 was old state   1002
 New state   1000 was old state   1001
 New state   1001 was old state    998
 New state   1002 was old state   1003
 New state   1003 was old state   1000
 New state   1004 was old state   1005
 New state   1005 was old state   1004
 New state   1007 was old state   1009
 New state   1008 was old state   1010
 New state   1009 was old state   1007
 New state   1010 was old state   1008
 New state   1011 was old state   1016
 New state   1013 was old state   1011
 New state   1014 was old state   1013
 New state   1015 was old state   1014
 New state   1016 was old state   1015
 New state   1020 was old state   1023
 New state   1021 was old state   1022
 New state   1022 was old state   1020
 New state   1023 was old state   1024
 New state   1024 was old state   1021
 New state   1026 was old state   1027
 New state   1027 was old state   1026
 New state   1029 was old state   1030
 New state   1030 was old state   1033
 New state   1032 was old state   1035
 New state   1033 was old state   1029
 New state   1035 was old state   1032
 New state   1036 was old state   1037
 New state   1037 was old state   1036
 New state   1039 was old state   1040
 New state   1040 was old state   1039
 New state   1046 was old state   1047
 New state   1047 was old state   1048
 New state   1048 was old state   1046
 New state   1051 was old state   1052
 New state   1052 was old state   1051
 New state   1056 was old state   1057
 New state   1057 was old state   1056
 New state   1060 was old state   1061
 New state   1061 was old state   1060
 New state   1063 was old state   1064
 New state   1064 was old state   1065
 New state   1065 was old state   1063
 New state   1069 was old state   1070
 New state   1070 was old state   1069
 New state   1072 was old state   1074
 New state   1074 was old state   1072
 New state   1077 was old state   1080
 New state   1079 was old state   1081
 New state   1080 was old state   1082
 New state   1081 was old state   1077
 New state   1082 was old state   1083
 New state   1083 was old state   1079
 New state   1085 was old state   1087
 New state   1086 was old state   1085
 New state   1087 was old state   1086
 New state   1088 was old state   1089
 New state   1089 was old state   1088
 New state   1090 was old state   1092
 New state   1092 was old state   1096
 New state   1093 was old state   1090
 New state   1094 was old state   1093
 New state   1095 was old state   1094
 New state   1096 was old state   1095
 New state   1100 was old state   1103
 New state   1101 was old state   1100
 New state   1103 was old state   1101
 New state   1105 was old state   1107
 New state   1107 was old state   1105
 New state   1115 was old state   1116
 New state   1116 was old state   1115
 New state   1118 was old state   1120
 New state   1119 was old state   1118
 New state   1120 was old state   1119
 New state   1121 was old state   1122
 New state   1122 was old state   1123
 New state   1123 was old state   1121
 New state   1126 was old state   1127
 New state   1127 was old state   1126
 New state   1144 was old state   1145
 New state   1145 was old state   1144
 New state   1146 was old state   1147
 New state   1147 was old state   1148
 New state   1148 was old state   1146
 Excitation Energies [eV] at current iteration:
 Root      1 :     5.939299731413803
 Root      2 :     6.900016591836000
 Root      3 :     7.197870328955482
 Root      4 :     7.673753801924456
 Root      5 :     7.988632875209925
 Root      6 :     8.548490298996827
 Root      7 :     8.781168843385796
 Root      8 :     8.887767098986348
 Root      9 :     9.138262904409284
 Root     10 :     9.239562627338916
 Root     11 :     9.560283575660863
 Root     12 :     9.604609624198416
 Root     13 :     9.684939489223803
 Root     14 :     9.749700353085336
 Root     15 :     9.968741455150823
 Root     16 :    10.212858496847790
 Root     17 :    10.473261851813990
 Root     18 :    10.506974841283040
 Root     19 :    10.694157153668580
 Root     20 :    11.078018485117810
 Root     21 :    11.113963322610960
 Root     22 :    11.319422046071260
 Root     23 :    11.631077760601920
 Root     24 :    11.757063856641960
 Root     25 :    11.782139342202370
 Root     26 :    11.999276357215100
 Root     27 :    12.066791404165180
 Root     28 :    12.208810846251180
 Root     29 :    12.257125235530520
 Root     30 :    12.359431459278260
 Root     31 :    12.429424600210000
 Root     32 :    12.495513573553710
 Root     33 :    12.606021624983890
 Root     34 :    12.723541790961270
 Root     35 :    12.870113584203240
 Root     36 :    12.921643185095820
 Root     37 :    12.970027476249100
 Root     38 :    13.009151911713230
 Root     39 :    13.162677774745780
 Root     40 :    13.217668722086920
 Root     41 :    13.246501288410030
 Root     42 :    13.428979583114930
 Root     43 :    13.491044686181320
 Root     44 :    13.554977373801260
 Root     45 :    13.629131946359210
 Root     46 :    13.736830373488800
 Root     47 :    13.933686157269150
 Root     48 :    13.993503599513860
 Root     49 :    14.036721940403690
 Root     50 :    14.124924193146260
 Root     51 :    14.177571493936170
 Root     52 :    14.205273515027630
 Root     53 :    14.249596979017280
 Root     54 :    14.318962888911390
 Root     55 :    14.450230090159010
 Root     56 :    14.505926903962190
 Root     57 :    14.617847450554050
 Root     58 :    14.726973739856010
 Root     59 :    14.760936685927070
 Root     60 :    14.797798943881800
 Root     61 :    14.906828737895190
 Root     62 :    14.922289322997600
 Root     63 :    15.003333022825080
 Root     64 :    15.129136126194270
 Root     65 :    15.307949363970700
 Root     66 :    15.354801944525720
 Root     67 :    15.404256566940580
 Root     68 :    15.490469725144680
 Root     69 :    15.503484891057540
 Root     70 :    15.519429674313930
 Root     71 :    15.623946542717010
 Root     72 :    15.673320276289860
 Root     73 :    15.880193312310890
 Root     74 :    15.937217037879750
 Root     75 :    15.957472655534510
 Root     76 :    15.992119631342410
 Root     77 :    16.009951998796030
 Root     78 :    16.018562488279010
 Root     79 :    16.145760665141360
 Root     80 :    16.200008716246100
 Root     81 :    16.297967015687790
 Root     82 :    16.378770753355460
 Root     83 :    16.476991923998450
 Root     84 :    16.587155227825780
 Root     85 :    16.633672146952730
 Root     86 :    16.660730309886860
 Root     87 :    16.710152300140850
 Root     88 :    16.809796053773990
 Root     89 :    16.822935542626480
 Root     90 :    16.863354572093610
 Root     91 :    16.910488886326850
 Root     92 :    17.077645987084670
 Root     93 :    17.191661936722800
 Root     94 :    17.258553380536500
 Root     95 :    17.328141067672930
 Root     96 :    17.376838598334710
 Root     97 :    17.379542534919750
 Root     98 :    17.406544320412630
 Root     99 :    17.541834986375620
 Root    100 :    17.569072692963560
 Root    101 :    17.630120847534040
 Root    102 :    17.679897008040620
 Root    103 :    17.782187308304860
 Root    104 :    17.787843423720610
 Root    105 :    17.793768935165320
 Root    106 :    17.881594955810680
 Root    107 :    17.889120411389970
 Root    108 :    17.968887940326970
 Root    109 :    18.047407674515350
 Root    110 :    18.098692135957830
 Root    111 :    18.150450447387020
 Root    112 :    18.264817570207820
 Root    113 :    18.372250692731510
 Root    114 :    18.408435651983730
 Root    115 :    18.427694500695970
 Root    116 :    18.477843256591240
 Root    117 :    18.568764708583040
 Root    118 :    18.622208480450080
 Root    119 :    18.651603378616820
 Root    120 :    18.880383621894710
 Root    121 :    18.936314339130130
 Root    122 :    18.992572255160490
 Root    123 :    19.059498767585900
 Root    124 :    19.082615423053550
 Root    125 :    19.168426812550680
 Root    126 :    19.198698839073280
 Root    127 :    19.215890789095750
 Root    128 :    19.333929647273330
 Root    129 :    19.339630018416320
 Root    130 :    19.357454709609390
 Root    131 :    19.417170895071870
 Root    132 :    19.486433607971710
 Root    133 :    19.574039256661490
 Root    134 :    19.588398778595010
 Root    135 :    19.603629403176510
 Root    136 :    19.611920623928370
 Root    137 :    19.670243863480320
 Root    138 :    19.707557703919870
 Root    139 :    19.755690581735270
 Root    140 :    19.784562527970280
 Root    141 :    19.800388275838360
 Root    142 :    19.857486599740420
 Root    143 :    20.015193349217840
 Root    144 :    20.082125377554550
 Root    145 :    20.109372422607410
 Root    146 :    20.258559600731100
 Root    147 :    20.334918978419370
 Root    148 :    20.382509683994770
 Root    149 :    20.409689496842520
 Root    150 :    20.510533010410110
 Root    151 :    20.561708404524230
 Root    152 :    20.628042170821650
 Root    153 :    20.640322392135720
 Root    154 :    20.756376192469070
 Root    155 :    20.870759288275160
 Root    156 :    20.893429265470050
 Root    157 :    20.995954023831230
 Root    158 :    21.011945020747170
 Root    159 :    21.039243628959630
 Root    160 :    21.041621291440920
 Root    161 :    21.097324489708610
 Root    162 :    21.219347427118720
 Root    163 :    21.282631689855770
 Root    164 :    21.295220255742600
 Root    165 :    21.302704095500240
 Root    166 :    21.352651753645880
 Root    167 :    21.399555117661040
 Root    168 :    21.509090969432440
 Root    169 :    21.572827940402990
 Root    170 :    21.651801145895070
 Root    171 :    21.786395868383090
 Root    172 :    21.873070591079430
 Root    173 :    21.879259161174370
 Root    174 :    21.911774691116870
 Root    175 :    21.972674246132740
 Root    176 :    22.003492733773670
 Root    177 :    22.091790806918550
 Root    178 :    22.118240912121120
 Root    179 :    22.173674928352390
 Root    180 :    22.317151297929640
 Root    181 :    22.344118544208290
 Root    182 :    22.347302215585080
 Root    183 :    22.380822358308430
 Root    184 :    22.445346269615970
 Root    185 :    22.499222544271450
 Root    186 :    22.545435735917900
 Root    187 :    22.588316317853830
 Root    188 :    22.657902775444180
 Root    189 :    22.674026649731060
 Root    190 :    22.771604385659160
 Root    191 :    22.864696595099690
 Root    192 :    22.933741985887000
 Root    193 :    22.935315127175280
 Root    194 :    23.003278746804640
 Root    195 :    23.056197920016930
 Root    196 :    23.105048503315270
 Root    197 :    23.208526315162160
 Root    198 :    23.289474046720630
 Root    199 :    23.373879451868600
 Root    200 :    23.434518592975540
 Root    201 :    23.565399049673200
 Root    202 :    23.572640585771950
 Root    203 :    23.666215483282520
 Root    204 :    23.673177778477340
 Root    205 :    23.784946862296960
 Root    206 :    23.855069144286960
 Root    207 :    23.896126554118970
 Root    208 :    23.926922619613280
 Root    209 :    23.990135064470770
 Root    210 :    24.039153242053080
 Root    211 :    24.199008056041030
 Root    212 :    24.254076871263620
 Root    213 :    24.407992630789760
 Root    214 :    24.471073832312220
 Root    215 :    24.488189550720450
 Root    216 :    24.545948767522360
 Root    217 :    24.639031702650950
 Root    218 :    24.683520388787300
 Root    219 :    24.761595150726220
 Root    220 :    24.870732125047750
 Root    221 :    24.905543819168500
 Root    222 :    24.913172548999840
 Root    223 :    24.982723001978610
 Root    224 :    25.084765183404470
 Root    225 :    25.168867259999230
 Root    226 :    25.283420854458330
 Root    227 :    25.322386687608430
 Root    228 :    25.344873868944070
 Root    229 :    25.411719607644750
 Root    230 :    25.497209881520590
 Root    231 :    25.498021267791550
 Root    232 :    25.533278404135050
 Root    233 :    25.587217952633610
 Root    234 :    25.666213443748240
 Root    235 :    25.691794704019500
 Root    236 :    25.795416929623110
 Root    237 :    25.854918852271610
 Root    238 :    25.956040304682520
 Root    239 :    25.958009140206770
 Root    240 :    26.001279788234680
 Root    241 :    26.038357360257740
 Root    242 :    26.053745455753000
 Root    243 :    26.110139423221200
 Root    244 :    26.168215381888710
 Root    245 :    26.252335169295690
 Root    246 :    26.400565359065480
 Root    247 :    26.427281268026880
 Root    248 :    26.487936931845980
 Root    249 :    26.557201302210170
 Root    250 :    26.605528037549080
 Root    251 :    26.610587389959990
 Root    252 :    26.675330883424830
 Root    253 :    26.712970522024270
 Root    254 :    26.736682327663330
 Root    255 :    26.792533262937470
 Root    256 :    26.924277352447300
 Root    257 :    26.981447768930000
 Root    258 :    27.040200121999430
 Root    259 :    27.062035405169780
 Root    260 :    27.139396816500600
 Root    261 :    27.211404731695220
 Root    262 :    27.240461283922340
 Root    263 :    27.334080270558390
 Root    264 :    27.363047348632770
 Root    265 :    27.382256846024290
 Root    266 :    27.453966966132210
 Root    267 :    27.622514521264560
 Root    268 :    27.679712362710020
 Root    269 :    27.763699571145340
 Root    270 :    27.817715932677630
 Root    271 :    27.882153671254180
 Root    272 :    27.950621401876840
 Root    273 :    28.005891762753830
 Root    274 :    28.156801293599380
 Root    275 :    28.241367083306520
 Root    276 :    28.299158424608570
 Root    277 :    28.468923939996000
 Root    278 :    28.605274809211180
 Root    279 :    28.625250410475080
 Root    280 :    28.677700033571940
 Root    281 :    28.682401714329790
 Root    282 :    28.728969757985300
 Root    283 :    28.789170794100140
 Root    284 :    28.870011131783170
 Root    285 :    28.985192310508490
 Root    286 :    29.037253040971090
 Root    287 :    29.147276719898270
 Root    288 :    29.169314253351150
 Root    289 :    29.286321034184820
 Root    290 :    29.352533846206530
 Root    291 :    29.381767115544800
 Root    292 :    29.608899043240410
 Root    293 :    29.726713444287240
 Root    294 :    29.755406736564590
 Root    295 :    29.835891886783880
 Root    296 :    29.853357800863350
 Root    297 :    29.940794838989140
 Root    298 :    30.014156829633210
 Root    299 :    30.099527109414580
 Root    300 :    30.152892771198770
 Root    301 :    30.220767092079090
 Root    302 :    30.278156112489580
 Root    303 :    30.296003935129100
 Root    304 :    30.380585040199670
 Root    305 :    30.405946390934570
 Root    306 :    30.498845329238400
 Root    307 :    30.524857707145050
 Root    308 :    30.625086953181800
 Root    309 :    30.649215944083050
 Root    310 :    30.762849475402140
 Root    311 :    30.817620156566060
 Root    312 :    30.833521173740680
 Root    313 :    30.863740924112910
 Root    314 :    30.991805151370750
 Root    315 :    31.103941958231010
 Root    316 :    31.105545670763550
 Root    317 :    31.139645485920540
 Root    318 :    31.241640318538730
 Root    319 :    31.299802962121600
 Root    320 :    31.324018503738100
 Root    321 :    31.349898326643580
 Root    322 :    31.423139580491930
 Root    323 :    31.533543795955390
 Root    324 :    31.556348950472160
 Root    325 :    31.605113461473570
 Root    326 :    31.632646301431250
 Root    327 :    31.710995513661710
 Root    328 :    31.743303775655670
 Root    329 :    31.877797684861740
 Root    330 :    31.936774603125040
 Root    331 :    31.952425379572440
 Root    332 :    32.082643024671060
 Root    333 :    32.196875936817290
 Root    334 :    32.231180402309580
 Root    335 :    32.325829722735300
 Root    336 :    32.345120355957010
 Root    337 :    32.411378994528480
 Root    338 :    32.457303138122710
 Root    339 :    32.556389774713660
 Root    340 :    32.774844390047580
 Root    341 :    32.815188312517780
 Root    342 :    32.861642709235020
 Root    343 :    32.880010536951800
 Root    344 :    32.964789089541160
 Root    345 :    32.983681015766500
 Root    346 :    33.033427649502770
 Root    347 :    33.145132325295340
 Root    348 :    33.231477274297000
 Root    349 :    33.238755480259660
 Root    350 :    33.308334895088960
 Root    351 :    33.318835034776190
 Root    352 :    33.553771085110250
 Root    353 :    33.675786435119900
 Root    354 :    33.677935555570980
 Root    355 :    33.693986873406150
 Root    356 :    33.952942007565590
 Root    357 :    34.082567879103370
 Root    358 :    34.131301771983340
 Root    359 :    34.260281677519820
 Root    360 :    34.262140672886590
 Root    361 :    34.341029312581060
 Root    362 :    34.435175882322650
 Root    363 :    34.464298539421190
 Root    364 :    34.650973507787240
 Root    365 :    34.651194107534390
 Root    366 :    34.759289147903490
 Root    367 :    34.810892782037370
 Root    368 :    34.873211113603530
 Root    369 :    34.877655521601770
 Root    370 :    35.031161350114920
 Root    371 :    35.117599179339630
 Root    372 :    35.170702803213290
 Root    373 :    35.235093750518740
 Root    374 :    35.252429518484020
 Root    375 :    35.406593118433470
 Root    376 :    35.474766792716760
 Root    377 :    35.563603711211730
 Root    378 :    35.653443648711410
 Root    379 :    35.687686614657640
 Root    380 :    35.767381089443530
 Root    381 :    35.800036062442090
 Root    382 :    35.844913854424280
 Root    383 :    35.851747840190060
 Root    384 :    35.938304893240580
 Root    385 :    36.055095670239250
 Root    386 :    36.299488711745880
 Root    387 :    36.496490053656940
 Root    388 :    36.584166271247500
 Root    389 :    36.597195405906930
 Root    390 :    36.631546132798630
 Root    391 :    36.791869169170330
 Root    392 :    36.830968934397330
 Root    393 :    36.928300015195600
 Root    394 :    36.967955415592660
[...]
      3   0.297319D-01 -0.417320D-02  0.000000D+00  0.000000D+00 -0.367739D-01
      4   0.000000D+00  0.000000D+00 -0.162370D-01 -0.185071D-01  0.000000D+00
      5  -0.294552D-02 -0.142990D+00  0.000000D+00  0.000000D+00  0.241219D+00
      6  -0.226879D+00  0.378814D-01  0.000000D+00  0.000000D+00  0.266697D+00
      7   0.000000D+00  0.000000D+00  0.123899D+00  0.137497D+00  0.000000D+00
      8   0.000000D+00  0.000000D+00 -0.996389D-01 -0.116367D+00  0.000000D+00
      9   0.000000D+00  0.000000D+00  0.254099D+00  0.281688D+00  0.000000D+00
     10   0.472221D+00 -0.205213D+00  0.000000D+00  0.000000D+00 -0.355738D+00
     11  -0.185532D+00  0.589408D+00  0.000000D+00  0.000000D+00 -0.906824D+00
     12   0.307152D+00 -0.205137D-01  0.000000D+00  0.000000D+00 -0.461240D+00
     13   0.532004D-01 -0.319256D-01  0.000000D+00  0.000000D+00  0.271834D-01
     14   0.370780D+00 -0.143544D-01  0.000000D+00  0.000000D+00 -0.707466D+00
     15   0.000000D+00  0.000000D+00 -0.235402D+00 -0.287067D+00  0.000000D+00
     16   0.000000D+00  0.000000D+00 -0.912836D-01 -0.135008D+00  0.000000D+00
              1096          1097          1098          1099          1100 
      1  -0.162740D+03 -0.162713D+03 -0.162694D+03 -0.162681D+03 -0.162621D+03
      2  -0.385858D-01 -0.206215D-01  0.591998D-02  0.000000D+00  0.000000D+00
      3   0.487764D-01  0.191124D-01 -0.332194D-02  0.000000D+00  0.000000D+00
      4   0.000000D+00  0.000000D+00  0.000000D+00 -0.760983D-01  0.641886D-02
      5   0.278050D+00  0.171514D+00 -0.372752D-01  0.000000D+00  0.000000D+00
      6  -0.355784D+00 -0.143266D+00  0.202438D-01  0.000000D+00  0.000000D+00
      7   0.000000D+00  0.000000D+00  0.000000D+00  0.574850D+00 -0.415878D-01
      8   0.000000D+00  0.000000D+00  0.000000D+00 -0.408987D+00  0.203600D-01
      9   0.000000D+00  0.000000D+00  0.000000D+00  0.109653D+01 -0.763666D-01
     10   0.908144D+00  0.491711D+00  0.331103D-02  0.000000D+00  0.000000D+00
     11  -0.108588D+01 -0.105565D+01 -0.912948D-01  0.000000D+00  0.000000D+00
     12   0.625141D+00  0.210643D+00  0.513326D-02  0.000000D+00  0.000000D+00
     13   0.676154D-03  0.531125D-01  0.472601D-01  0.000000D+00  0.000000D+00
     14   0.520110D+00  0.173191D+00  0.577802D-01  0.000000D+00  0.000000D+00
     15   0.000000D+00  0.000000D+00  0.000000D+00 -0.119497D+01  0.142809D+00
     16   0.000000D+00  0.000000D+00  0.000000D+00 -0.526215D+00  0.128347D+00
              1101          1102          1103          1104          1105 
      1  -0.162611D+03 -0.162600D+03 -0.162586D+03 -0.162546D+03 -0.162531D+03
      2   0.000000D+00 -0.272136D-02  0.607634D-02  0.482148D-01  0.255770D-01
      3   0.000000D+00  0.431451D-01 -0.547644D-01 -0.781920D-04  0.125819D-01
      4  -0.441655D-01  0.000000D+00  0.000000D+00  0.000000D+00  0.000000D+00
      5   0.000000D+00  0.169667D-01 -0.457778D-01 -0.366737D+00 -0.215121D+00
      6   0.000000D+00 -0.305642D+00  0.392921D+00 -0.188693D-02 -0.902864D-01
      7   0.349098D+00  0.000000D+00  0.000000D+00  0.000000D+00  0.000000D+00
      8  -0.268069D+00  0.000000D+00  0.000000D+00  0.000000D+00  0.000000D+00
      9   0.682493D+00  0.000000D+00  0.000000D+00  0.000000D+00  0.000000D+00
     10   0.000000D+00  0.658021D+00 -0.672964D+00 -0.227406D+00  0.174853D-01
     11   0.000000D+00  0.193862D+00 -0.599848D-03  0.148624D+01  0.838653D+00
     12   0.000000D+00  0.504834D+00 -0.452112D+00 -0.880725D-02 -0.502284D-03
     13   0.000000D+00 -0.761919D-01  0.299635D-02 -0.545009D-02  0.727098D-02
     14   0.000000D+00  0.785208D+00 -0.669023D+00  0.214163D+00  0.272608D+00
     15  -0.722580D+00  0.000000D+00  0.000000D+00  0.000000D+00  0.000000D+00
     16  -0.302926D+00  0.000000D+00  0.000000D+00  0.000000D+00  0.000000D+00
              1106          1107          1108          1109          1110 
      1  -0.162528D+03 -0.162512D+03 -0.162470D+03 -0.162457D+03 -0.162411D+03
      2   0.000000D+00  0.000000D+00  0.314130D-01  0.000000D+00  0.382511D-01
      3   0.000000D+00  0.000000D+00  0.312150D-01  0.000000D+00  0.239529D-01
      4   0.134021D-01  0.373956D-01  0.000000D+00 -0.273591D-01  0.000000D+00
      5   0.000000D+00  0.000000D+00 -0.230489D+00  0.000000D+00 -0.276517D+00
      6   0.000000D+00  0.000000D+00 -0.215070D+00  0.000000D+00 -0.199071D+00
      7  -0.107320D+00 -0.285494D+00  0.000000D+00  0.214851D+00  0.000000D+00
      8   0.930970D-01  0.175922D+00  0.000000D+00 -0.163060D+00  0.000000D+00
      9  -0.228245D+00 -0.495115D+00  0.000000D+00  0.410831D+00  0.000000D+00
     10   0.000000D+00  0.000000D+00  0.244130D+00  0.000000D+00  0.214247D+00
     11   0.000000D+00  0.000000D+00  0.102016D+01  0.000000D+00  0.849517D+00
     12   0.000000D+00  0.000000D+00  0.204566D+00  0.000000D+00  0.494105D+00
     13   0.000000D+00  0.000000D+00 -0.403115D-01  0.000000D+00  0.256098D-01
     14   0.000000D+00  0.000000D+00  0.609335D+00  0.000000D+00  0.764711D+00
     15   0.222774D+00  0.534383D+00  0.000000D+00 -0.328379D+00  0.000000D+00
     16   0.121289D+00  0.217082D+00  0.000000D+00 -0.248822D+00  0.000000D+00
              1111          1112          1113          1114          1115 
      1  -0.162370D+03 -0.162362D+03 -0.162348D+03 -0.162287D+03 -0.162285D+03
      2  -0.397213D-01  0.212969D-03  0.000000D+00  0.000000D+00  0.000000D+00
      3  -0.235696D-01 -0.715427D-03  0.000000D+00  0.000000D+00  0.000000D+00
      4   0.000000D+00  0.000000D+00 -0.857375D-02 -0.100168D-01 -0.153795D-01
      5   0.294602D+00  0.148665D-01  0.000000D+00  0.000000D+00  0.000000D+00
      6   0.180868D+00 -0.869254D-03  0.000000D+00  0.000000D+00  0.000000D+00
      7   0.000000D+00  0.000000D+00  0.720396D-01  0.700242D-01  0.125813D+00
      8   0.000000D+00  0.000000D+00 -0.479702D-01 -0.310660D-01 -0.839270D-01
      9   0.000000D+00  0.000000D+00  0.130960D+00  0.123933D+00  0.233044D+00
     10  -0.626144D-01  0.181536D-01  0.000000D+00  0.000000D+00  0.000000D+00
     11  -0.113683D+01 -0.954795D-01  0.000000D+00  0.000000D+00  0.000000D+00
     12  -0.179918D+00 -0.145719D+00  0.000000D+00  0.000000D+00  0.000000D+00
     13  -0.175516D-01  0.613217D-01  0.000000D+00  0.000000D+00  0.000000D+00
     14  -0.341656D+00 -0.405097D-01  0.000000D+00  0.000000D+00  0.000000D+00
     15   0.000000D+00  0.000000D+00 -0.126176D+00 -0.106730D+00 -0.180015D+00
     16   0.000000D+00  0.000000D+00 -0.766116D-01  0.127222D-01 -0.122834D+00
              1116          1117          1118          1119          1120 
      1  -0.162267D+03 -0.162225D+03 -0.162179D+03 -0.162144D+03 -0.162144D+03
      2   0.551426D-01  0.387526D-02  0.186039D-01  0.270648D-01  0.136508D-01
      3  -0.103170D-01 -0.393660D-01  0.158568D-01 -0.200607D-01  0.275796D-02
      4   0.000000D+00  0.000000D+00  0.000000D+00  0.000000D+00  0.000000D+00
      5  -0.394968D+00 -0.149186D-01 -0.154907D+00 -0.174279D+00 -0.923807D-01
      6   0.779641D-01  0.286323D+00 -0.132324D+00  0.155175D+00 -0.181547D-01
      7   0.000000D+00  0.000000D+00  0.000000D+00  0.000000D+00  0.000000D+00
      8   0.000000D+00  0.000000D+00  0.000000D+00  0.000000D+00  0.000000D+00
      9   0.000000D+00  0.000000D+00  0.000000D+00  0.000000D+00  0.000000D+00
     10  -0.439565D+00 -0.492291D+00  0.165853D+00 -0.447625D+00  0.945327D-01
     11   0.145340D+01  0.186832D+00  0.443761D+00  0.693844D+00  0.343122D-01
     12  -0.784668D-01 -0.545053D+00  0.137549D+00 -0.306006D+00  0.184593D-02
     13   0.770468D-01 -0.116770D-01 -0.278324D-01  0.442170D-01  0.615845D-01
     14   0.309412D+00 -0.390554D+00  0.279120D+00 -0.517680D-01 -0.117822D-01
     15   0.000000D+00  0.000000D+00  0.000000D+00  0.000000D+00  0.000000D+00
     16   0.000000D+00  0.000000D+00  0.000000D+00  0.000000D+00  0.000000D+00
              1121          1122          1123          1124          1125 
      1  -0.162110D+03 -0.162049D+03 -0.162045D+03 -0.162019D+03 -0.161959D+03
      2   0.000000D+00  0.000000D+00 -0.312343D-02  0.268876D-01  0.179727D-01
      3   0.000000D+00  0.000000D+00  0.177160D-01  0.102197D-01  0.585098D-02
      4  -0.608513D-02  0.203852D-01  0.000000D+00  0.000000D+00  0.000000D+00
      5   0.000000D+00  0.000000D+00  0.641242D-02 -0.211826D+00 -0.152769D+00
      6   0.000000D+00  0.000000D+00 -0.131716D+00 -0.827302D-01 -0.612437D-01
      7   0.574088D-01 -0.177028D+00  0.000000D+00  0.000000D+00  0.000000D+00
      8  -0.157128D-02  0.178346D+00  0.000000D+00  0.000000D+00  0.000000D+00
      9   0.757451D-01 -0.388380D+00  0.000000D+00  0.000000D+00  0.000000D+00
     10   0.000000D+00  0.000000D+00  0.219798D+00 -0.134921D+00  0.921984D-01
     11   0.000000D+00  0.000000D+00 -0.139954D+00  0.111046D+01  0.304463D+00
     12   0.000000D+00  0.000000D+00  0.171817D+00  0.183560D-01 -0.547178D-01
     13   0.000000D+00  0.000000D+00 -0.518119D-02 -0.463750D-01 -0.741955D-02
     14   0.000000D+00  0.000000D+00  0.964556D-01  0.453275D+00  0.101201D+00
     15  -0.135460D+00  0.525192D+00  0.000000D+00  0.000000D+00  0.000000D+00
     16  -0.464097D-01  0.283314D+00  0.000000D+00  0.000000D+00  0.000000D+00
              1126          1127          1128          1129          1130 
      1  -0.161893D+03 -0.161873D+03 -0.161823D+03 -0.161816D+03 -0.161747D+03
      2   0.000000D+00  0.349567D-01 -0.205533D-01  0.119535D-01  0.247839D-02
      3   0.000000D+00 -0.863563D-02 -0.138445D-01  0.615832D-03 -0.136721D-01
      4   0.210682D-01  0.000000D+00  0.000000D+00  0.000000D+00  0.000000D+00
      5   0.000000D+00 -0.275366D+00  0.131607D+00 -0.651418D-01 -0.474380D-01
      6   0.000000D+00  0.577626D-01  0.823868D-01 -0.143213D-01  0.104415D+00
      7  -0.169177D+00  0.000000D+00  0.000000D+00  0.000000D+00  0.000000D+00
      8   0.177405D-01  0.000000D+00  0.000000D+00  0.000000D+00  0.000000D+00
      9  -0.215708D+00  0.000000D+00  0.000000D+00  0.000000D+00  0.000000D+00
     10   0.000000D+00 -0.250732D+00 -0.164901D+00  0.893547D-02 -0.190405D+00
     11   0.000000D+00  0.118210D+01 -0.765151D+00  0.232593D+00 -0.129326D-01
     12   0.000000D+00 -0.148901D+00 -0.460277D+00  0.142750D+00 -0.342183D+00
     13   0.000000D+00 -0.294110D-01  0.745648D-01 -0.294424D-01  0.358015D-01
     14   0.000000D+00  0.143542D+00 -0.613176D+00  0.264105D+00 -0.327232D+00
     15   0.323631D+00  0.000000D+00  0.000000D+00  0.000000D+00  0.000000D+00
     16   0.917474D-01  0.000000D+00  0.000000D+00  0.000000D+00  0.000000D+00
              1131          1132          1133          1134          1135 
      1  -0.161647D+03 -0.161633D+03 -0.161421D+03 -0.161232D+03 -0.147002D+03
      2   0.915537D-02 -0.257874D-02 -0.134432D-01  0.247445D-01  0.000000D+00
      3   0.115414D-01 -0.160648D-01 -0.217151D-01  0.193409D-01  0.000000D+00
      4   0.000000D+00  0.000000D+00  0.000000D+00  0.000000D+00  0.113918D-01
      5  -0.462577D-01  0.301135D-02  0.105952D+00 -0.253058D+00  0.000000D+00
      6  -0.626707D-01  0.153526D+00  0.176764D+00 -0.207466D+00  0.000000D+00
      7   0.000000D+00  0.000000D+00  0.000000D+00  0.000000D+00 -0.122822D+00
      8   0.000000D+00  0.000000D+00  0.000000D+00  0.000000D+00  0.205822D-02
      9   0.000000D+00  0.000000D+00  0.000000D+00  0.000000D+00  0.252865D+00
     10   0.974544D-01 -0.270247D+00 -0.173068D+00  0.245502D+00  0.000000D+00
     11   0.439191D+00  0.107872D+00 -0.539172D+00  0.592940D+00  0.000000D+00
     12   0.318703D+00 -0.215391D+00 -0.286519D+00  0.842016D-01  0.000000D+00
     13  -0.550510D-01  0.224774D-01  0.500096D-01  0.199057D-01  0.000000D+00
     14   0.459766D+00 -0.295528D+00 -0.493267D+00  0.288597D+00  0.000000D+00
     15   0.000000D+00  0.000000D+00  0.000000D+00  0.000000D+00 -0.247445D+00
     16   0.000000D+00  0.000000D+00  0.000000D+00  0.000000D+00  0.161927D-03
              1136          1137          1138          1139          1140 
      1  -0.146956D+03 -0.146870D+03 -0.146795D+03 -0.146784D+03 -0.146696D+03
      2  -0.112866D-02 -0.816422D-02  0.000000D+00 -0.902399D-02 -0.260001D-02
      3   0.606547D-02 -0.709749D-02  0.000000D+00  0.690588D-02  0.337395D-02
      4   0.000000D+00  0.000000D+00 -0.351001D-02  0.000000D+00  0.000000D+00
      5   0.260825D-01  0.112308D+00  0.000000D+00  0.108057D+00  0.253708D-01
      6  -0.740945D-01  0.877085D-01  0.000000D+00 -0.869681D-01 -0.509291D-01
      7   0.000000D+00  0.000000D+00  0.368675D-01  0.000000D+00  0.000000D+00
      8   0.000000D+00  0.000000D+00  0.138631D-02  0.000000D+00  0.000000D+00
      9   0.000000D+00  0.000000D+00 -0.683261D-01  0.000000D+00  0.000000D+00
     10  -0.162222D+00  0.190743D+00  0.000000D+00 -0.175554D+00 -0.109921D+00
     11   0.901397D-01  0.495429D+00  0.000000D+00  0.491422D+00  0.110892D+00
     12   0.595863D-02 -0.358348D-01  0.000000D+00  0.832348D-01  0.478146D-01
     13  -0.452174D-01 -0.218297D-01  0.000000D+00  0.364747D-01  0.356839D-01
     14  -0.188118D+00  0.205546D+00  0.000000D+00 -0.171435D+00 -0.990262D-01
     15   0.000000D+00  0.000000D+00  0.764679D-01  0.000000D+00  0.000000D+00
     16   0.000000D+00  0.000000D+00 -0.147013D-02  0.000000D+00  0.000000D+00
              1141          1142          1143          1144          1145 
      1  -0.146619D+03 -0.146378D+03 -0.146095D+03 -0.137418D+03 -0.137390D+03
      2  -0.680955D-02  0.413228D-03  0.808367D-03  0.330519D-02  0.000000D+00
      3   0.213603D-02  0.274973D-03  0.144500D-03 -0.129389D-01  0.000000D+00
      4   0.000000D+00  0.000000D+00  0.000000D+00  0.000000D+00  0.804339D-02
      5   0.551310D-01 -0.328959D-01 -0.170578D-01 -0.696630D-01  0.000000D+00
      6  -0.580888D-02  0.123775D-01  0.408725D-03  0.203091D+00  0.000000D+00
      7   0.000000D+00  0.000000D+00  0.000000D+00  0.000000D+00 -0.141214D+00
      8   0.000000D+00  0.000000D+00  0.000000D+00  0.000000D+00 -0.141261D+00
      9   0.000000D+00  0.000000D+00  0.000000D+00  0.000000D+00  0.478761D-02
     10  -0.146589D-01  0.280140D-01  0.115221D-01  0.698981D-01  0.000000D+00
     11   0.345467D+00  0.568846D-01 -0.101724D-01  0.849967D-01  0.000000D+00
     12   0.147639D+00  0.135499D+00  0.303266D-01  0.501125D+00  0.000000D+00
     13   0.133320D+00  0.128245D+00  0.252714D-01  0.808591D-01  0.000000D+00
     14  -0.100392D-02  0.261502D-03 -0.798777D-02 -0.659425D-01  0.000000D+00
     15   0.000000D+00  0.000000D+00  0.000000D+00  0.000000D+00  0.555265D-02
     16   0.000000D+00  0.000000D+00  0.000000D+00  0.000000D+00 -0.133207D+00
              1146          1147          1148          1149          1150 
      1  -0.137238D+03 -0.137197D+03 -0.137179D+03 -0.137097D+03 -0.136995D+03
      2   0.000000D+00  0.787802D-02 -0.472188D-02  0.224324D-02 -0.358654D-02
      3   0.000000D+00  0.120798D-03 -0.105545D-02  0.405992D-02  0.720285D-03
      4  -0.770848D-02  0.000000D+00  0.000000D+00  0.000000D+00  0.000000D+00
      5   0.000000D+00 -0.125242D+00  0.841175D-01 -0.478901D-01  0.421197D-01
      6   0.000000D+00  0.750980D-02 -0.122455D-02 -0.667608D-01  0.249376D-02
      7   0.104281D+00  0.000000D+00  0.000000D+00  0.000000D+00  0.000000D+00
      8   0.100750D+00  0.000000D+00  0.000000D+00  0.000000D+00  0.000000D+00
      9   0.316423D-02  0.000000D+00  0.000000D+00  0.000000D+00  0.000000D+00
     10   0.000000D+00  0.131418D+00 -0.826002D-01  0.418859D-01 -0.472675D-01
     11   0.000000D+00 -0.216007D-01 -0.238872D-01 -0.540623D-01 -0.625257D-01
     12   0.000000D+00 -0.451652D-02 -0.266842D-01 -0.189838D+00 -0.837210D-01
     13   0.000000D+00 -0.133144D-01 -0.318907D-01 -0.679076D-01 -0.111265D+00
     14   0.000000D+00 -0.130198D+00  0.804618D-01 -0.582999D-01  0.211929D-01
     15  -0.143761D-02  0.000000D+00  0.000000D+00  0.000000D+00  0.000000D+00
     16   0.116088D+00  0.000000D+00  0.000000D+00  0.000000D+00  0.000000D+00
              1151          1152          1153          1154          1155 
      1  -0.136775D+03 -0.136533D+03 -0.125583D+03 -0.125521D+03 -0.125374D+03
      2  -0.226284D-02  0.170296D-02  0.000000D+00 -0.105914D-02 -0.713869D-02
      3  -0.591055D-03  0.143719D-03  0.000000D+00  0.977926D-02  0.416253D-02
      4   0.000000D+00  0.000000D+00 -0.142512D-01  0.000000D+00  0.000000D+00
      5   0.508454D-01 -0.226191D-01  0.000000D+00  0.595543D-02  0.154182D+00
      6  -0.113679D-01 -0.151568D-01  0.000000D+00 -0.212627D+00 -0.878138D-01
      7   0.000000D+00  0.000000D+00  0.259840D+00  0.000000D+00  0.000000D+00
      8   0.000000D+00  0.000000D+00 -0.192323D+00  0.000000D+00  0.000000D+00
      9   0.000000D+00  0.000000D+00  0.503438D+00  0.000000D+00  0.000000D+00
     10  -0.524448D-01  0.167030D-01  0.000000D+00  0.414578D+00  0.286903D+00
     11   0.178983D+00  0.961667D-01  0.000000D+00  0.188695D-01 -0.547317D+00
     12   0.145454D+00  0.565204D-01  0.000000D+00  0.364005D+00  0.201122D+00
     13   0.142329D+00  0.104564D+00  0.000000D+00  0.537464D-01  0.635735D-01
     14   0.382548D-01 -0.420388D-01  0.000000D+00  0.404693D+00  0.654515D-01
     15   0.000000D+00  0.000000D+00 -0.502717D+00  0.000000D+00  0.000000D+00
     16   0.000000D+00  0.000000D+00 -0.200380D+00  0.000000D+00  0.000000D+00
              1156          1157          1158          1159          1160 
      1  -0.125360D+03 -0.125317D+03 -0.125220D+03 -0.125112D+03 -0.124876D+03
      2   0.000000D+00 -0.476175D-02 -0.351182D-02  0.190704D-02 -0.179434D-02
      3   0.000000D+00 -0.376192D-02  0.807956D-03  0.731932D-03 -0.632176D-03
      4  -0.370190D-02  0.000000D+00  0.000000D+00  0.000000D+00  0.000000D+00
      5   0.000000D+00  0.110979D+00  0.804918D-01 -0.507192D-01  0.389629D-01
      6   0.000000D+00  0.933137D-01 -0.974428D-02 -0.198432D-01 -0.672448D-03
      7   0.817225D-01  0.000000D+00  0.000000D+00  0.000000D+00  0.000000D+00
      8  -0.645595D-01  0.000000D+00  0.000000D+00  0.000000D+00  0.000000D+00
      9   0.163049D+00  0.000000D+00  0.000000D+00  0.000000D+00  0.000000D+00
     10   0.000000D+00 -0.102051D+00  0.802681D-01 -0.262148D-02  0.354002D-01
     11   0.000000D+00 -0.490733D+00 -0.321846D+00  0.268482D+00 -0.300422D+00
     12   0.000000D+00 -0.202223D+00  0.542107D-02  0.882395D-01 -0.134096D+00
     13   0.000000D+00 -0.432766D-01 -0.808237D-02  0.474374D-01 -0.128041D+00
     14   0.000000D+00 -0.275264D+00 -0.394060D-01  0.947813D-01 -0.394505D-01
     15  -0.165367D+00  0.000000D+00  0.000000D+00  0.000000D+00  0.000000D+00
     16  -0.697258D-01  0.000000D+00  0.000000D+00  0.000000D+00  0.000000D+00
              1161 
      1  -0.124693D+03
      2   0.111231D-02
      3   0.769293D-03
      4   0.000000D+00
      5  -0.105152D-01
      6   0.885656D-02
      7   0.000000D+00
      8   0.000000D+00
      9   0.000000D+00
     10  -0.209598D-01
     11   0.188803D+00
     12   0.144994D+00
     13   0.178403D+00
     14  -0.332805D-01
     15   0.000000D+00
     16   0.000000D+00
 Unable to Open any file for archive entry.
 1\1\GINC-HEL14\SP\RwB97XD TD-FC\Gen\C1H3N1O1\RR\27-Feb-2022\0\\#P TD(N
 states=10000) wB97XD/Gen SCF(maxcycles=100) Int(Grid=ultrafine)\\xGDB7
 _00001_tier4.com\\0,1\O,0,-1.028621,-0.395177,0.\N,0,0.,0.526228,0.\C,
 0,1.132746,-0.030907,0.\H,0,-1.816572,0.151791,0.\H,0,1.994262,0.62343
 9,0.\H,0,1.254802,-1.111965,0.\\Version=EM64L-G16RevC.01\State=1-A'\HF
 =-169.8285615\RMSD=9.366e-09\PG=CS [SG(C1H3N1O1)]\\@
 The archive entry for this job was punched.


 THEORY:  SUPPOSITION WHICH HAS SCIENTIFIC BASIS,
          BUT NOT EXPERIMENTALLY PROVEN.
 FACT:    A THEORY WHICH HAS BEEN PROVEN BY ENOUGH 
          MONEY TO PAY FOR THE EXPERIMENTS.

                          --  THE WIZARD OF ID
 Job cpu time:       0 days  0 hours 37 minutes 24.9 seconds.
 Elapsed time:       0 days  0 hours  4 minutes 41.5 seconds.
 File lengths (MBytes):  RWF=   1782 Int=      0 D2E=      0 Chk=    526 Scr=      1
 Normal termination of Gaussian 16 at Sun Feb 27 06:40:33 2022.
