 Entering Gaussian System, Link 0=g16
 Input=bigQM7w_TDwB97XD_def2TZVP_000009.com
 Output=bigQM7w_TDwB97XD_def2TZVP_000009.log
 Initial command:
 /home/rr/g16/l1.exe "/scratch/rr/PBS_7918662.helios/Gau-12866.inp" -scrdir="/scratch/rr/PBS_7918662.helios/"
 Entering Link 1 = /home/rr/g16/l1.exe PID=     12869.
  
 Copyright (c) 1988-2019, Gaussian, Inc.  All Rights Reserved.
  
 This is part of the Gaussian(R) 16 program.  It is based on
 the Gaussian(R) 09 system (copyright 2009, Gaussian, Inc.),
 the Gaussian(R) 03 system (copyright 2003, Gaussian, Inc.),
 the Gaussian(R) 98 system (copyright 1998, Gaussian, Inc.),
 the Gaussian(R) 94 system (copyright 1995, Gaussian, Inc.),
 the Gaussian 92(TM) system (copyright 1992, Gaussian, Inc.),
 the Gaussian 90(TM) system (copyright 1990, Gaussian, Inc.),
 the Gaussian 88(TM) system (copyright 1988, Gaussian, Inc.),
 the Gaussian 86(TM) system (copyright 1986, Carnegie Mellon
 University), and the Gaussian 82(TM) system (copyright 1983,
 Carnegie Mellon University). Gaussian is a federally registered
 trademark of Gaussian, Inc.
  
 This software contains proprietary and confidential information,
 including trade secrets, belonging to Gaussian, Inc.
  
 This software is provided under written license and may be
 used, copied, transmitted, or stored only in accord with that
 written license.
  
 The following legend is applicable only to US Government
 contracts under FAR:
  
                    RESTRICTED RIGHTS LEGEND
  
 Use, reproduction and disclosure by the US Government is
 subject to restrictions as set forth in subparagraphs (a)
 and (c) of the Commercial Computer Software - Restricted
 Rights clause in FAR 52.227-19.
  
 Gaussian, Inc.
 340 Quinnipiac St., Bldg. 40, Wallingford CT 06492
  
  
 ---------------------------------------------------------------
 Warning -- This program may not be used in any manner that
 competes with the business of Gaussian, Inc. or will provide
 assistance to any competitor of Gaussian, Inc.  The licensee
 of this program is prohibited from giving any competitor of
 Gaussian, Inc. access to this program.  By using this program,
 the user acknowledges that Gaussian, Inc. is engaged in the
 business of creating and licensing software in the field of
 computational chemistry and represents and warrants to the
 licensee that it is not a competitor of Gaussian, Inc. and that
 it will not use this program in any manner prohibited above.
 ---------------------------------------------------------------
  

 Cite this work as:
 Gaussian 16, Revision C.01,
 M. J. Frisch, G. W. Trucks, H. B. Schlegel, G. E. Scuseria, 
 M. A. Robb, J. R. Cheeseman, G. Scalmani, V. Barone, 
 G. A. Petersson, H. Nakatsuji, X. Li, M. Caricato, A. V. Marenich, 
 J. Bloino, B. G. Janesko, R. Gomperts, B. Mennucci, H. P. Hratchian, 
 J. V. Ortiz, A. F. Izmaylov, J. L. Sonnenberg, D. Williams-Young, 
 F. Ding, F. Lipparini, F. Egidi, J. Goings, B. Peng, A. Petrone, 
 T. Henderson, D. Ranasinghe, V. G. Zakrzewski, J. Gao, N. Rega, 
 G. Zheng, W. Liang, M. Hada, M. Ehara, K. Toyota, R. Fukuda, 
 J. Hasegawa, M. Ishida, T. Nakajima, Y. Honda, O. Kitao, H. Nakai, 
 T. Vreven, K. Throssell, J. A. Montgomery, Jr., J. E. Peralta, 
 F. Ogliaro, M. J. Bearpark, J. J. Heyd, E. N. Brothers, K. N. Kudin, 
 V. N. Staroverov, T. A. Keith, R. Kobayashi, J. Normand, 
 K. Raghavachari, A. P. Rendell, J. C. Burant, S. S. Iyengar, 
 J. Tomasi, M. Cossi, J. M. Millam, M. Klene, C. Adamo, R. Cammi, 
 J. W. Ochterski, R. L. Martin, K. Morokuma, O. Farkas, 
 J. B. Foresman, and D. J. Fox, Gaussian, Inc., Wallingford CT, 2019.
 
 ******************************************
 Gaussian 16:  EM64L-G16RevC.01  3-Jul-2019
                27-Feb-2022 
 ******************************************
 %mem=64gb
 %nproc=8
 Will use up to    8 processors via shared memory.
 ----------------------------------------------------------------------
 #P TD(Nstates=10000) wB97XD/Gen SCF(maxcycles=100) Int(Grid=ultrafine)
 ----------------------------------------------------------------------
 1/38=1,172=1/1;
 2/12=2,17=6,18=5,40=1/2;
 3/5=7,11=9,25=1,30=1,74=-58,75=-5/1,2,3,8;
 4//1;
 5/5=2,7=100,38=5/2;
 8/6=1,10=1,108=10000/1;
 9/41=10000,42=1,70=2/14;
 6/7=2,8=2,9=2,10=2/1;
 99/5=1,9=1/99;
 Leave Link    1 at Sun Feb 27 06:39:22 2022, MaxMem=  8589934592 cpu:               0.5 elap:               0.1
 (Enter /home/rr/g16/l101.exe)
 ---------------------
 xGDB7_00001_tier4.com
 ---------------------
 Symbolic Z-matrix:
 Charge =  0 Multiplicity = 1
 9                     0.        0.        0.68819 
 9                     0.        0.       -0.68819 
 
 ITRead=  0  0
 MicOpt= -1 -1
 NAtoms=      2 NQM=        2 NQMF=       0 NMMI=      0 NMMIF=      0
                NMic=       0 NMicF=      0.
                    Isotopes and Nuclear Properties:
 (Nuclear quadrupole moments (NQMom) in fm**2, nuclear magnetic moments (NMagM)
  in nuclear magnetons)

  Atom         1           2
 IAtWgt=          19          19
 AtmWgt=  18.9984033  18.9984033
 NucSpn=           1           1
 AtZEff=  -0.0000000  -0.0000000
 NQMom=    0.0000000   0.0000000
 NMagM=    2.6288670   2.6288670
 AtZNuc=   9.0000000   9.0000000
 Leave Link  101 at Sun Feb 27 06:39:23 2022, MaxMem=  8589934592 cpu:               1.2 elap:               0.2
 (Enter /home/rr/g16/l202.exe)
                          Input orientation:                          
 ---------------------------------------------------------------------
 Center     Atomic      Atomic             Coordinates (Angstroms)
 Number     Number       Type             X           Y           Z
 ---------------------------------------------------------------------
      1          9           0        0.000000    0.000000    0.688193
      2          9           0        0.000000    0.000000   -0.688193
 ---------------------------------------------------------------------
 Stoichiometry    F2
 Framework group  D*H[C*(F.F)]
 Deg. of freedom     1
 Full point group                 D*H     NOp   8
 Largest Abelian subgroup         D2H     NOp   8
 Largest concise Abelian subgroup C2      NOp   2
                         Standard orientation:                         
 ---------------------------------------------------------------------
 Center     Atomic      Atomic             Coordinates (Angstroms)
 Number     Number       Type             X           Y           Z
 ---------------------------------------------------------------------
      1          9           0        0.000000    0.000000    0.688193
      2          9           0        0.000000    0.000000   -0.688193
 ---------------------------------------------------------------------
 Rotational constants (GHZ):           0.0000000          28.0833945          28.0833945
 Leave Link  202 at Sun Feb 27 06:39:23 2022, MaxMem=  8589934592 cpu:               0.5 elap:               0.1
 (Enter /home/rr/g16/l301.exe)
 General basis read from cards:  (5D, 7F)
 Centers:       1      2
 S 6 1.00
     Exponent=  3.5479100441D+04 Coefficients=  2.1545014888D-04
     Exponent=  5.3184728983D+03 Coefficients=  1.6700686527D-03
     Exponent=  1.2104810975D+03 Coefficients=  8.6733211476D-03
     Exponent=  3.4285518140D+02 Coefficients=  3.5049933175D-02
     Exponent=  1.1201943181D+02 Coefficients=  1.1165320133D-01
     Exponent=  4.0714740248D+01 Coefficients=  2.5988506647D-01
 S 2 1.00
     Exponent=  1.6039678111D+01 Coefficients=  3.9422966880D-01
     Exponent=  6.5038186740D+00 Coefficients=  2.4998238551D-01
 S 1 1.00
     Exponent=  1.5440477509D+00 Coefficients=  1.0000000000D+00
 S 1 1.00
     Exponent=  6.1223452862D-01 Coefficients=  1.0000000000D+00
 S 1 1.00
     Exponent=  2.4027979698D-01 Coefficients=  1.0000000000D+00
 S 1 1.00
     Exponent=  9.0918446478D-02 Coefficients=  1.0000000000D+00
 P 4 1.00
     Exponent=  8.0233900483D+01 Coefficients=  6.3685999134D-03
     Exponent=  1.8594010743D+01 Coefficients=  4.4303143530D-02
     Exponent=  5.6867902653D+00 Coefficients=  1.6867248708D-01
     Exponent=  1.9511006294D+00 Coefficients=  3.6166346255D-01
 P 1 1.00
     Exponent=  6.6970211298D-01 Coefficients=  4.4202901491D-01
 P 1 1.00
     Exponent=  2.1651300410D-01 Coefficients=  2.4319875730D-01
 P 1 1.00
     Exponent=  5.9613282472D-02 Coefficients=  1.0000000000D+00
 D 1 1.00
     Exponent=  3.1070000000D+00 Coefficients=  1.0000000000D+00
 D 1 1.00
     Exponent=  8.5500000000D-01 Coefficients=  1.0000000000D+00
 D 1 1.00
     Exponent=  1.8608388111D-01 Coefficients=  1.0000000000D+00
 F 1 1.00
     Exponent=  1.9170000000D+00 Coefficients=  1.0000000000D+00
 ****
 Ernie: Thresh=  0.10000D-02 Tol=  0.10000D-05 Strict=F.
 There are    22 symmetry adapted cartesian basis functions of AG  symmetry.
 There are     4 symmetry adapted cartesian basis functions of B1G symmetry.
 There are    10 symmetry adapted cartesian basis functions of B2G symmetry.
 There are    10 symmetry adapted cartesian basis functions of B3G symmetry.
 There are     4 symmetry adapted cartesian basis functions of AU  symmetry.
 There are    22 symmetry adapted cartesian basis functions of B1U symmetry.
 There are    10 symmetry adapted cartesian basis functions of B2U symmetry.
 There are    10 symmetry adapted cartesian basis functions of B3U symmetry.
 There are    18 symmetry adapted basis functions of AG  symmetry.
 There are     4 symmetry adapted basis functions of B1G symmetry.
 There are     9 symmetry adapted basis functions of B2G symmetry.
 There are     9 symmetry adapted basis functions of B3G symmetry.
 There are     4 symmetry adapted basis functions of AU  symmetry.
 There are    18 symmetry adapted basis functions of B1U symmetry.
 There are     9 symmetry adapted basis functions of B2U symmetry.
 There are     9 symmetry adapted basis functions of B3U symmetry.
    80 basis functions,   122 primitive gaussians,    92 cartesian basis functions
     9 alpha electrons        9 beta electrons
       nuclear repulsion energy        31.1419573321 Hartrees.
 IExCor= 4639 DFT=T Ex+Corr=wB97XD ExCW=0 ScaHFX=  1.000000
 ScaDFX=  1.000000  1.000000  1.000000  1.000000 ScalE2=  1.000000  1.000000
 IRadAn=      5 IRanWt=     -1 IRanGd=            0 ICorTp=0 IEmpDi=121
 HFx  wShort=  0.000000 wLong=  0.200000 cFull=  0.222036 cShort=  0.000000 cLong=  0.777964
 DFx  wShort=  0.000000 wLong=  0.200000 cFull=  0.000000 cShort=  0.000000 cLong=  1.000000
 NAtoms=    2 NActive=    2 NUniq=    1 SFac= 4.00D+00 NAtFMM=   60 NAOKFM=F Big=F
 Integral buffers will be    131072 words long.
 Raffenetti 1 integral format.
 Two-electron integral symmetry is turned on.
 R6Disp:  Grimme-D2 Dispersion energy=       -0.0000038265 Hartrees.
 Nuclear repulsion after empirical dispersion term =       31.1419535057 Hartrees.
 Leave Link  301 at Sun Feb 27 06:39:24 2022, MaxMem=  8589934592 cpu:               1.8 elap:               0.3
 (Enter /home/rr/g16/l302.exe)
 NPDir=0 NMtPBC=     1 NCelOv=     1 NCel=       1 NClECP=     1 NCelD=      1
         NCelK=      1 NCelE2=     1 NClLst=     1 CellRange=     0.0.
 One-electron integrals computed using PRISM.
 One-electron integral symmetry used in STVInt
 NBasis=    80 RedAO= T EigKep=  9.32D-04  NBF=    18     4     9     9     4    18     9     9
 NBsUse=    80 1.00D-06 EigRej= -1.00D+00 NBFU=    18     4     9     9     4    18     9     9
 Precomputing XC quadrature grid using
 IXCGrd= 4 IRadAn=           5 IRanWt=          -1 IRanGd=           0 AccXCQ= 0.00D+00.
 Generated NRdTot=       0 NPtTot=           0 NUsed=           0 NTot=          32
 NSgBfM=    91    91    91    91    91 MxSgAt=     2 MxSgA2=     2.
 Leave Link  302 at Sun Feb 27 06:39:25 2022, MaxMem=  8589934592 cpu:               3.0 elap:               0.5
 (Enter /home/rr/g16/l303.exe)
 DipDrv:  MaxL=1.
 Leave Link  303 at Sun Feb 27 06:39:25 2022, MaxMem=  8589934592 cpu:               0.8 elap:               0.2
 (Enter /home/rr/g16/l308.exe)
 Leave Link  308 at Sun Feb 27 06:39:26 2022, MaxMem=  8589934592 cpu:               0.7 elap:               0.2
 (Enter /home/rr/g16/l401.exe)
 ExpMin= 5.96D-02 ExpMax= 3.55D+04 ExpMxC= 1.21D+03 IAcc=3 IRadAn=         5 AccDes= 0.00D+00
 Harris functional with IExCor= 4639 and IRadAn=       5 diagonalized for initial guess.
 HarFok:  IExCor= 4639 AccDes= 0.00D+00 IRadAn=         5 IDoV= 1 UseB2=F ITyADJ=14
 ICtDFT=  3500011 ScaDFX=  1.000000  1.000000  1.000000  1.000000
 FoFCou: FMM=F IPFlag=           0 FMFlag=      100000 FMFlg1=           0
         NFxFlg=           0 DoJE=T BraDBF=F KetDBF=T FulRan=T
         wScrn=  0.000000 ICntrl=       500 IOpCl=  0 I1Cent=   200000004 NGrid=           0
         NMat0=    1 NMatS0=      1 NMatT0=    0 NMatD0=    1 NMtDS0=    0 NMtDT0=    0
 Petite list used in FoFCou.
 Harris En= -193.679807241751    
 JPrj=0 DoOrth=F DoCkMO=F.
 Initial guess orbital symmetries:
       Occupied  (SGU) (SGG) (SGG) (SGU) (SGG) (PIU) (PIU) (PIG)
                 (PIG)
       Virtual   (SGU) (SGG) (PIU) (PIU) (SGU) (PIG) (PIG) (SGG)
                 (SGU) (DLTG) (DLTG) (SGU) (SGG) (PIU) (PIU) (PIG)
                 (PIG) (DLTU) (DLTU) (PIU) (PIU) (SGG) (SGU) (PIG)
                 (PIG) (SGG) (SGU) (PIU) (PIU) (DLTG) (DLTG) (SGG)
                 (DLTU) (DLTU) (PIG) (PIG) (SGU) (PIU) (PIU) (SGG)
                 (PIG) (PIG) (SGG) (SGU) (SGU) (PIU) (PIU) (SGG)
                 (DLTG) (DLTG) (PHIU) (PHIU) (PHIG) (PHIG) (DLTU)
                 (DLTU) (PIG) (PIG) (SGU) (DLTG) (DLTG) (PIU) (PIU)
                 (DLTU) (DLTU) (SGG) (PIG) (PIG) (SGU) (SGG) (SGU)
 The electronic state of the initial guess is 1-SGG.
 Leave Link  401 at Sun Feb 27 06:39:27 2022, MaxMem=  8589934592 cpu:               4.5 elap:               0.8
 (Enter /home/rr/g16/l502.exe)
 Keep R1 ints in memory in symmetry-blocked form, NReq=18124288.
 FoFCou: FMM=F IPFlag=           0 FMFlag=           0 FMFlg1=           0
         NFxFlg=           0 DoJE=F BraDBF=F KetDBF=F FulRan=T
         wScrn=  0.000000 ICntrl=       600 IOpCl=  0 I1Cent=           0 NGrid=           0
         NMat0=    1 NMatS0=   3240 NMatT0=    0 NMatD0=    1 NMtDS0=    0 NMtDT0=    0
 Petite list used in FoFCou.
 Closed shell SCF:
 Using DIIS extrapolation, IDIIS=  1040.
 NGot=  8589934592 LenX=  8589221926 LenY=  8589213021
 Requested convergence on RMS density matrix=1.00D-08 within 100 cycles.
 Requested convergence on MAX density matrix=1.00D-06.
 Requested convergence on             energy=1.00D-06.
 No special actions if energy rises.
 Integral accuracy reduced to 1.0D-05 until final iterations.

 Cycle   1  Pass 0  IDiag  1:
 E= -199.274760515771    
 DIIS: error= 1.33D-01 at cycle   1 NSaved=   1.
 NSaved= 1 IEnMin= 1 EnMin= -199.274760515771     IErMin= 1 ErrMin= 1.33D-01
 ErrMax= 1.33D-01  0.00D+00 EMaxC= 1.00D-01 BMatC= 7.81D-01 BMatP= 7.81D-01
 IDIUse=3 WtCom= 0.00D+00 WtEn= 1.00D+00
 Coeff-Com:  0.100D+01
 Coeff-En:   0.100D+01
 Coeff:      0.100D+01
 Gap=     0.693 Goal=   None    Shift=    0.000
 GapD=    0.693 DampG=2.000 DampE=0.250 DampFc=0.5000 IDamp=-1.
 Damping current iteration by 5.00D-01
 RMSDP=6.03D-03 MaxDP=1.02D-01              OVMax= 1.70D-01

 Cycle   2  Pass 0  IDiag  1:
 E= -199.422809208043     Delta-E=       -0.148048692271 Rises=F Damp=T
 DIIS: error= 4.90D-02 at cycle   2 NSaved=   2.
 NSaved= 2 IEnMin= 2 EnMin= -199.422809208043     IErMin= 2 ErrMin= 4.90D-02
 ErrMax= 4.90D-02  0.00D+00 EMaxC= 1.00D-01 BMatC= 7.09D-02 BMatP= 7.81D-01
 IDIUse=3 WtCom= 5.10D-01 WtEn= 4.90D-01
 Coeff-Com: -0.260D+00 0.126D+01
 Coeff-En:   0.000D+00 0.100D+01
 Coeff:     -0.133D+00 0.113D+01
 Gap=     0.453 Goal=   None    Shift=    0.000
 RMSDP=1.60D-03 MaxDP=2.06D-02 DE=-1.48D-01 OVMax= 6.00D-02

 Cycle   3  Pass 0  IDiag  1:
 E= -199.542687046045     Delta-E=       -0.119877838003 Rises=F Damp=F
 DIIS: error= 3.15D-03 at cycle   3 NSaved=   3.
 NSaved= 3 IEnMin= 3 EnMin= -199.542687046045     IErMin= 3 ErrMin= 3.15D-03
 ErrMax= 3.15D-03  0.00D+00 EMaxC= 1.00D-01 BMatC= 5.95D-04 BMatP= 7.09D-02
 IDIUse=3 WtCom= 9.68D-01 WtEn= 3.15D-02
 Coeff-Com:  0.430D-01-0.933D-01 0.105D+01
 Coeff-En:   0.000D+00 0.000D+00 0.100D+01
 Coeff:      0.417D-01-0.904D-01 0.105D+01
 Gap=     0.451 Goal=   None    Shift=    0.000
 RMSDP=3.07D-04 MaxDP=3.80D-03 DE=-1.20D-01 OVMax= 4.50D-03

 Cycle   4  Pass 0  IDiag  1:
 E= -199.543036977686     Delta-E=       -0.000349931641 Rises=F Damp=F
 DIIS: error= 3.46D-04 at cycle   4 NSaved=   4.
 NSaved= 4 IEnMin= 4 EnMin= -199.543036977686     IErMin= 4 ErrMin= 3.46D-04
 ErrMax= 3.46D-04  0.00D+00 EMaxC= 1.00D-01 BMatC= 6.50D-06 BMatP= 5.95D-04
 IDIUse=3 WtCom= 9.97D-01 WtEn= 3.46D-03
 Coeff-Com: -0.661D-03-0.301D-03-0.112D+00 0.111D+01
 Coeff-En:   0.000D+00 0.000D+00 0.000D+00 0.100D+01
 Coeff:     -0.659D-03-0.299D-03-0.111D+00 0.111D+01
 Gap=     0.451 Goal=   None    Shift=    0.000
 RMSDP=6.67D-05 MaxDP=9.42D-04 DE=-3.50D-04 OVMax= 1.03D-03

 Cycle   5  Pass 0  IDiag  1:
 E= -199.543044687509     Delta-E=       -0.000007709823 Rises=F Damp=F
 DIIS: error= 7.24D-05 at cycle   5 NSaved=   5.
 NSaved= 5 IEnMin= 5 EnMin= -199.543044687509     IErMin= 5 ErrMin= 7.24D-05
 ErrMax= 7.24D-05  0.00D+00 EMaxC= 1.00D-01 BMatC= 2.28D-07 BMatP= 6.50D-06
 IDIUse=1 WtCom= 1.00D+00 WtEn= 0.00D+00
 Coeff-Com: -0.467D-03 0.641D-03-0.283D-01 0.204D+00 0.824D+00
 Coeff:     -0.467D-03 0.641D-03-0.283D-01 0.204D+00 0.824D+00
 Gap=     0.451 Goal=   None    Shift=    0.000
 RMSDP=6.42D-06 MaxDP=9.85D-05 DE=-7.71D-06 OVMax= 1.15D-04

 Initial convergence to 1.0D-05 achieved.  Increase integral accuracy.
 Cycle   6  Pass 1  IDiag  1:
 E= -199.543037115947     Delta-E=        0.000007571562 Rises=F Damp=F
 DIIS: error= 1.85D-05 at cycle   1 NSaved=   1.
 NSaved= 1 IEnMin= 1 EnMin= -199.543037115947     IErMin= 1 ErrMin= 1.85D-05
 ErrMax= 1.85D-05  0.00D+00 EMaxC= 1.00D-01 BMatC= 2.26D-08 BMatP= 2.26D-08
 IDIUse=1 WtCom= 1.00D+00 WtEn= 0.00D+00
 Coeff-Com:  0.100D+01
 Coeff:      0.100D+01
 Gap=     0.451 Goal=   None    Shift=    0.000
 RMSDP=6.42D-06 MaxDP=9.85D-05 DE= 7.57D-06 OVMax= 3.95D-05

 Cycle   7  Pass 1  IDiag  1:
 E= -199.543037136545     Delta-E=       -0.000000020598 Rises=F Damp=F
 DIIS: error= 6.39D-06 at cycle   2 NSaved=   2.
 NSaved= 2 IEnMin= 2 EnMin= -199.543037136545     IErMin= 2 ErrMin= 6.39D-06
 ErrMax= 6.39D-06  0.00D+00 EMaxC= 1.00D-01 BMatC= 1.64D-09 BMatP= 2.26D-08
 IDIUse=1 WtCom= 1.00D+00 WtEn= 0.00D+00
 Coeff-Com:  0.875D-01 0.912D+00
 Coeff:      0.875D-01 0.912D+00
 Gap=     0.451 Goal=   None    Shift=    0.000
 RMSDP=5.57D-07 MaxDP=7.78D-06 DE=-2.06D-08 OVMax= 1.10D-05

 Cycle   8  Pass 1  IDiag  1:
 E= -199.543037137679     Delta-E=       -0.000000001133 Rises=F Damp=F
 DIIS: error= 2.34D-06 at cycle   3 NSaved=   3.
 NSaved= 3 IEnMin= 3 EnMin= -199.543037137679     IErMin= 3 ErrMin= 2.34D-06
 ErrMax= 2.34D-06  0.00D+00 EMaxC= 1.00D-01 BMatC= 2.83D-10 BMatP= 1.64D-09
 IDIUse=1 WtCom= 1.00D+00 WtEn= 0.00D+00
 Coeff-Com: -0.408D-01 0.249D+00 0.791D+00
 Coeff:     -0.408D-01 0.249D+00 0.791D+00
 Gap=     0.451 Goal=   None    Shift=    0.000
 RMSDP=1.80D-07 MaxDP=2.18D-06 DE=-1.13D-09 OVMax= 2.57D-06

 Cycle   9  Pass 1  IDiag  1:
 E= -199.543037137830     Delta-E=       -0.000000000152 Rises=F Damp=F
 DIIS: error= 4.48D-07 at cycle   4 NSaved=   4.
 NSaved= 4 IEnMin= 4 EnMin= -199.543037137830     IErMin= 4 ErrMin= 4.48D-07
 ErrMax= 4.48D-07  0.00D+00 EMaxC= 1.00D-01 BMatC= 8.74D-12 BMatP= 2.83D-10
 IDIUse=1 WtCom= 1.00D+00 WtEn= 0.00D+00
 Coeff-Com: -0.150D-01 0.489D-01 0.197D+00 0.769D+00
 Coeff:     -0.150D-01 0.489D-01 0.197D+00 0.769D+00
 Gap=     0.451 Goal=   None    Shift=    0.000
 RMSDP=2.96D-08 MaxDP=4.75D-07 DE=-1.52D-10 OVMax= 7.49D-07

 Cycle  10  Pass 1  IDiag  1:
 E= -199.543037137836     Delta-E=       -0.000000000006 Rises=F Damp=F
 DIIS: error= 1.20D-07 at cycle   5 NSaved=   5.
 NSaved= 5 IEnMin= 5 EnMin= -199.543037137836     IErMin= 5 ErrMin= 1.20D-07
 ErrMax= 1.20D-07  0.00D+00 EMaxC= 1.00D-01 BMatC= 6.17D-13 BMatP= 8.74D-12
 IDIUse=1 WtCom= 1.00D+00 WtEn= 0.00D+00
 Coeff-Com:  0.169D-02-0.123D-01-0.588D-01 0.104D+00 0.965D+00
 Coeff:      0.169D-02-0.123D-01-0.588D-01 0.104D+00 0.965D+00
 Gap=     0.451 Goal=   None    Shift=    0.000
 RMSDP=1.12D-08 MaxDP=1.77D-07 DE=-5.57D-12 OVMax= 1.90D-07

 Cycle  11  Pass 1  IDiag  1:
 E= -199.543037137836     Delta-E=       -0.000000000001 Rises=F Damp=F
 DIIS: error= 8.93D-09 at cycle   6 NSaved=   6.
 NSaved= 6 IEnMin= 6 EnMin= -199.543037137836     IErMin= 6 ErrMin= 8.93D-09
 ErrMax= 8.93D-09  0.00D+00 EMaxC= 1.00D-01 BMatC= 1.48D-15 BMatP= 6.17D-13
 IDIUse=1 WtCom= 1.00D+00 WtEn= 0.00D+00
 Coeff-Com: -0.901D-04 0.920D-03 0.540D-02-0.115D-01-0.134D+00 0.114D+01
 Coeff:     -0.901D-04 0.920D-03 0.540D-02-0.115D-01-0.134D+00 0.114D+01
 Gap=     0.451 Goal=   None    Shift=    0.000
 RMSDP=1.06D-09 MaxDP=1.18D-08 DE=-7.39D-13 OVMax= 2.35D-08

 SCF Done:  E(RwB97XD) =  -199.543037138     A.U. after   11 cycles
            NFock= 11  Conv=0.11D-08     -V/T= 2.0030
 KE= 1.989386912685D+02 PE=-5.391688474887D+02 EE= 1.095451655767D+02
 Leave Link  502 at Sun Feb 27 06:39:28 2022, MaxMem=  8589934592 cpu:               7.7 elap:               1.1
 (Enter /home/rr/g16/l801.exe)
 DoSCS=F DFT=T ScalE2(SS,OS)=  1.000000  1.000000
 ExpMin= 5.96D-02 ExpMax= 3.55D+04 ExpMxC= 1.21D+03 IAcc=3 IRadAn=         5 AccDes= 0.00D+00
 HarFok:  IExCor=  205 AccDes= 0.00D+00 IRadAn=         5 IDoV=-2 UseB2=F ITyADJ=14
 ICtDFT= 12500011 ScaDFX=  1.000000  1.000000  1.000000  1.000000
 Largest valence mixing into a core orbital is  4.10D-05
 Largest core mixing into a valence orbital is  1.03D-05
 Range of M.O.s used for correlation:     3    80
 NBasis=    80 NAE=     9 NBE=     9 NFC=     2 NFV=     0
 NROrb=     78 NOA=     7 NOB=     7 NVA=    71 NVB=    71

 **** Warning!!: The largest alpha MO coefficient is  0.10975349D+02

 Leave Link  801 at Sun Feb 27 06:39:29 2022, MaxMem=  8589934592 cpu:               1.1 elap:               0.3
 (Enter /home/rr/g16/l914.exe)
 RHF ground state
 Keep R1, R2, and R3 ints in memory in symmetry-blocked form, NReq=367867564.
 FoFCou: FMM=F IPFlag=           0 FMFlag=           0 FMFlg1=           0
         NFxFlg=           0 DoJE=F BraDBF=F KetDBF=F FulRan=T
         wScrn=  0.000000 ICntrl=       600 IOpCl=  0 I1Cent=           0 NGrid=           0
         NMat0=    1 NMatS0=   3240 NMatT0=    0 NMatD0=    1 NMtDS0=    0 NMtDT0=    0
 Petite list used in FoFCou.
 MDV=  8589934592 DFT=T DoStab=F Mixed=T DoRPA=T DoScal=F NonHer=T
 Making orbital integer symmetry assigments:
 Orbital symmetries:
       Occupied  (SGG) (SGU) (SGG) (SGU) (SGG) (PIU) (PIU) (PIG)
                 (PIG)
       Virtual   (SGU) (SGU) (SGG) (PIU) (PIU) (PIG) (PIG) (SGG)
                 (SGU) (DLTG) (DLTG) (SGU) (SGG) (PIU) (PIU) (PIG)
                 (PIG) (DLTU) (DLTU) (PIU) (PIU) (SGG) (SGU) (PIG)
                 (PIG) (SGG) (SGU) (PIU) (PIU) (DLTG) (DLTG) (SGG)
                 (DLTU) (DLTU) (PIG) (PIG) (SGU) (PIU) (PIU) (SGG)
                 (PIG) (PIG) (SGG) (SGU) (SGU) (PIU) (PIU) (SGG)
                 (DLTG) (DLTG) (PHIU) (PHIU) (PHIG) (PHIG) (DLTU)
                 (DLTU) (PIG) (PIG) (SGU) (DLTG) (DLTG) (PIU) (PIU)
                 (DLTU) (DLTU) (SGG) (PIG) (PIG) (SGU) (SGG) (SGU)
   497 initial guesses have been made.
 Convergence on wavefunction:    0.001000000000000
 Davidson Disk Diagonalization:  ConvIn= 1.00D-03 SkipCon=T Conv= 1.00D-03.
 Max sub-space:  2982 roots to seek:   994 dimension of matrix:          994
 *** WARNING: Number of orthogonal guesses is          497
 Iteration     1 Dimension   497 NMult     0 NNew    497
 CISAX will form   497 AO SS matrices at one time.
 NMat=   497 NSing=   497 JSym2X=-1.
 New state      7 was old state      8
 New state      8 was old state      7
 New state      9 was old state     11
 New state     10 was old state     12
 New state     11 was old state     10
 New state     12 was old state     13
 New state     13 was old state     19
 New state     14 was old state     18
 New state     15 was old state     14
 New state     16 was old state     15
 New state     17 was old state     16
 New state     18 was old state     17
 New state     19 was old state      9
 New state     24 was old state     26
 New state     25 was old state     24
 New state     26 was old state     27
 New state     27 was old state     25
 New state     29 was old state     33
 New state     30 was old state     34
 New state     31 was old state     35
 New state     32 was old state     36
 New state     33 was old state     37
 New state     34 was old state     32
 New state     35 was old state     30
 New state     36 was old state     31
 New state     37 was old state     29
 New state     40 was old state     42
 New state     41 was old state     40
 New state     42 was old state     41
 New state     43 was old state     44
 New state     44 was old state     43
 New state     50 was old state     55
 New state     51 was old state     54
 New state     54 was old state     50
 New state     55 was old state     51
 New state     56 was old state     61
 New state     57 was old state     59
 New state     58 was old state     62
 New state     59 was old state     58
 New state     60 was old state     57
 New state     61 was old state     56
 New state     62 was old state     60
 New state     65 was old state     66
 New state     66 was old state     68
 New state     68 was old state     71
 New state     69 was old state     72
 New state     70 was old state     69
 New state     71 was old state     70
 New state     72 was old state     74
 New state     74 was old state     76
 New state     75 was old state     65
 New state     76 was old state     82
 New state     77 was old state     81
 New state     78 was old state     77
 New state     79 was old state     78
 New state     80 was old state     79
 New state     81 was old state     80
 New state     82 was old state     84
 New state     83 was old state     75
 New state     84 was old state     83
 New state     85 was old state     92
 New state     86 was old state     93
 New state     87 was old state     90
 New state     88 was old state     91
 New state     89 was old state     86
 New state     90 was old state     88
 New state     91 was old state     94
 New state     92 was old state     95
 New state     93 was old state     89
 New state     94 was old state     87
 New state     95 was old state     99
 New state     96 was old state    100
 New state     97 was old state    104
 New state     98 was old state    103
 New state     99 was old state    106
 New state    100 was old state     85
 New state    103 was old state    112
 New state    104 was old state    111
 New state    105 was old state     96
 New state    106 was old state    107
 New state    107 was old state    108
 New state    108 was old state     98
 New state    109 was old state     97
 New state    110 was old state    115
 New state    111 was old state    116
 New state    112 was old state    113
 New state    113 was old state    105
 New state    114 was old state    109
 New state    115 was old state    110
 New state    116 was old state    114
 New state    121 was old state    123
 New state    122 was old state    126
 New state    123 was old state    124
 New state    124 was old state    127
 New state    125 was old state    121
 New state    126 was old state    133
 New state    127 was old state    134
 New state    128 was old state    122
 New state    129 was old state    128
 New state    130 was old state    129
 New state    131 was old state    130
 New state    132 was old state    125
 New state    133 was old state    137
 New state    134 was old state    136
 New state    135 was old state    138
 New state    136 was old state    139
 New state    137 was old state    135
 New state    138 was old state    131
 New state    139 was old state    132
 New state    141 was old state    142
 New state    142 was old state    141
 New state    143 was old state    144
 New state    144 was old state    147
 New state    145 was old state    148
 New state    146 was old state    145
 New state    147 was old state    146
 New state    148 was old state    143
 New state    149 was old state    150
 New state    150 was old state    149
 New state    151 was old state    152
 New state    152 was old state    153
 New state    153 was old state    154
 New state    154 was old state    151
 New state    166 was old state    167
 New state    167 was old state    168
 New state    168 was old state    169
 New state    169 was old state    166
 New state    178 was old state    179
 New state    179 was old state    178
 New state    182 was old state    183
 New state    183 was old state    182
 New state    184 was old state    186
 New state    185 was old state    184
 New state    186 was old state    187
 New state    187 was old state    185
 New state    188 was old state    192
 New state    189 was old state    191
 New state    190 was old state    188
 New state    191 was old state    194
 New state    192 was old state    189
 New state    193 was old state    190
 New state    194 was old state    196
 New state    195 was old state    197
 New state    196 was old state    193
 New state    197 was old state    198
 New state    198 was old state    199
 New state    199 was old state    195
 New state    200 was old state    202
 New state    201 was old state    203
 New state    202 was old state    201
 New state    203 was old state    200
 New state    204 was old state    206
 New state    206 was old state    204
 New state    207 was old state    214
 New state    208 was old state    213
 New state    209 was old state    207
 New state    210 was old state    208
 New state    211 was old state    212
 New state    212 was old state    211
 New state    213 was old state    215
 New state    214 was old state    216
 New state    215 was old state    217
 New state    216 was old state    219
 New state    217 was old state    218
 New state    218 was old state    223
 New state    219 was old state    224
 New state    220 was old state    210
 New state    221 was old state    209
 New state    223 was old state    220
 New state    224 was old state    221
 New state    225 was old state    227
 New state    226 was old state    225
 New state    227 was old state    226
 New state    228 was old state    229
 New state    229 was old state    230
 New state    230 was old state    233
 New state    231 was old state    234
 New state    233 was old state    228
 New state    234 was old state    231
 New state    239 was old state    240
 New state    240 was old state    241
 New state    241 was old state    239
 New state    248 was old state    249
 New state    249 was old state    250
 New state    250 was old state    248
 New state    251 was old state    252
 New state    252 was old state    251
 New state    253 was old state    254
 New state    254 was old state    255
 New state    255 was old state    256
 New state    256 was old state    257
 New state    257 was old state    258
 New state    258 was old state    259
 New state    259 was old state    261
 New state    261 was old state    263
 New state    263 was old state    265
 New state    264 was old state    266
 New state    265 was old state    267
 New state    266 was old state    270
 New state    267 was old state    253
 New state    270 was old state    271
 New state    271 was old state    274
 New state    274 was old state    275
 New state    275 was old state    276
 New state    276 was old state    277
 New state    277 was old state    278
 New state    278 was old state    279
 New state    279 was old state    281
 New state    280 was old state    282
 New state    281 was old state    283
 New state    282 was old state    285
 New state    283 was old state    284
 New state    284 was old state    292
 New state    285 was old state    280
 New state    288 was old state    289
 New state    289 was old state    288
 New state    292 was old state    299
 New state    293 was old state    294
 New state    294 was old state    293
 No map to state    299
 New state    300 was old state    301
 New state    301 was old state    302
 New state    302 was old state    300
 New state    303 was old state    305
 New state    305 was old state    303
 New state    318 was old state    319
 New state    319 was old state    318
 New state    320 was old state    322
 New state    321 was old state    320
 New state    322 was old state    323
 New state    323 was old state    321
 New state    328 was old state    331
 New state    329 was old state    330
 New state    330 was old state    328
 New state    331 was old state    329
 New state    334 was old state    337
 New state    335 was old state    338
 New state    336 was old state    339
 New state    337 was old state    340
 New state    338 was old state    334
 New state    339 was old state    346
 New state    340 was old state    345
 New state    341 was old state    336
 New state    342 was old state    335
 New state    345 was old state    341
 New state    346 was old state    342
 New state    351 was old state    354
 New state    352 was old state    353
 New state    353 was old state    358
 New state    354 was old state    357
 New state    355 was old state    351
 New state    356 was old state    352
 New state    357 was old state    356
 New state    358 was old state    355
 New state    359 was old state    361
 New state    360 was old state    362
 New state    361 was old state    360
 New state    362 was old state    359
 New state    363 was old state    364
 New state    364 was old state    363
 New state    367 was old state    368
 New state    368 was old state    367
 New state    378 was old state    379
 New state    379 was old state    378
 New state    382 was old state    383
 New state    383 was old state    382
 New state    385 was old state    387
 New state    386 was old state    388
 New state    387 was old state    386
 New state    388 was old state    390
 New state    390 was old state    385
 New state    393 was old state    394
 New state    394 was old state    393
 New state    395 was old state    396
 New state    396 was old state    395
 New state    401 was old state    402
 New state    402 was old state    401
 New state    410 was old state    411
 New state    411 was old state    410
 New state    412 was old state    415
 New state    413 was old state    417
 New state    414 was old state    416
 New state    415 was old state    418
 New state    416 was old state    419
 New state    417 was old state    420
 New state    418 was old state    421
 New state    419 was old state    413
 New state    420 was old state    412
 New state    421 was old state    414
 New state    422 was old state    429
 New state    423 was old state    428
 New state    424 was old state    430
 New state    425 was old state    435
 New state    426 was old state    434
 New state    427 was old state    432
 New state    428 was old state    433
 New state    429 was old state    425
 New state    430 was old state    424
 New state    431 was old state    427
 New state    432 was old state    426
 New state    433 was old state    431
 New state    434 was old state    436
 New state    435 was old state    437
 New state    436 was old state    440
 New state    437 was old state    441
 New state    438 was old state    442
 New state    439 was old state    423
 New state    440 was old state    422
 New state    441 was old state    438
 New state    442 was old state    439
 New state    443 was old state    444
 New state    444 was old state    443
 New state    445 was old state    446
 New state    446 was old state    445
 New state    448 was old state    449
 New state    449 was old state    448
 New state    450 was old state    451
 New state    451 was old state    450
 New state    452 was old state    453
 New state    453 was old state    452
 New state    455 was old state    459
 New state    456 was old state    460
 New state    457 was old state    456
 New state    458 was old state    457
 New state    459 was old state    455
 New state    460 was old state    458
 New state    465 was old state    468
 New state    466 was old state    467
 New state    467 was old state    465
 New state    468 was old state    466
 New state    472 was old state    473
 New state    473 was old state    472
 New state    479 was old state    480
 New state    480 was old state    479
 New state    486 was old state    487
 New state    487 was old state    486
 Excitation Energies [eV] at current iteration:
 Root      1 :     4.919998806785308
 Root      2 :     4.919998806786444
 Root      3 :     8.844367425914033
 Root      4 :     8.844367425914852
 Root      5 :    12.393974311297410
 Root      6 :    12.393974311297420
 Root      7 :    12.500009549113280
 Root      8 :    12.500009549113400
 Root      9 :    12.711004933962820
 Root     10 :    12.930825398171580
 Root     11 :    12.930835810795500
 Root     12 :    12.974001644789930
 Root     13 :    14.409912924485400
 Root     14 :    14.409912924485400
 Root     15 :    14.520099752542160
 Root     16 :    14.520107831756180
 Root     17 :    14.551625004547580
 Root     18 :    14.841015217763980
 Root     19 :    15.259938923676110
 Root     20 :    16.462630823535540
 Root     21 :    16.462630823535660
 Root     22 :    16.488555520625700
 Root     23 :    16.488555520625830
 Root     24 :    16.866600400799920
 Root     25 :    16.866600923039120
 Root     26 :    16.937061809077330
 Root     27 :    17.182262632005410
 Root     28 :    18.197337520065200
 Root     29 :    18.248895400668610
 Root     30 :    18.356881623148350
 Root     31 :    18.356881623148430
 Root     32 :    18.458639987086670
 Root     33 :    18.458639987086700
 Root     34 :    18.489325432471890
 Root     35 :    18.489327699024370
 Root     36 :    18.522079820588120
 Root     37 :    18.747403739615200
 Root     38 :    19.082610836128880
 Root     39 :    19.082610836129150
 Root     40 :    19.986511476692030
 Root     41 :    20.034605740781330
 Root     42 :    20.034605740781370
 Root     43 :    21.237892897700500
 Root     44 :    21.237892897700700
 Root     45 :    21.541719643015820
 Root     46 :    21.541719643015840
 Root     47 :    22.896754291547810
 Root     48 :    22.896754291548100
 Root     49 :    24.604521104800980
 Root     50 :    24.735638077860850
 Root     51 :    24.735638077860910
 Root     52 :    25.258560341757190
 Root     53 :    25.258560341757270
 Root     54 :    25.260154696642310
 Root     55 :    25.260154696642350
 Root     56 :    25.366260559792890
 Root     57 :    25.366341159958080
 Root     58 :    25.608571573056900
 Root     59 :    25.644600233757300
 Root     60 :    25.671987215575600
 Root     61 :    25.671987215575650
 Root     62 :    26.148804977239610
 Root     63 :    26.357158132073640
 Root     64 :    26.357192385111650
 Root     65 :    26.649846273534830
 Root     66 :    26.912467254264050
 Root     67 :    26.912467254264080
 Root     68 :    26.996542139212600
 Root     69 :    26.996545330930860
 Root     70 :    27.121082585502820
 Root     71 :    27.121082585502910
 Root     72 :    27.405541749850860
 Root     73 :    27.405611731211310
 Root     74 :    27.568724695666840
 Root     75 :    27.775001675199300
 Root     76 :    29.228989077477390
 Root     77 :    29.229034551264640
 Root     78 :    29.306609775781500
 Root     79 :    29.306609775781770
 Root     80 :    29.346585427929280
 Root     81 :    29.346585427929330
 Root     82 :    29.557972842590120
 Root     83 :    29.609848207838420
 Root     84 :    29.801671451161360
 Root     85 :    30.603073611946910
 Root     86 :    30.603073611946940
 Root     87 :    30.626197276951810
 Root     88 :    30.704787697020310
 Root     89 :    30.790690469037050
 Root     90 :    30.790692923078770
 Root     91 :    30.848969712290420
 Root     92 :    30.848969712290460
 Root     93 :    30.872347270275780
 Root     94 :    31.173774857485010
 Root     95 :    31.210856558479250
 Root     96 :    31.210856558479450
 Root     97 :    31.525259214978130
 Root     98 :    31.525353380061240
 Root     99 :    31.701505351087760
 Root    100 :    31.793942473281100
 Root    101 :    31.862170897880670
 Root    102 :    31.862170897880770
 Root    103 :    32.008530202037550
 Root    104 :    32.008530202037580
 Root    105 :    32.113372536935840
 Root    106 :    32.339714892777480
 Root    107 :    32.339786257830200
 Root    108 :    32.440436139222750
 Root    109 :    32.440436139222860
 Root    110 :    33.088839970743970
 Root    111 :    33.088839970744400
 Root    112 :    33.660183572678750
 Root    113 :    33.692269879213090
 Root    114 :    33.846296931005240
 Root    115 :    33.846296931005340
 Root    116 :    35.358704383245270
 Root    117 :    35.594873548571920
 Root    118 :    35.594873548572190
 Root    119 :    36.972390356687420
 Root    120 :    36.972390356687540
 Root    121 :    37.625089291881060
 Root    122 :    37.833815651799340
 Root    123 :    37.833860151763880
 Root    124 :    38.039110100099150
 Root    125 :    38.246216397138100
 Root    126 :    39.015535851518610
 Root    127 :    39.015535851518730
 Root    128 :    39.036648201560300
 Root    129 :    39.042809048783680
 Root    130 :    39.505169982236120
 Root    131 :    39.505169982236130
 Root    132 :    39.879995524470570
 Root    133 :    40.592571507571620
 Root    134 :    40.592571507571700
 Root    135 :    40.705022386842220
 Root    136 :    40.705088311718210
 Root    137 :    41.088872873050820
 Root    138 :    41.096282185551400
 Root    139 :    41.096282185551420
 Root    140 :    41.407620948750750
 Root    141 :    41.595694338862000
 Root    142 :    41.595892492294230
 Root    143 :    41.919206843279820
 Root    144 :    43.031734159525870
 Root    145 :    43.031734159526030
 Root    146 :    43.387088572633330
 Root    147 :    43.387088572634780
 Root    148 :    43.557040635027470
 Root    149 :    44.514722371770430
 Root    150 :    44.597132521031360
 Root    151 :    44.899752368358420
 Root    152 :    44.899752368358640
 Root    153 :    45.429894065362150
 Root    154 :    45.717665981528480
 Root    155 :    46.003656671542880
 Root    156 :    46.003656671543200
 Root    157 :    46.072567436821070
 Root    158 :    46.072630651103990
 Root    159 :    47.195055718879540
 Root    160 :    47.195055718879700
 Root    161 :    47.999845405330500
 Root    162 :    47.999860269060210
 Root    163 :    49.724646505911600
 Root    164 :    49.724646505912010
 Root    165 :    51.841409074942640
 Root    166 :    52.078398624406200
 Root    167 :    52.103259861118080
 Root    168 :    52.103259861118080
 Root    169 :    52.403682223376000
 Root    170 :    53.386169796563540
 Root    171 :    53.386169796563660
 Root    172 :    53.388916859387510
 Root    173 :    53.388974192435290
 Root    174 :    53.461919023911230
 Root    175 :    53.461919023911300
 Root    176 :    54.367698842839990
 Root    177 :    54.367698842841220
 Root    178 :    55.296866257543340
 Root    179 :    56.230072038251160
 Root    180 :    57.285942151593150
 Root    181 :    57.285942151594930
 Root    182 :    58.656305560162380
 Root    183 :    59.105446341659810
 Root    184 :    59.524590165255740
 Root    185 :    59.524622348059060
 Root    186 :    59.667801161550180
 Root    187 :    62.059015698316120
 Root    188 :    63.344008015767360
 Root    189 :    63.344015286387120
 Root    190 :    63.450470631938390
 Root    191 :    63.529089864140080
 Root    192 :    64.412183638298640
 Root    193 :    64.412183638299280
 Root    194 :    65.615692891628140
 Root    195 :    65.615692891628190
 Root    196 :    65.642677697530600
 Root    197 :    65.770104741232900
 Root    198 :    65.770104741232930
 Root    199 :    65.985727158876140
 Root    200 :    66.427077784143170
 Root    201 :    66.427077784143350
 Root    202 :    68.512219299314720
 Root    203 :    68.512219299314780
 Root    204 :    68.965598836243020
 Root    205 :    68.965598836243120
 Root    206 :    69.302820401080610
 Root    207 :    70.457744275870520
 Root    208 :    70.457744275870620
 Root    209 :    71.273702448879970
 Root    210 :    71.273702448880060
 Root    211 :    71.325357063493680
 Root    212 :    71.325357063493810
 Root    213 :    71.486431907939990
 Root    214 :    71.486576469026360
 Root    215 :    73.897501315774750
 Root    216 :    74.546315959430230
 Root    217 :    74.546315959430390
 Root    218 :    76.027425980329300
 Root    219 :    76.027530540472040
 Root    220 :    76.156393518698690
 Root    221 :    76.156393518698810
 Root    222 :    76.386219483626140
 Root    223 :    76.411100806873190
 Root    224 :    76.411100806873210
 Root    225 :    77.934082373360040
 Root    226 :    77.934103511257080
 Root    227 :    78.046475225397470
 Root    228 :    79.486084414770050
 Root    229 :    79.486084414770430
 Root    230 :    81.820715604635860
 Root    231 :    81.820716345751440
 Root    232 :    81.952155323589410
 Root    233 :    82.209656434998880
 Root    234 :    83.526569128797450
 Root    235 :    84.805014439096420
 Root    236 :    84.805014439096420
 Root    237 :    85.789421907847260
 Root    238 :    85.789602058284300
 Root    239 :    86.947012749845970
 Root    240 :    86.947012749846020
 Root    241 :    87.011543175142110
 Root    242 :    89.887294909600940
 Root    243 :    89.887294909601170
 Root    244 :    90.444300426564980
 Root    245 :    90.444447023971730
 Root    246 :    92.938245673530150
 Root    247 :    92.938417417464630
 Root    248 :    93.385671949558260
 Root    249 :    93.385671949558300
 Root    250 :    94.005141153260180
 Root    251 :    94.069935507474840
 Root    252 :    94.070071936664490
 Root    253 :    94.321866738312690
 Root    254 :    95.266694527208570
 Root    255 :    96.461794965970310
 Root    256 :    96.461794965970340
 Root    257 :    97.438674898412370
 Root    258 :    97.438799491208510
 Root    259 :    97.762442721719300
 Root    260 :    97.762442721719480
 Root    261 :    97.795875288357540
 Root    262 :    97.795997325076230
 Root    263 :    98.109394357488710
 Root    264 :    99.784651672917120
 Root    265 :    99.784651672917260
 Root    266 :    99.896888127014380
 Root    267 :    99.989775171625180
 Root    268 :   100.069327259654100
 Root    269 :   100.069327259654200
 Root    270 :   102.709112272100200
 Root    271 :   104.074950663274200
 Root    272 :   104.075026473418400
 Root    273 :   104.224315620723500
 Root    274 :   104.820193590659900
 Root    275 :   104.820193590660100
 Root    276 :   107.757395708922700
 Root    277 :   107.757487266858700
 Root    278 :   108.006117137555400
 Root    279 :   109.101708145799400
 Root    280 :   109.248572780906800
 Root    281 :   109.248572780908000
 Root    282 :   110.593191060603800
 Root    283 :   110.593191060604000
 Root    284 :   111.080682629052800
 Root    285 :   111.604649022319400
 Root    286 :   113.835702424389500
 Root    287 :   113.835702424389800
 Root    288 :   114.103070827875900
 Root    289 :   114.103070827876000
 Root    290 :   115.105315177634000
 Root    291 :   116.911552086803400
 Root    292 :   117.006844961627600
 Root    293 :   118.199739737105400
 Root    294 :   118.199739737105600
 Root    295 :   120.604887683385000
 Root    296 :   120.604887683385400
 Root    297 :   121.757143488545300
 Root    298 :   121.757143488545600
 Root    299 :   123.096477737539800
 Root    300 :   123.758728791655900
 Root    301 :   123.758728791657000
 Root    302 :   124.865199424214800
 Root    303 :   130.335837664026800
 Root    304 :   130.335837664026900
 Root    305 :   132.174307327258800
 Root    306 :   138.242166383187400
 Root    307 :   138.644888463597900
 Root    308 :   141.973478714216000
 Root    309 :   141.973478714216300
 Root    310 :   144.662534534276500
 Root    311 :   145.689703595721000
 Root    312 :   145.689703595721400
 Root    313 :   147.651816614210600
 Root    314 :   161.825376372108500
 Root    315 :   168.575092480796500
 Root    316 :   180.994271597412900
 Root    317 :   180.994275980273400
 Root    318 :   181.359702700318600
 Root    319 :   182.053950050209000
 Root    320 :   184.881781947946600
 Root    321 :   184.881898461043100
 Root    322 :   185.284343669221800
 Root    323 :   185.818009830938200
 Root    324 :   186.026064953029500
 Root    325 :   186.026064953030000
 Root    326 :   186.628136556579800
 Root    327 :   186.628136556579800
 Root    328 :   187.224478782912800
 Root    329 :   187.224478782912900
 Root    330 :   188.650593802928900
 Root    331 :   188.650593802929200
 Root    332 :   190.024835221636000
 Root    333 :   190.024835221636200
 Root    334 :   190.846047938082600
 Root    335 :   190.846047938082700
 Root    336 :   191.744629912616200
 Root    337 :   191.744656553772500
 Root    338 :   191.931541931167500
 Root    339 :   192.409659027553600
 Root    340 :   192.409690378930800
 Root    341 :   192.979216602070800
 Root    342 :   192.979216602071400
 Root    343 :   193.143441480074600
 Root    344 :   193.143504464753200
 Root    345 :   194.248121682211200
 Root    346 :   194.248143061014200
 Root    347 :   195.678412157653600
 Root    348 :   195.678412571643600
 Root    349 :   197.553563229412400
 Root    350 :   197.553572437067400
 Root    351 :   197.561724260722700
 Root    352 :   197.561724260723100
 Root    353 :   198.212902169970900
 Root    354 :   198.212910715551400
 Root    355 :   198.381936627797400
 Root    356 :   198.381955497820600
 Root    357 :   198.443407807466700
 Root    358 :   198.443407807466700
 Root    359 :   198.523904962215300
 Root    360 :   198.523904962215900
 Root    361 :   199.060044333963300
 Root    362 :   199.060055534418800
 Root    363 :   199.377313533922400
 Root    364 :   199.377313533922900
 Root    365 :   200.382590415739700
 Root    366 :   200.382590415739800
 Root    367 :   201.252642770831800
 Root    368 :   201.252642770832000
 Root    369 :   202.144581398547000
 Root    370 :   202.144581398547000
 Root    371 :   202.961968718226500
 Root    372 :   202.961971199483900
 Root    373 :   205.140571720289900
 Root    374 :   207.193491495535800
 Root    375 :   207.193493359986500
 Root    376 :   207.589288230183700
 Root    377 :   207.589288230183900
 Root    378 :   208.667490657071900
 Root    379 :   208.667503007480400
 Root    380 :   208.973864353727900
 Root    381 :   209.949111502910200
 Root    382 :   212.213509981543000
 Root    383 :   212.213509981543400
 Root    384 :   212.498935705716900
 Root    385 :   212.527857777762600
 Root    386 :   212.527868191438300
 Root    387 :   212.865318062163700
 Root    388 :   213.122899655990300
 Root    389 :   213.122899655990400
 Root    390 :   213.515145550531600
 Root    391 :   213.742256462983600
 Root    392 :   213.742319269576600
 Root    393 :   214.314990271557600
 Root    394 :   214.314990271558100
 Root    395 :   217.287309835745900
 Root    396 :   217.287318474001900
 Root    397 :   219.734202580876700
 Root    398 :   219.734202580876800
 Root    399 :   220.622593956151400
 Root    400 :   220.622593956151600
 Root    401 :   223.234021403191700
 Root    402 :   223.234021403192100
 Root    403 :   223.809614843382300
 Root    404 :   223.809617681947900
 Root    405 :   227.088068896529200
 Root    406 :   227.088068896529300
 Root    407 :   228.111147189543400
 Root    408 :   228.111147189543600
 Root    409 :   228.692391548316200
 Root    410 :   232.879211725159600
 Root    411 :   232.879211725160100
 Root    412 :   233.445237653790900
 Root    413 :   233.445240347147600
 Root    414 :   233.826391139359600
 Root    415 :   235.019546634921900
 Root    416 :   235.019546634922400
 Root    417 :   235.072517115319800
 Root    418 :   235.072517115320600
 Root    419 :   236.571557172798600
 Root    420 :   236.571557172798800
 Root    421 :   236.778877035999600
 Root    422 :   237.270963163155400
 Root    423 :   237.270972865947500
 Root    424 :   237.709159874738600
 Root    425 :   237.983070612998900
 Root    426 :   237.983070612998900
 Root    427 :   239.178550470198000
 Root    428 :   239.178632067483200
 Root    429 :   239.332350333921500
 Root    430 :   239.332350333921600
 Root    431 :   239.347532677267800
 Root    432 :   239.347532677267900
 Root    433 :   239.833403474247400
 Root    434 :   241.535670245210500
 Root    435 :   241.535670245210700
 Root    436 :   242.531341265033400
 Root    437 :   242.715928589742200
 Root    438 :   242.716019862813700
 Root    439 :   243.030809139061200
 Root    440 :   243.030809139061300
 Root    441 :   243.380672688860800
 Root    442 :   243.380672688861000
 Root    443 :   247.872109287908600
 Root    444 :   247.872109287908800
 Root    445 :   249.043922628180000
 Root    446 :   249.043931632169500
 Root    447 :   249.372775391314600
 Root    448 :   249.572106209037700
 Root    449 :   250.020928350852700
 Root    450 :   251.955736113064500
 Root    451 :   251.955736113064600
 Root    452 :   252.904257112910700
 Root    453 :   252.904269735211700
 Root    454 :   253.281121291013600
 Root    455 :   253.480012340540900
 Root    456 :   253.480012340541800
 Root    457 :   253.508101911338500
 Root    458 :   253.508202231429200
 Root    459 :   254.516041525773300
 Root    460 :   255.184121642942800
 Root    461 :   255.688304034601900
 Root    462 :   255.688304034602200
 Root    463 :   256.788643083017800
 Root    464 :   256.788753806957700
 Root    465 :   260.336721713295400
 Root    466 :   260.336721713295400
 Root    467 :   260.888896655789300
 Root    468 :   260.888985862336200
 Root    469 :   264.185780164171300
 Root    470 :   264.185882035013400
 Root    471 :   267.110751986366500
 Root    472 :   268.776816215948200
 Root    473 :   268.776816215949100
 Root    474 :   273.812162499896000
 Root    475 :   275.496966446396100
 Root    476 :   275.496966446397800
 Root    477 :   282.310803727170700
 Root    478 :   282.310803727170800
 Root    479 :   286.175870952882700
 Root    480 :   286.175870952883700
 Root    481 :   287.797742427661000
 Root    482 :   301.548719762680800
 Root    483 :   308.100910375149100
 Root    484 :  1545.716324607258000
 Root    485 :  1545.716324607267000
 Root    486 :  1549.740698602817000
 Root    487 :  1549.740698602823000
 Root    488 :  1551.417203436812000
 Root    489 :  1566.920714007905000
 Root    490 :  1573.770923623257000
 Root    491 :  1574.010826520337000
 Root    492 :  1574.010826520340000
 Root    493 :  1578.043638222454000
 Root    494 :  1578.043638222457000
 Root    495 :  1579.282538680683000
 Root    496 :  1594.787903779913000
 Root    497 :  1601.571951042551000
 Convergence achieved for final wavefunctions.
 ***********************************************************************
 Excited states from <AA,BB:AA,BB> singles matrix:
 ***********************************************************************
 
 1PDM for each excited state written to RWF  633
 Ground to excited state transition densities written to RWF  633
 Ground to excited state transition electric dipole moments (Au):
       state          X           Y           Z        Dip. S.      Osc.
         1        -0.0223     -0.0197     -0.0000      0.0009      0.0001
         2         0.0197     -0.0223     -0.0000      0.0009      0.0001
         3         0.0000     -0.0000      0.0000      0.0000      0.0000
         4         0.0000      0.0000      0.0000      0.0000      0.0000
         5         0.2196      0.1615      0.0000      0.0743      0.0226
         6        -0.1615      0.2196      0.0000      0.0743      0.0226
         7         0.0000     -0.0000      0.0000      0.0000      0.0000
         8        -0.0000      0.0000      0.0000      0.0000      0.0000
         9        -0.0000      0.0000     -0.8003      0.6405      0.1995
        10        -0.0000      0.0000      0.0000      0.0000      0.0000
        11        -0.0000     -0.0000      0.0000      0.0000      0.0000
        12        -0.0000     -0.0000     -0.0000      0.0000      0.0000
        13         0.0000      0.0000     -0.0000      0.0000      0.0000
        14         0.0000      0.0000     -0.0000      0.0000      0.0000
        15        -0.0000     -0.0000      0.0000      0.0000      0.0000
        16        -0.0000     -0.0000      0.0000      0.0000      0.0000
        17         0.0000      0.0000     -0.0000      0.0000      0.0000
        18        -0.0000     -0.0000      0.0000      0.0000      0.0000
        19         0.0000     -0.0000     -1.1495      1.3215      0.4940
        20        -0.0000     -0.0000      0.0000      0.0000      0.0000
        21        -0.0000     -0.0000     -0.0000      0.0000      0.0000
        22        -0.5286      0.1121      0.0000      0.2920      0.1180
        23        -0.1121     -0.5286     -0.0000      0.2920      0.1180
        24        -0.0000     -0.0000     -0.0000      0.0000      0.0000
        25        -0.0000     -0.0000      0.0000      0.0000      0.0000
        26        -0.0000     -0.0000      0.0000      0.0000      0.0000
        27        -0.0000     -0.0000      0.0000      0.0000      0.0000
        28         0.0000      0.0000     -0.1811      0.0328      0.0146
        29         0.0000      0.0000     -0.0000      0.0000      0.0000
        30         0.3241      0.0992     -0.0000      0.1149      0.0517
        31        -0.0992      0.3241      0.0000      0.1149      0.0517
        32         0.0612     -0.1531      0.0000      0.0272      0.0123
        33        -0.1531     -0.0612      0.0000      0.0272      0.0123
        34        -0.0000     -0.0000     -0.0000      0.0000      0.0000
        35         0.0000     -0.0000      0.0000      0.0000      0.0000
        36         0.0000      0.0000     -0.0000      0.0000      0.0000
        37        -0.0000      0.0000     -0.0018      0.0000      0.0000
        38        -0.2044     -0.1601      0.0000      0.0674      0.0315
        39         0.1601     -0.2044     -0.0000      0.0674      0.0315
        40        -0.0000      0.0000     -0.0000      0.0000      0.0000
        41         0.0000     -0.0000     -0.0000      0.0000      0.0000
        42         0.0000      0.0000      0.0000      0.0000      0.0000
        43         0.0000     -0.0000     -0.0000      0.0000      0.0000
        44        -0.0000     -0.0000     -0.0000      0.0000      0.0000
        45         0.0000      0.0000      0.0000      0.0000      0.0000
        46        -0.0000     -0.0000      0.0000      0.0000      0.0000
        47         0.0000     -0.0000     -0.0000      0.0000      0.0000
        48        -0.0000     -0.0000     -0.0000      0.0000      0.0000
        49        -0.0000     -0.0000     -0.4708      0.2217      0.1336
        50        -0.0000      0.0001      0.0000      0.0000      0.0000
        51        -0.0001     -0.0000     -0.0000      0.0000      0.0000
        52        -0.0000      0.0000     -0.0000      0.0000      0.0000
        53        -0.0000     -0.0000      0.0000      0.0000      0.0000
        54         0.1887     -0.1388     -0.0000      0.0549      0.0340
        55         0.1388      0.1887      0.0000      0.0549      0.0340
        56         0.0000      0.0000      0.0000      0.0000      0.0000
        57         0.0000      0.0000      0.0000      0.0000      0.0000
        58         0.0000      0.0000      0.0000      0.0000      0.0000
        59        -0.0000      0.0000     -0.0000      0.0000      0.0000
        60        -0.8213      0.3867      0.0000      0.8240      0.5183
        61        -0.3867     -0.8213     -0.0000      0.8240      0.5183
        62        -0.0000      0.0000     -1.0974      1.2042      0.7714
        63         0.0000      0.0000     -0.0000      0.0000      0.0000
        64         0.0000      0.0000      0.0000      0.0000      0.0000
        65         0.0000      0.0000     -0.0000      0.0000      0.0000
        66        -0.0001      0.0000      0.0000      0.0000      0.0000
        67        -0.0000     -0.0001     -0.0000      0.0000      0.0000
        68        -0.0000     -0.0000     -0.0000      0.0000      0.0000
        69        -0.0000     -0.0000      0.0000      0.0000      0.0000
        70        -0.5070      0.2518      0.0000      0.3205      0.2130
        71         0.2518      0.5070     -0.0000      0.3205      0.2130
        72         0.0000     -0.0000      0.0000      0.0000      0.0000
        73         0.0000      0.0000     -0.0000      0.0000      0.0000
        74         0.0000      0.0000      0.0000      0.0000      0.0000
        75        -0.0000     -0.0000      0.0000      0.0000      0.0000
        76         0.0000     -0.0000     -0.0000      0.0000      0.0000
        77        -0.0000      0.0000     -0.0000      0.0000      0.0000
        78        -0.0000     -0.0000      0.0000      0.0000      0.0000
        79        -0.0000     -0.0000      0.0000      0.0000      0.0000
        80        -0.1755      0.0647      0.0000      0.0350      0.0252
        81        -0.0647     -0.1755     -0.0000      0.0350      0.0252
        82        -0.0000     -0.0000     -0.0000      0.0000      0.0000
        83        -0.0000     -0.0000      0.4705      0.2213      0.1606
        84        -0.0000      0.0000      0.0000      0.0000      0.0000
        85        -0.0000     -0.0000      0.0000      0.0000      0.0000
        86         0.0000      0.0000      0.0000      0.0000      0.0000
        87        -0.0000     -0.0000     -0.1069      0.0114      0.0086
        88         0.0000      0.0000     -0.0000      0.0000      0.0000
        89         0.0000     -0.0000      0.0000      0.0000      0.0000
        90        -0.0000      0.0000      0.0000      0.0000      0.0000
        91         0.0000      0.0000     -0.0000      0.0000      0.0000
        92         0.0000      0.0000      0.0000      0.0000      0.0000
        93         0.0000     -0.0000     -0.0000      0.0000      0.0000
        94         0.0000      0.0000     -0.1824      0.0333      0.0254
        95        -0.2061     -0.5452      0.0000      0.3397      0.2598
        96        -0.5452      0.2061      0.0000      0.3397      0.2598
        97        -0.0000     -0.0000      0.0000      0.0000      0.0000
        98        -0.0000     -0.0000      0.0000      0.0000      0.0000
        99        -0.0000     -0.0000     -0.0000      0.0000      0.0000
       100         0.0000      0.0000     -0.0000      0.0000      0.0000
       101         0.0000      0.0000     -0.0000      0.0000      0.0000
       102        -0.0000      0.0000      0.0000      0.0000      0.0000
       103         0.0000      0.0000      0.0000      0.0000      0.0000
       104        -0.0000     -0.0000      0.0000      0.0000      0.0000
       105         0.0000      0.0000      0.0664      0.0044      0.0035
       106         0.0000      0.0000      0.0000      0.0000      0.0000
       107         0.0000     -0.0000     -0.0000      0.0000      0.0000
       108        -0.0000     -0.0000      0.0000      0.0000      0.0000
       109         0.0000      0.0000     -0.0000      0.0000      0.0000
       110         0.0340     -0.1317     -0.0000      0.0185      0.0150
       111        -0.1317     -0.0340     -0.0000      0.0185      0.0150
       112         0.0000      0.0000     -0.0293      0.0009      0.0007
       113        -0.0000     -0.0000      0.0000      0.0000      0.0000
       114         0.0320     -0.0274      0.0000      0.0018      0.0015
       115         0.0274      0.0320      0.0000      0.0018      0.0015
       116         0.0000     -0.0000      0.1451      0.0211      0.0182
       117        -0.3232      0.0310     -0.0000      0.1054      0.0919
       118        -0.0310     -0.3232     -0.0000      0.1054      0.0919
       119        -0.0640      0.0125      0.0000      0.0042      0.0038
       120        -0.0125     -0.0640     -0.0000      0.0042      0.0038
       121        -0.0000     -0.0000     -0.0000      0.0000      0.0000
       122         0.0000     -0.0000      0.0000      0.0000      0.0000
       123         0.0000     -0.0000      0.0000      0.0000      0.0000
       124         0.0000      0.0000     -0.0000      0.0000      0.0000
       125        -0.0000     -0.0000     -0.0000      0.0000      0.0000
       126         0.0000     -0.0000      0.0000      0.0000      0.0000
       127         0.0000      0.0000     -0.0000      0.0000      0.0000
       128        -0.0000     -0.0000      0.0371      0.0014      0.0013
       129         0.0000     -0.0000     -0.0000      0.0000      0.0000
       130         0.0169     -0.0345     -0.0000      0.0015      0.0014
       131        -0.0345     -0.0169      0.0000      0.0015      0.0014
       132         0.0000      0.0000      0.0000      0.0000      0.0000
       133        -0.0000     -0.0000      0.0000      0.0000      0.0000
       134        -0.0000     -0.0000     -0.0000      0.0000      0.0000
       135         0.0000     -0.0000      0.0000      0.0000      0.0000
       136         0.0000      0.0000      0.0000      0.0000      0.0000
       137         0.0000      0.0000      0.0000      0.0000      0.0000
       138        -0.0000     -0.0000      0.0000      0.0000      0.0000
       139        -0.0000     -0.0000      0.0000      0.0000      0.0000
       140         0.0000      0.0000      0.1547      0.0239      0.0243
       141         0.0000     -0.0000      0.0000      0.0000      0.0000
       142        -0.0000     -0.0000      0.0000      0.0000      0.0000
       143         0.0000      0.0000      0.0000      0.0000      0.0000
       144         0.0625     -0.0613      0.0000      0.0077      0.0081
       145         0.0613      0.0625      0.0000      0.0077      0.0081
       146        -0.0000      0.0000      0.0000      0.0000      0.0000
       147         0.0000     -0.0000      0.0000      0.0000      0.0000
       148         0.0000      0.0000      0.1360      0.0185      0.0197
       149         0.0000      0.0000      0.1741      0.0303      0.0330
       150        -0.0000      0.0000     -0.0000      0.0000      0.0000
       151         0.0000     -0.0000      0.0000      0.0000      0.0000
       152         0.0000      0.0000     -0.0000      0.0000      0.0000
       153        -0.0000     -0.0000      0.0000      0.0000      0.0000
       154         0.0000      0.0000     -0.0400      0.0016      0.0018
       155         0.0371     -0.1637      0.0000      0.0282      0.0318
       156        -0.1637     -0.0371      0.0000      0.0282      0.0318
       157         0.0000     -0.0000      0.0000      0.0000      0.0000
       158        -0.0000      0.0000     -0.0000      0.0000      0.0000
       159        -0.0000     -0.0000      0.0000      0.0000      0.0000
       160        -0.0000     -0.0000     -0.0000      0.0000      0.0000
       161         0.0000      0.0000      0.0000      0.0000      0.0000
       162        -0.0000     -0.0000     -0.0000      0.0000      0.0000
       163        -0.2941     -0.0210      0.0000      0.0869      0.1059
       164         0.0210     -0.2941     -0.0000      0.0869      0.1059
       165         0.0000      0.0000     -0.0796      0.0063      0.0081
       166        -0.0000     -0.0000      0.0000      0.0000      0.0000
       167        -0.0766      0.1114      0.0000      0.0183      0.0233
       168         0.1114      0.0766      0.0000      0.0183      0.0233
       169        -0.0000     -0.0000     -0.0816      0.0067      0.0086
       170        -0.0000      0.0000      0.0000      0.0000      0.0000
       171        -0.0000     -0.0000     -0.0000      0.0000      0.0000
       172         0.0000      0.0000      0.0000      0.0000      0.0000
       173        -0.0000      0.0000     -0.0000      0.0000      0.0000
       174         0.0000      0.0000     -0.0000      0.0000      0.0000
       175        -0.0000     -0.0000      0.0000      0.0000      0.0000
       176        -0.0334     -0.2083      0.0000      0.0445      0.0593
       177        -0.2083      0.0334     -0.0000      0.0445      0.0593
       178         0.0000     -0.0000      0.1230      0.0151      0.0205
       179        -0.0000     -0.0000     -0.0000      0.0000      0.0000
       180        -0.0386     -0.1730      0.0000      0.0314      0.0441
       181        -0.1730      0.0386     -0.0000      0.0314      0.0441
       182        -0.0000     -0.0000     -0.2045      0.0418      0.0601
       183         0.0000     -0.0000     -0.0000      0.0000      0.0000
       184         0.0000     -0.0000      0.0000      0.0000      0.0000
       185         0.0000      0.0000     -0.0000      0.0000      0.0000
       186         0.0000     -0.0000     -0.0000      0.0000      0.0000
       187         0.0000     -0.0000     -0.7955      0.6328      0.9621
       188        -0.0000      0.0000      0.0000      0.0000      0.0000
       189         0.0000     -0.0000      0.0000      0.0000      0.0000
       190         0.0000      0.0000     -0.2666      0.0711      0.1105
       191        -0.0000     -0.0000      0.0000      0.0000      0.0000
       192        -0.0000      0.0000     -0.0000      0.0000      0.0000
       193        -0.0000     -0.0000     -0.0000      0.0000      0.0000
       194        -0.0981     -0.1182     -0.0000      0.0236      0.0379
       195        -0.1182      0.0981      0.0000      0.0236      0.0379
       196        -0.0000      0.0000      0.0000      0.0000      0.0000
       197         0.0000      0.0000     -0.0000      0.0000      0.0000
       198         0.0000      0.0000      0.0000      0.0000      0.0000
       199         0.0000     -0.0000      0.0000      0.0000      0.0000
       200         0.0000     -0.0000      0.0000      0.0000      0.0000
       201         0.0000      0.0000     -0.0000      0.0000      0.0000
       202        -0.0000      0.0000      0.0000      0.0000      0.0000
       203        -0.0000      0.0000     -0.0000      0.0000      0.0000
       204        -0.0000      0.0000      0.0000      0.0000      0.0000
       205        -0.0000     -0.0000     -0.0000      0.0000      0.0000
       206        -0.0000     -0.0000     -0.0000      0.0000      0.0000
       207         0.0528     -0.1120      0.0000      0.0153      0.0265
       208        -0.1120     -0.0528      0.0000      0.0153      0.0265
       209        -0.0177      0.0418     -0.0000      0.0021      0.0036
       210        -0.0418     -0.0177     -0.0000      0.0021      0.0036
       211         0.0001     -0.0000      0.0000      0.0000      0.0000
       212         0.0000      0.0001      0.0000      0.0000      0.0000
       213         0.0000      0.0000     -0.0000      0.0000      0.0000
       214         0.0000      0.0000     -0.0000      0.0000      0.0000
       215         0.0000      0.0000      0.0000      0.0000      0.0000
       216         0.0000      0.0000     -0.0000      0.0000      0.0000
       217        -0.0000      0.0000     -0.0000      0.0000      0.0000
       218         0.0000     -0.0000     -0.0000      0.0000      0.0000
       219        -0.0000      0.0000     -0.0000      0.0000      0.0000
       220        -0.0077     -1.0010     -0.0000      1.0021      1.8697
       221        -1.0010      0.0077      0.0000      1.0021      1.8697
       222         0.0000     -0.0000      0.0986      0.0097      0.0182
       223         0.0000     -0.0000      0.0000      0.0000      0.0000
       224         0.0000      0.0000      0.0000      0.0000      0.0000
       225        -0.0000      0.0000     -0.0000      0.0000      0.0000
       226         0.0000     -0.0000     -0.0000      0.0000      0.0000
       227         0.0000     -0.0000     -0.0000      0.0000      0.0000
       228         0.0000     -0.0000     -0.0000      0.0000      0.0000
       229        -0.0000      0.0000      0.0000      0.0000      0.0000
       230        -0.0000      0.0000     -0.0000      0.0000      0.0000
       231         0.0000     -0.0000      0.0000      0.0000      0.0000
       232        -0.0000     -0.0000      0.0000      0.0000      0.0000
       233         0.0000     -0.0000      0.0000      0.0000      0.0000
       234        -0.0000     -0.0000     -0.4370      0.1910      0.3909
       235        -0.0000      0.0000     -0.0000      0.0000      0.0000
       236        -0.0000     -0.0000     -0.0000      0.0000      0.0000
       237         0.0000      0.0000     -0.0000      0.0000      0.0000
       238        -0.0000      0.0000      0.0000      0.0000      0.0000
       239         0.0471      0.2029     -0.0000      0.0434      0.0924
       240         0.2029     -0.0471     -0.0000      0.0434      0.0924
       241        -0.0000     -0.0000     -0.0931      0.0087      0.0185
       242         0.2162     -0.0729      0.0000      0.0521      0.1147
       243         0.0729      0.2162     -0.0000      0.0521      0.1147
       244        -0.0000      0.0000      0.0000      0.0000      0.0000
       245         0.0000     -0.0000     -0.0000      0.0000      0.0000
       246        -0.0000      0.0000      0.0000      0.0000      0.0000
       247         0.0000      0.0000      0.0000      0.0000      0.0000
       248         0.0000     -0.0000     -0.0000      0.0000      0.0000
       249         0.0000     -0.0000      0.0000      0.0000      0.0000
       250         0.0000     -0.0000     -0.0000      0.0000      0.0000
       251         0.0000      0.0000      0.0000      0.0000      0.0000
       252         0.0000      0.0000     -0.0000      0.0000      0.0000
       253        -0.0000      0.0000     -0.0000      0.0000      0.0000
       254        -0.0000      0.0000     -0.3205      0.1027      0.2398
       255        -0.0000      0.0000     -0.0000      0.0000      0.0000
       256         0.0000     -0.0000      0.0000      0.0000      0.0000
       257         0.0000      0.0000      0.0000      0.0000      0.0000
       258         0.0000     -0.0000     -0.0000      0.0000      0.0000
       259         0.0291     -0.1433      0.0000      0.0214      0.0512
       260        -0.1433     -0.0291     -0.0000      0.0214      0.0512
       261         0.0000      0.0000      0.0000      0.0000      0.0000
       262        -0.0000      0.0000      0.0000      0.0000      0.0000
       263        -0.0000     -0.0000     -0.0000      0.0000      0.0000
       264        -0.0504     -0.0641     -0.0000      0.0066      0.0163
       265        -0.0641      0.0504      0.0000      0.0066      0.0163
       266         0.0000     -0.0000      0.0000      0.0000      0.0000
       267        -0.0000      0.0000     -0.2385      0.0569      0.1393
       268         0.0946      0.0160     -0.0000      0.0092      0.0226
       269        -0.0160      0.0946      0.0000      0.0092      0.0226
       270        -0.0000     -0.0000     -0.0000      0.0000      0.0000
       271         0.0000      0.0000      0.0000      0.0000      0.0000
       272        -0.0000      0.0000     -0.0000      0.0000      0.0000
       273         0.0000      0.0000      0.0000      0.0000      0.0000
       274        -0.0000      0.0000     -0.0000      0.0000      0.0000
       275         0.0000     -0.0000      0.0000      0.0000      0.0000
       276        -0.0000     -0.0000      0.0000      0.0000      0.0000
       277        -0.0000     -0.0000      0.0000      0.0000      0.0000
       278         0.0000     -0.0000     -0.0000      0.0000      0.0000
       279        -0.0000      0.0000     -0.0000      0.0000      0.0000
       280         0.0000      0.0000      0.0000      0.0000      0.0000
       281        -0.0000      0.0000      0.0000      0.0000      0.0000
       282         0.0000      0.0000     -0.0000      0.0000      0.0000
       283        -0.0000     -0.0000     -0.0000      0.0000      0.0000
       284         0.0000      0.0000      0.0000      0.0000      0.0000
       285         0.0000     -0.0000     -0.0321      0.0010      0.0028
       286         0.0000      0.0000      0.0000      0.0000      0.0000
       287        -0.0000     -0.0000     -0.0000      0.0000      0.0000
       288        -0.0228     -0.1605      0.0000      0.0263      0.0734
       289        -0.1605      0.0228      0.0000      0.0263      0.0734
       290        -0.0000      0.0000     -0.2688      0.0723      0.2038
       291         0.0000     -0.0000      0.0650      0.0042      0.0121
       292        -0.0000      0.0000     -0.0000      0.0000      0.0000
       293         0.0592      0.0758      0.0000      0.0092      0.0268
       294         0.0758     -0.0592     -0.0000      0.0092      0.0268
       295        -0.1446     -0.2572      0.0000      0.0871      0.2573
       296        -0.2572      0.1446      0.0000      0.0871      0.2573
       297         0.0000     -0.0000     -0.0000      0.0000      0.0000
       298        -0.0000     -0.0000      0.0000      0.0000      0.0000
       299        -0.0000      0.0000      0.0000      0.0000      0.0000
       300         0.1471     -0.0486      0.0000      0.0240      0.0728
       301         0.0486      0.1471     -0.0000      0.0240      0.0728
       302        -0.0000     -0.0000     -0.0127      0.0002      0.0005
       303         0.0000     -0.0000      0.0000      0.0000      0.0000
       304        -0.0000     -0.0000     -0.0000      0.0000      0.0000
       305        -0.0000      0.0000     -0.0562      0.0032      0.0102
       306         0.0000     -0.0000     -0.0000      0.0000      0.0000
       307         0.0000     -0.0000     -0.0000      0.0000      0.0000
       308         0.0298     -0.0061      0.0000      0.0009      0.0032
       309         0.0061      0.0298      0.0000      0.0009      0.0032
       310         0.0000     -0.0000      0.1205      0.0145      0.0514
       311        -0.0000      0.0000     -0.0000      0.0000      0.0000
       312        -0.0000     -0.0000     -0.0000      0.0000      0.0000
       313         0.0000      0.0000      0.0322      0.0010      0.0038
       314        -0.0000      0.0000     -0.0000      0.0000      0.0000
       315         0.0000      0.0000     -0.0964      0.0093      0.0384
       316        -0.0000     -0.0000     -0.0000      0.0000      0.0000
       317         0.0000     -0.0000     -0.0000      0.0000      0.0000
       318        -0.0000      0.0000      0.0000      0.0000      0.0000
       319        -0.0000     -0.0000     -0.0453      0.0021      0.0092
       320        -0.0000      0.0000     -0.0000      0.0000      0.0000
       321         0.0000     -0.0000     -0.0000      0.0000      0.0000
       322        -0.0000      0.0000      0.0000      0.0000      0.0000
       323         0.0000     -0.0000      0.0000      0.0000      0.0000
       324         0.0000      0.0000      0.0000      0.0000      0.0000
       325         0.0000     -0.0000     -0.0000      0.0000      0.0000
       326         0.0019     -0.0114      0.0000      0.0001      0.0006
       327        -0.0114     -0.0019     -0.0000      0.0001      0.0006
       328        -0.0000      0.0000      0.0000      0.0000      0.0000
[...]
      3  -0.401410D-01  0.000000D+00  0.000000D+00 -0.104603D-04 -0.382443D-05
      4   0.000000D+00  0.000000D+00  0.000000D+00  0.000000D+00  0.000000D+00
      5  -0.431230D+00  0.000000D+00  0.000000D+00  0.473895D-05 -0.129617D-04
      6   0.378579D+00  0.000000D+00  0.000000D+00  0.129617D-04  0.473895D-05
      7   0.000000D+00  0.000000D+00  0.000000D+00  0.000000D+00  0.000000D+00
      8   0.000000D+00  0.000000D+00  0.000000D+00  0.000000D+00  0.000000D+00
      9   0.000000D+00  0.000000D+00  0.000000D+00  0.000000D+00  0.000000D+00
     10   0.000000D+00  0.000000D+00  0.000000D+00  0.000000D+00  0.000000D+00
     11   0.000000D+00 -0.284151D-01  0.000000D+00  0.000000D+00  0.000000D+00
     12   0.000000D+00  0.284151D-01  0.000000D+00  0.000000D+00  0.000000D+00
     13   0.000000D+00  0.000000D+00  0.000000D+00  0.000000D+00  0.000000D+00
     14   0.000000D+00  0.000000D+00 -0.284141D-01  0.000000D+00  0.000000D+00
     15   0.000000D+00  0.000000D+00  0.000000D+00  0.000000D+00  0.000000D+00
     16   0.000000D+00  0.000000D+00  0.000000D+00  0.000000D+00  0.000000D+00
               431           432           433           434           435 
      1  -0.190747D+03 -0.190747D+03 -0.190729D+03 -0.190667D+03 -0.190667D+03
      2   0.393410D-02  0.726304D-03  0.000000D+00  0.000000D+00  0.000000D+00
      3  -0.726304D-03  0.393410D-02  0.000000D+00  0.000000D+00  0.000000D+00
      4   0.000000D+00  0.000000D+00  0.000000D+00  0.000000D+00  0.000000D+00
      5  -0.501584D-02 -0.926014D-03  0.000000D+00  0.000000D+00  0.000000D+00
      6   0.926014D-03 -0.501584D-02  0.000000D+00  0.000000D+00  0.000000D+00
      7   0.000000D+00  0.000000D+00  0.000000D+00  0.000000D+00  0.000000D+00
      8   0.000000D+00  0.000000D+00  0.000000D+00 -0.831341D-05  0.491428D-04
      9   0.000000D+00  0.000000D+00  0.000000D+00  0.491428D-04  0.831341D-05
     10   0.000000D+00  0.000000D+00  0.000000D+00  0.000000D+00  0.000000D+00
     11   0.000000D+00  0.000000D+00  0.772788D-01  0.000000D+00  0.000000D+00
     12   0.000000D+00  0.000000D+00  0.772788D-01  0.000000D+00  0.000000D+00
     13   0.000000D+00  0.000000D+00  0.293980D+01  0.000000D+00  0.000000D+00
     14   0.000000D+00  0.000000D+00  0.000000D+00  0.000000D+00  0.000000D+00
     15   0.000000D+00  0.000000D+00  0.000000D+00  0.485664D-04  0.821591D-05
     16   0.000000D+00  0.000000D+00  0.000000D+00  0.821591D-05 -0.485664D-04
               436           437           438           439           440 
      1  -0.190630D+03 -0.190623D+03 -0.190623D+03 -0.190612D+03 -0.190612D+03
      2   0.000000D+00  0.000000D+00  0.000000D+00 -0.173233D+00 -0.112384D+00
      3   0.000000D+00  0.000000D+00  0.000000D+00  0.112384D+00 -0.173233D+00
      4   0.000000D+00  0.000000D+00  0.000000D+00  0.000000D+00  0.000000D+00
      5   0.000000D+00  0.000000D+00  0.000000D+00  0.170358D+01  0.110519D+01
      6   0.000000D+00  0.000000D+00  0.000000D+00 -0.110519D+01  0.170358D+01
      7   0.000000D+00  0.000000D+00  0.000000D+00  0.000000D+00  0.000000D+00
      8   0.000000D+00  0.000000D+00  0.000000D+00  0.000000D+00  0.000000D+00
      9   0.000000D+00  0.000000D+00  0.000000D+00  0.000000D+00  0.000000D+00
     10   0.000000D+00  0.000000D+00  0.000000D+00  0.000000D+00  0.000000D+00
     11  -0.131520D+00  0.000000D+00  0.000000D+00  0.000000D+00  0.000000D+00
     12  -0.131520D+00  0.000000D+00  0.000000D+00  0.000000D+00  0.000000D+00
     13   0.149188D+00  0.000000D+00  0.000000D+00  0.000000D+00  0.000000D+00
     14   0.000000D+00  0.000000D+00  0.000000D+00  0.000000D+00  0.000000D+00
     15   0.000000D+00  0.000000D+00  0.000000D+00  0.000000D+00  0.000000D+00
     16   0.000000D+00  0.000000D+00  0.000000D+00  0.000000D+00  0.000000D+00
               441           442           443           444           445 
      1  -0.190599D+03 -0.190599D+03 -0.190434D+03 -0.190434D+03 -0.190391D+03
      2   0.000000D+00  0.000000D+00  0.000000D+00  0.000000D+00  0.000000D+00
      3   0.000000D+00  0.000000D+00  0.000000D+00  0.000000D+00  0.000000D+00
      4   0.000000D+00  0.000000D+00  0.000000D+00  0.000000D+00  0.000000D+00
      5   0.000000D+00  0.000000D+00  0.000000D+00  0.000000D+00  0.000000D+00
      6   0.000000D+00  0.000000D+00  0.000000D+00  0.000000D+00  0.000000D+00
      7   0.000000D+00  0.000000D+00  0.000000D+00  0.000000D+00  0.000000D+00
      8  -0.133812D+01 -0.828072D+00  0.879440D+00 -0.433125D+00  0.000000D+00
      9  -0.828072D+00  0.133812D+01 -0.433125D+00 -0.879440D+00  0.000000D+00
     10   0.000000D+00  0.000000D+00  0.000000D+00  0.000000D+00  0.000000D+00
     11   0.000000D+00  0.000000D+00  0.000000D+00  0.000000D+00  0.000000D+00
     12   0.000000D+00  0.000000D+00  0.000000D+00  0.000000D+00  0.000000D+00
     13   0.000000D+00  0.000000D+00  0.000000D+00  0.000000D+00  0.000000D+00
     14   0.000000D+00  0.000000D+00  0.000000D+00  0.000000D+00 -0.916997D-01
     15  -0.823120D+00  0.133012D+01 -0.425722D+00 -0.864409D+00  0.000000D+00
     16   0.133012D+01  0.823120D+00 -0.864409D+00  0.425722D+00  0.000000D+00
               446           447           448           449           450 
      1  -0.190391D+03 -0.190379D+03 -0.190371D+03 -0.190355D+03 -0.190284D+03
      2   0.000000D+00  0.000000D+00  0.000000D+00  0.000000D+00 -0.539521D-01
      3   0.000000D+00  0.000000D+00  0.000000D+00  0.000000D+00  0.730243D-01
      4   0.000000D+00  0.000000D+00 -0.400010D-01  0.000000D+00  0.000000D+00
      5   0.000000D+00  0.000000D+00  0.000000D+00  0.000000D+00  0.539632D+00
      6   0.000000D+00  0.000000D+00  0.000000D+00  0.000000D+00 -0.730392D+00
      7   0.000000D+00  0.000000D+00  0.364094D+00  0.000000D+00  0.000000D+00
      8   0.000000D+00  0.000000D+00  0.000000D+00  0.000000D+00  0.000000D+00
      9   0.000000D+00  0.000000D+00  0.000000D+00  0.000000D+00  0.000000D+00
     10   0.000000D+00  0.000000D+00  0.000000D+00  0.000000D+00  0.000000D+00
     11  -0.917024D-01  0.000000D+00  0.000000D+00 -0.145586D+00  0.000000D+00
     12   0.917024D-01  0.000000D+00  0.000000D+00 -0.145586D+00  0.000000D+00
     13   0.000000D+00  0.000000D+00  0.000000D+00  0.195238D+01  0.000000D+00
     14   0.000000D+00  0.000000D+00  0.000000D+00  0.000000D+00  0.000000D+00
     15   0.000000D+00  0.000000D+00  0.000000D+00  0.000000D+00  0.000000D+00
     16   0.000000D+00  0.000000D+00  0.000000D+00  0.000000D+00  0.000000D+00
               451           452           453           454           455 
      1  -0.190284D+03 -0.190249D+03 -0.190249D+03 -0.190235D+03 -0.190228D+03
      2   0.730243D-01  0.000000D+00  0.000000D+00  0.000000D+00  0.000000D+00
      3   0.539521D-01  0.000000D+00  0.000000D+00  0.000000D+00  0.000000D+00
      4   0.000000D+00  0.000000D+00  0.000000D+00  0.000000D+00  0.000000D+00
      5  -0.730392D+00  0.000000D+00  0.000000D+00  0.000000D+00  0.000000D+00
      6  -0.539632D+00  0.000000D+00  0.000000D+00  0.000000D+00  0.000000D+00
      7   0.000000D+00  0.000000D+00  0.000000D+00  0.000000D+00  0.000000D+00
      8   0.000000D+00  0.000000D+00  0.000000D+00  0.000000D+00  0.147737D+00
      9   0.000000D+00  0.000000D+00  0.000000D+00  0.000000D+00  0.396680D+00
     10   0.000000D+00  0.000000D+00  0.000000D+00  0.000000D+00  0.000000D+00
     11   0.000000D+00  0.000000D+00  0.000000D+00  0.000000D+00  0.000000D+00
     12   0.000000D+00  0.000000D+00  0.000000D+00  0.000000D+00  0.000000D+00
     13   0.000000D+00  0.000000D+00  0.000000D+00  0.000000D+00  0.000000D+00
     14   0.000000D+00  0.000000D+00  0.000000D+00  0.000000D+00  0.000000D+00
     15   0.000000D+00  0.000000D+00  0.000000D+00  0.000000D+00  0.350706D+00
     16   0.000000D+00  0.000000D+00  0.000000D+00  0.000000D+00 -0.130615D+00
               456           457           458           459           460 
      1  -0.190228D+03 -0.190227D+03 -0.190227D+03 -0.190190D+03 -0.190165D+03
      2   0.000000D+00  0.000000D+00  0.000000D+00  0.000000D+00  0.000000D+00
      3   0.000000D+00  0.000000D+00  0.000000D+00  0.000000D+00  0.000000D+00
      4   0.000000D+00  0.000000D+00  0.000000D+00 -0.127469D+00  0.000000D+00
      5   0.000000D+00  0.000000D+00  0.000000D+00  0.000000D+00  0.000000D+00
      6   0.000000D+00  0.000000D+00  0.000000D+00  0.000000D+00  0.000000D+00
      7   0.000000D+00  0.000000D+00  0.000000D+00  0.119869D+01  0.000000D+00
      8  -0.396680D+00  0.000000D+00  0.000000D+00  0.000000D+00  0.000000D+00
      9   0.147737D+00  0.000000D+00  0.000000D+00  0.000000D+00  0.000000D+00
     10   0.000000D+00  0.000000D+00  0.000000D+00  0.000000D+00  0.000000D+00
     11   0.000000D+00  0.000000D+00  0.000000D+00  0.000000D+00 -0.190649D-01
     12   0.000000D+00  0.000000D+00  0.000000D+00  0.000000D+00 -0.190649D-01
     13   0.000000D+00  0.000000D+00  0.000000D+00  0.000000D+00  0.456476D+01
     14   0.000000D+00  0.000000D+00  0.000000D+00  0.000000D+00  0.000000D+00
     15   0.130615D+00  0.000000D+00  0.000000D+00  0.000000D+00  0.000000D+00
     16   0.350706D+00  0.000000D+00  0.000000D+00  0.000000D+00  0.000000D+00
               461           462           463           464           465 
      1  -0.190147D+03 -0.190147D+03 -0.190106D+03 -0.190106D+03 -0.189976D+03
      2   0.000000D+00  0.000000D+00  0.000000D+00  0.000000D+00  0.695617D-02
      3   0.000000D+00  0.000000D+00  0.000000D+00  0.000000D+00  0.235275D-01
      4   0.000000D+00  0.000000D+00  0.000000D+00  0.000000D+00  0.000000D+00
      5   0.000000D+00  0.000000D+00  0.000000D+00  0.000000D+00 -0.741153D-01
      6   0.000000D+00  0.000000D+00  0.000000D+00  0.000000D+00 -0.250677D+00
      7   0.000000D+00  0.000000D+00  0.000000D+00  0.000000D+00  0.000000D+00
      8  -0.135719D+00 -0.153041D+01  0.000000D+00  0.000000D+00  0.000000D+00
      9   0.153041D+01 -0.135719D+00  0.000000D+00  0.000000D+00  0.000000D+00
     10   0.000000D+00  0.000000D+00  0.000000D+00  0.000000D+00  0.000000D+00
     11   0.000000D+00  0.000000D+00 -0.465280D-01  0.000000D+00  0.000000D+00
     12   0.000000D+00  0.000000D+00  0.465280D-01  0.000000D+00  0.000000D+00
     13   0.000000D+00  0.000000D+00  0.000000D+00  0.000000D+00  0.000000D+00
     14   0.000000D+00  0.000000D+00  0.000000D+00 -0.465278D-01  0.000000D+00
     15   0.175779D+01 -0.155883D+00  0.000000D+00  0.000000D+00  0.000000D+00
     16   0.155883D+00  0.175779D+01  0.000000D+00  0.000000D+00  0.000000D+00
               466           467           468           469           470 
      1  -0.189976D+03 -0.189956D+03 -0.189956D+03 -0.189834D+03 -0.189834D+03
      2   0.235275D-01  0.000000D+00  0.000000D+00  0.000000D+00  0.000000D+00
      3  -0.695617D-02  0.000000D+00  0.000000D+00  0.000000D+00  0.000000D+00
      4   0.000000D+00  0.000000D+00  0.000000D+00  0.000000D+00  0.000000D+00
      5  -0.250677D+00  0.000000D+00  0.000000D+00  0.000000D+00  0.000000D+00
      6   0.741153D-01  0.000000D+00  0.000000D+00  0.000000D+00  0.000000D+00
      7   0.000000D+00  0.000000D+00  0.000000D+00  0.000000D+00  0.000000D+00
      8   0.000000D+00  0.000000D+00  0.000000D+00  0.000000D+00  0.000000D+00
      9   0.000000D+00  0.000000D+00  0.000000D+00  0.000000D+00  0.000000D+00
     10   0.000000D+00  0.000000D+00  0.000000D+00  0.000000D+00  0.000000D+00
     11   0.000000D+00 -0.213874D-01  0.000000D+00  0.000000D+00  0.000000D+00
     12   0.000000D+00  0.213874D-01  0.000000D+00  0.000000D+00  0.000000D+00
     13   0.000000D+00  0.000000D+00  0.000000D+00  0.000000D+00  0.000000D+00
     14   0.000000D+00  0.000000D+00 -0.213877D-01  0.000000D+00  0.000000D+00
     15   0.000000D+00  0.000000D+00  0.000000D+00  0.000000D+00  0.000000D+00
     16   0.000000D+00  0.000000D+00  0.000000D+00  0.000000D+00  0.000000D+00
               471           472           473           474           475 
      1  -0.189727D+03 -0.189666D+03 -0.189666D+03 -0.189481D+03 -0.189419D+03
      2   0.000000D+00  0.156836D-01 -0.161418D-01  0.000000D+00  0.000000D+00
      3   0.000000D+00 -0.161418D-01 -0.156836D-01  0.000000D+00  0.000000D+00
      4  -0.274433D-01  0.000000D+00  0.000000D+00  0.000000D+00  0.000000D+00
      5   0.000000D+00 -0.154435D+00  0.158947D+00  0.000000D+00  0.000000D+00
      6   0.000000D+00  0.158947D+00  0.154435D+00  0.000000D+00  0.000000D+00
      7   0.251381D+00  0.000000D+00  0.000000D+00  0.000000D+00  0.000000D+00
      8   0.000000D+00  0.000000D+00  0.000000D+00  0.000000D+00  0.277298D-01
      9   0.000000D+00  0.000000D+00  0.000000D+00  0.000000D+00 -0.119534D+00
     10   0.000000D+00  0.000000D+00  0.000000D+00  0.000000D+00  0.000000D+00
     11   0.000000D+00  0.000000D+00  0.000000D+00  0.351976D-01  0.000000D+00
     12   0.000000D+00  0.000000D+00  0.000000D+00  0.351976D-01  0.000000D+00
     13   0.000000D+00  0.000000D+00  0.000000D+00 -0.492657D+00  0.000000D+00
     14   0.000000D+00  0.000000D+00  0.000000D+00  0.000000D+00  0.000000D+00
     15   0.000000D+00  0.000000D+00  0.000000D+00  0.000000D+00 -0.223158D+00
     16   0.000000D+00  0.000000D+00  0.000000D+00  0.000000D+00 -0.517688D-01
               476           477           478           479           480 
      1  -0.189419D+03 -0.189168D+03 -0.189168D+03 -0.189026D+03 -0.189026D+03
      2   0.000000D+00 -0.360964D-01  0.173191D-01  0.000000D+00  0.000000D+00
      3   0.000000D+00 -0.173191D-01 -0.360964D-01  0.000000D+00  0.000000D+00
      4   0.000000D+00  0.000000D+00  0.000000D+00  0.000000D+00  0.000000D+00
      5   0.000000D+00  0.386462D+00 -0.185425D+00  0.000000D+00  0.000000D+00
      6   0.000000D+00  0.185425D+00  0.386462D+00  0.000000D+00  0.000000D+00
      7   0.000000D+00  0.000000D+00  0.000000D+00  0.000000D+00  0.000000D+00
      8   0.119534D+00  0.000000D+00  0.000000D+00 -0.498868D+00 -0.960424D-01
      9   0.277298D-01  0.000000D+00  0.000000D+00 -0.960424D-01  0.498868D+00
     10   0.000000D+00  0.000000D+00  0.000000D+00  0.000000D+00  0.000000D+00
     11   0.000000D+00  0.000000D+00  0.000000D+00  0.000000D+00  0.000000D+00
     12   0.000000D+00  0.000000D+00  0.000000D+00  0.000000D+00  0.000000D+00
     13   0.000000D+00  0.000000D+00  0.000000D+00  0.000000D+00  0.000000D+00
     14   0.000000D+00  0.000000D+00  0.000000D+00  0.000000D+00  0.000000D+00
     15   0.517688D-01  0.000000D+00  0.000000D+00 -0.133162D+00  0.691676D+00
     16  -0.223158D+00  0.000000D+00  0.000000D+00  0.691676D+00  0.133162D+00
               481           482           483           484           485 
      1  -0.188967D+03 -0.188461D+03 -0.188221D+03 -0.142739D+03 -0.142739D+03
      2   0.000000D+00  0.000000D+00  0.000000D+00  0.000000D+00  0.000000D+00
      3   0.000000D+00  0.000000D+00  0.000000D+00  0.000000D+00  0.000000D+00
      4   0.712876D-01  0.000000D+00  0.231637D-01  0.000000D+00  0.000000D+00
      5   0.000000D+00  0.000000D+00  0.000000D+00  0.000000D+00  0.000000D+00
      6   0.000000D+00  0.000000D+00  0.000000D+00  0.000000D+00  0.000000D+00
      7  -0.704404D+00  0.000000D+00 -0.273283D+00  0.000000D+00  0.000000D+00
      8   0.000000D+00  0.000000D+00  0.000000D+00  0.464630D-01  0.500082D+00
      9   0.000000D+00  0.000000D+00  0.000000D+00 -0.500082D+00  0.464630D-01
     10   0.000000D+00  0.000000D+00  0.000000D+00  0.000000D+00  0.000000D+00
     11   0.000000D+00  0.244793D-01  0.000000D+00  0.000000D+00  0.000000D+00
     12   0.000000D+00  0.244793D-01  0.000000D+00  0.000000D+00  0.000000D+00
     13   0.000000D+00 -0.115600D+01  0.000000D+00  0.000000D+00  0.000000D+00
     14   0.000000D+00  0.000000D+00  0.000000D+00  0.000000D+00  0.000000D+00
     15   0.000000D+00  0.000000D+00  0.000000D+00 -0.488586D+00  0.453949D-01
     16   0.000000D+00  0.000000D+00  0.000000D+00 -0.453949D-01 -0.488586D+00
               486           487           488           489           490 
      1  -0.142591D+03 -0.142591D+03 -0.142530D+03 -0.141960D+03 -0.141708D+03
      2  -0.498303D-03  0.148597D-01  0.000000D+00  0.000000D+00  0.000000D+00
      3   0.148597D-01  0.498303D-03  0.000000D+00  0.000000D+00  0.000000D+00
      4   0.000000D+00  0.000000D+00  0.000000D+00  0.194733D-02  0.000000D+00
      5   0.121319D-01 -0.361783D+00  0.000000D+00  0.000000D+00  0.000000D+00
      6  -0.361783D+00 -0.121319D-01  0.000000D+00  0.000000D+00  0.000000D+00
      7   0.000000D+00  0.000000D+00  0.000000D+00 -0.654416D-01  0.000000D+00
      8   0.000000D+00  0.000000D+00  0.000000D+00  0.000000D+00  0.000000D+00
      9   0.000000D+00  0.000000D+00  0.000000D+00  0.000000D+00  0.000000D+00
     10   0.000000D+00  0.000000D+00  0.000000D+00  0.000000D+00  0.000000D+00
     11   0.000000D+00  0.000000D+00 -0.630190D-01  0.000000D+00 -0.259018D+00
     12   0.000000D+00  0.000000D+00 -0.630190D-01  0.000000D+00 -0.259018D+00
     13   0.000000D+00  0.000000D+00 -0.924407D+00  0.000000D+00 -0.125460D+00
     14   0.000000D+00  0.000000D+00  0.000000D+00  0.000000D+00  0.000000D+00
     15   0.000000D+00  0.000000D+00  0.000000D+00  0.000000D+00  0.000000D+00
     16   0.000000D+00  0.000000D+00  0.000000D+00  0.000000D+00  0.000000D+00
               491           492           493           494           495 
      1  -0.141699D+03 -0.141699D+03 -0.141551D+03 -0.141551D+03 -0.141505D+03
      2  -0.116568D-01  0.140914D-02  0.000000D+00  0.000000D+00  0.000000D+00
      3  -0.140914D-02 -0.116568D-01  0.000000D+00  0.000000D+00  0.000000D+00
      4   0.000000D+00  0.000000D+00  0.000000D+00  0.000000D+00 -0.882466D-02
      5   0.308756D+00 -0.373240D-01  0.000000D+00  0.000000D+00  0.000000D+00
      6   0.373240D-01  0.308756D+00  0.000000D+00  0.000000D+00  0.000000D+00
      7   0.000000D+00  0.000000D+00  0.000000D+00  0.000000D+00  0.323036D+00
      8   0.000000D+00  0.000000D+00  0.323800D-01 -0.366592D+00  0.000000D+00
      9   0.000000D+00  0.000000D+00  0.366592D+00  0.323800D-01  0.000000D+00
     10   0.000000D+00  0.000000D+00  0.000000D+00  0.000000D+00  0.000000D+00
     11   0.000000D+00  0.000000D+00  0.000000D+00  0.000000D+00  0.000000D+00
     12   0.000000D+00  0.000000D+00  0.000000D+00  0.000000D+00  0.000000D+00
     13   0.000000D+00  0.000000D+00  0.000000D+00  0.000000D+00  0.000000D+00
     14   0.000000D+00  0.000000D+00  0.000000D+00  0.000000D+00  0.000000D+00
     15   0.000000D+00  0.000000D+00  0.377883D+00  0.333773D-01  0.000000D+00
     16   0.000000D+00  0.000000D+00 -0.333773D-01  0.377883D+00  0.000000D+00
               496           497 
      1  -0.140936D+03 -0.140686D+03
      2   0.000000D+00  0.000000D+00
      3   0.000000D+00  0.000000D+00
      4   0.000000D+00 -0.117546D-02
      5   0.000000D+00  0.000000D+00
      6   0.000000D+00  0.000000D+00
      7   0.000000D+00 -0.756853D-02
      8   0.000000D+00  0.000000D+00
      9   0.000000D+00  0.000000D+00
     10   0.000000D+00  0.000000D+00
     11   0.257510D+00  0.000000D+00
     12   0.257510D+00  0.000000D+00
     13   0.474965D+00  0.000000D+00
     14   0.000000D+00  0.000000D+00
     15   0.000000D+00  0.000000D+00
     16   0.000000D+00  0.000000D+00
 Unable to Open any file for archive entry.
 1\1\GINC-HEL17\SP\RwB97XD TD-FC\Gen\F2\RR\27-Feb-2022\0\\#P TD(Nstates
 =10000) wB97XD/Gen SCF(maxcycles=100) Int(Grid=ultrafine)\\xGDB7_00001
 _tier4.com\\0,1\F,0,0.,0.,0.688193\F,0,0.,0.,-0.688193\\Version=EM64L-
 G16RevC.01\State=1-SGG\HF=-199.5430371\RMSD=1.060e-09\PG=D*H [C*(F1.F1
 )]\\@
 The archive entry for this job was punched.


 MARY HAD A LITTLE LAMB
      HIS FEET WERE BLACK AS SOOT,
           AND EVERYWHERE THAT MARY WENT
                HIS SOOTY FOOT HE PUT.

                    -- NONAME
 Job cpu time:       0 days  0 hours  1 minutes 42.0 seconds.
 Elapsed time:       0 days  0 hours  0 minutes 14.0 seconds.
 File lengths (MBytes):  RWF=    322 Int=      0 D2E=      0 Chk=     78 Scr=      1
 Normal termination of Gaussian 16 at Sun Feb 27 06:39:39 2022.
