 Entering Gaussian System, Link 0=g16
 Input=bigQM7w_TDwB97XD_def2TZVP_000006.com
 Output=bigQM7w_TDwB97XD_def2TZVP_000006.log
 Initial command:
 /home/rr/g16/l1.exe "/scratch/rr/PBS_7918659.helios/Gau-12832.inp" -scrdir="/scratch/rr/PBS_7918659.helios/"
 Entering Link 1 = /home/rr/g16/l1.exe PID=     12841.
  
 Copyright (c) 1988-2019, Gaussian, Inc.  All Rights Reserved.
  
 This is part of the Gaussian(R) 16 program.  It is based on
 the Gaussian(R) 09 system (copyright 2009, Gaussian, Inc.),
 the Gaussian(R) 03 system (copyright 2003, Gaussian, Inc.),
 the Gaussian(R) 98 system (copyright 1998, Gaussian, Inc.),
 the Gaussian(R) 94 system (copyright 1995, Gaussian, Inc.),
 the Gaussian 92(TM) system (copyright 1992, Gaussian, Inc.),
 the Gaussian 90(TM) system (copyright 1990, Gaussian, Inc.),
 the Gaussian 88(TM) system (copyright 1988, Gaussian, Inc.),
 the Gaussian 86(TM) system (copyright 1986, Carnegie Mellon
 University), and the Gaussian 82(TM) system (copyright 1983,
 Carnegie Mellon University). Gaussian is a federally registered
 trademark of Gaussian, Inc.
  
 This software contains proprietary and confidential information,
 including trade secrets, belonging to Gaussian, Inc.
  
 This software is provided under written license and may be
 used, copied, transmitted, or stored only in accord with that
 written license.
  
 The following legend is applicable only to US Government
 contracts under FAR:
  
                    RESTRICTED RIGHTS LEGEND
  
 Use, reproduction and disclosure by the US Government is
 subject to restrictions as set forth in subparagraphs (a)
 and (c) of the Commercial Computer Software - Restricted
 Rights clause in FAR 52.227-19.
  
 Gaussian, Inc.
 340 Quinnipiac St., Bldg. 40, Wallingford CT 06492
  
  
 ---------------------------------------------------------------
 Warning -- This program may not be used in any manner that
 competes with the business of Gaussian, Inc. or will provide
 assistance to any competitor of Gaussian, Inc.  The licensee
 of this program is prohibited from giving any competitor of
 Gaussian, Inc. access to this program.  By using this program,
 the user acknowledges that Gaussian, Inc. is engaged in the
 business of creating and licensing software in the field of
 computational chemistry and represents and warrants to the
 licensee that it is not a competitor of Gaussian, Inc. and that
 it will not use this program in any manner prohibited above.
 ---------------------------------------------------------------
  

 Cite this work as:
 Gaussian 16, Revision C.01,
 M. J. Frisch, G. W. Trucks, H. B. Schlegel, G. E. Scuseria, 
 M. A. Robb, J. R. Cheeseman, G. Scalmani, V. Barone, 
 G. A. Petersson, H. Nakatsuji, X. Li, M. Caricato, A. V. Marenich, 
 J. Bloino, B. G. Janesko, R. Gomperts, B. Mennucci, H. P. Hratchian, 
 J. V. Ortiz, A. F. Izmaylov, J. L. Sonnenberg, D. Williams-Young, 
 F. Ding, F. Lipparini, F. Egidi, J. Goings, B. Peng, A. Petrone, 
 T. Henderson, D. Ranasinghe, V. G. Zakrzewski, J. Gao, N. Rega, 
 G. Zheng, W. Liang, M. Hada, M. Ehara, K. Toyota, R. Fukuda, 
 J. Hasegawa, M. Ishida, T. Nakajima, Y. Honda, O. Kitao, H. Nakai, 
 T. Vreven, K. Throssell, J. A. Montgomery, Jr., J. E. Peralta, 
 F. Ogliaro, M. J. Bearpark, J. J. Heyd, E. N. Brothers, K. N. Kudin, 
 V. N. Staroverov, T. A. Keith, R. Kobayashi, J. Normand, 
 K. Raghavachari, A. P. Rendell, J. C. Burant, S. S. Iyengar, 
 J. Tomasi, M. Cossi, J. M. Millam, M. Klene, C. Adamo, R. Cammi, 
 J. W. Ochterski, R. L. Martin, K. Morokuma, O. Farkas, 
 J. B. Foresman, and D. J. Fox, Gaussian, Inc., Wallingford CT, 2019.
 
 ******************************************
 Gaussian 16:  EM64L-G16RevC.01  3-Jul-2019
                27-Feb-2022 
 ******************************************
 %mem=64gb
 %nproc=8
 Will use up to    8 processors via shared memory.
 ----------------------------------------------------------------------
 #P TD(Nstates=10000) wB97XD/Gen SCF(maxcycles=100) Int(Grid=ultrafine)
 ----------------------------------------------------------------------
 1/38=1,172=1/1;
 2/12=2,17=6,18=5,40=1/2;
 3/5=7,11=9,25=1,30=1,74=-58,75=-5/1,2,3,8;
 4//1;
 5/5=2,7=100,38=5/2;
 8/6=1,10=1,108=10000/1;
 9/41=10000,42=1,70=2/14;
 6/7=2,8=2,9=2,10=2/1;
 99/5=1,9=1/99;
 Leave Link    1 at Sun Feb 27 06:40:15 2022, MaxMem=  8589934592 cpu:               0.7 elap:               0.1
 (Enter /home/rr/g16/l101.exe)
 ---------------------
 xGDB7_00001_tier4.com
 ---------------------
 Symbolic Z-matrix:
 Charge =  0 Multiplicity = 1
 6                    -0.04908   0.70204   0. 
 7                    -0.04908  -0.75424   0. 
 1                     0.94611   1.1666    0. 
 1                    -0.58757   1.0626    0.87777 
 1                    -0.58757   1.0626   -0.87777 
 1                     0.43353  -1.11218   0.8125 
 1                     0.43353  -1.11218  -0.8125 
 
 ITRead=  0  0  0  0  0  0  0
 MicOpt= -1 -1 -1 -1 -1 -1 -1
 NAtoms=      7 NQM=        7 NQMF=       0 NMMI=      0 NMMIF=      0
                NMic=       0 NMicF=      0.
                    Isotopes and Nuclear Properties:
 (Nuclear quadrupole moments (NQMom) in fm**2, nuclear magnetic moments (NMagM)
  in nuclear magnetons)

  Atom         1           2           3           4           5           6           7
 IAtWgt=          12          14           1           1           1           1           1
 AtmWgt=  12.0000000  14.0030740   1.0078250   1.0078250   1.0078250   1.0078250   1.0078250
 NucSpn=           0           2           1           1           1           1           1
 AtZEff=  -0.0000000  -0.0000000  -0.0000000  -0.0000000  -0.0000000  -0.0000000  -0.0000000
 NQMom=    0.0000000   2.0440000   0.0000000   0.0000000   0.0000000   0.0000000   0.0000000
 NMagM=    0.0000000   0.4037610   2.7928460   2.7928460   2.7928460   2.7928460   2.7928460
 AtZNuc=   6.0000000   7.0000000   1.0000000   1.0000000   1.0000000   1.0000000   1.0000000
 Leave Link  101 at Sun Feb 27 06:40:15 2022, MaxMem=  8589934592 cpu:               1.2 elap:               0.2
 (Enter /home/rr/g16/l202.exe)
                          Input orientation:                          
 ---------------------------------------------------------------------
 Center     Atomic      Atomic             Coordinates (Angstroms)
 Number     Number       Type             X           Y           Z
 ---------------------------------------------------------------------
      1          6           0       -0.049078    0.702042    0.000000
      2          7           0       -0.049078   -0.754243    0.000000
      3          1           0        0.946109    1.166603    0.000000
      4          1           0       -0.587574    1.062597    0.877770
      5          1           0       -0.587574    1.062597   -0.877770
      6          1           0        0.433525   -1.112175    0.812504
      7          1           0        0.433525   -1.112175   -0.812504
 ---------------------------------------------------------------------
                    Distance matrix (angstroms):
                    1          2          3          4          5
     1  C    0.000000
     2  N    1.456285   0.000000
     3  H    1.098278   2.163342   0.000000
     4  H    1.091081   2.088388   1.770164   0.000000
     5  H    1.091081   2.088388   1.770164   1.755540   0.000000
     6  H    2.045593   1.010536   2.473001   2.403443   2.937567
     7  H    2.045593   1.010536   2.473001   2.937567   2.403443
                    6          7
     6  H    0.000000
     7  H    1.625008   0.000000
 Stoichiometry    CH5N
 Framework group  CS[SG(CHN),X(H4)]
 Deg. of freedom     9
 Full point group                 CS      NOp   2
 Largest Abelian subgroup         CS      NOp   2
 Largest concise Abelian subgroup CS      NOp   2
                         Standard orientation:                         
 ---------------------------------------------------------------------
 Center     Atomic      Atomic             Coordinates (Angstroms)
 Number     Number       Type             X           Y           Z
 ---------------------------------------------------------------------
      1          6           0       -0.049078    0.702042   -0.000000
      2          7           0       -0.049078   -0.754243    0.000000
      3          1           0        0.946109    1.166603   -0.000000
      4          1           0       -0.587574    1.062597    0.877770
      5          1           0       -0.587574    1.062597   -0.877770
      6          1           0        0.433525   -1.112175    0.812504
      7          1           0        0.433525   -1.112175   -0.812504
 ---------------------------------------------------------------------
 Rotational constants (GHZ):         104.1843361          22.9598117          22.0420045
 Leave Link  202 at Sun Feb 27 06:40:16 2022, MaxMem=  8589934592 cpu:               0.2 elap:               0.1
 (Enter /home/rr/g16/l301.exe)
 General basis read from cards:  (5D, 7F)
 Centers:       3      4      5      6      7
 S 3 1.00
     Exponent=  3.4061341000D+01 Coefficients=  6.0251978000D-03
     Exponent=  5.1235746000D+00 Coefficients=  4.5021094000D-02
     Exponent=  1.1646626000D+00 Coefficients=  2.0189726000D-01
 S 1 1.00
     Exponent=  3.2723041000D-01 Coefficients=  1.0000000000D+00
 S 1 1.00
     Exponent=  1.0307241000D-01 Coefficients=  1.0000000000D+00
 P 1 1.00
     Exponent=  8.0000000000D-01 Coefficients=  1.0000000000D+00
 P 1 1.00
     Exponent=  9.5774129632D-02 Coefficients=  1.0000000000D+00
 ****
 Centers:       1
 S 6 1.00
     Exponent=  1.3575349682D+04 Coefficients=  2.2245814352D-04
     Exponent=  2.0352333680D+03 Coefficients=  1.7232738252D-03
     Exponent=  4.6322562359D+02 Coefficients=  8.9255715314D-03
     Exponent=  1.3120019598D+02 Coefficients=  3.5727984502D-02
     Exponent=  4.2853015891D+01 Coefficients=  1.1076259931D-01
     Exponent=  1.5584185766D+01 Coefficients=  2.4295627626D-01
 S 2 1.00
     Exponent=  6.2067138508D+00 Coefficients=  4.1440263448D-01
     Exponent=  2.5764896527D+00 Coefficients=  2.3744968655D-01
 S 1 1.00
     Exponent=  5.7696339419D-01 Coefficients=  1.0000000000D+00
 S 1 1.00
     Exponent=  2.2972831358D-01 Coefficients=  1.0000000000D+00
 S 1 1.00
     Exponent=  9.5164440028D-02 Coefficients=  1.0000000000D+00
 S 1 1.00
     Exponent=  4.8475401370D-02 Coefficients=  1.0000000000D+00
 P 4 1.00
     Exponent=  3.4697232244D+01 Coefficients=  5.3333657805D-03
     Exponent=  7.9582622826D+00 Coefficients=  3.5864109092D-02
     Exponent=  2.3780826883D+00 Coefficients=  1.4215873329D-01
     Exponent=  8.1433208183D-01 Coefficients=  3.4270471845D-01
 P 1 1.00
     Exponent=  2.8887547253D-01 Coefficients=  4.6445822433D-01
 P 1 1.00
     Exponent=  1.0056823671D-01 Coefficients=  2.4955789874D-01
 D 1 1.00
     Exponent=  1.0970000000D+00 Coefficients=  1.0000000000D+00
 D 1 1.00
     Exponent=  3.1800000000D-01 Coefficients=  1.0000000000D+00
 D 1 1.00
     Exponent=  9.0985336424D-02 Coefficients=  1.0000000000D+00
 F 1 1.00
     Exponent=  7.6100000000D-01 Coefficients=  1.0000000000D+00
 ****
 Centers:       2
 S 6 1.00
     Exponent=  1.9730800647D+04 Coefficients=  2.1887984991D-04
     Exponent=  2.9578958745D+03 Coefficients=  1.6960708803D-03
     Exponent=  6.7322133595D+02 Coefficients=  8.7954603538D-03
     Exponent=  1.9068249494D+02 Coefficients=  3.5359382605D-02
     Exponent=  6.2295441898D+01 Coefficients=  1.1095789217D-01
     Exponent=  2.2654161182D+01 Coefficients=  2.4982972552D-01
 S 2 1.00
     Exponent=  8.9791477428D+00 Coefficients=  4.0623896148D-01
     Exponent=  3.6863002370D+00 Coefficients=  2.4338217176D-01
 S 1 1.00
     Exponent=  8.4660076805D-01 Coefficients=  1.0000000000D+00
 S 1 1.00
     Exponent=  3.3647133771D-01 Coefficients=  1.0000000000D+00
 S 1 1.00
     Exponent=  1.3647653675D-01 Coefficients=  1.0000000000D+00
 S 1 1.00
     Exponent=  6.8441605847D-02 Coefficients=  1.0000000000D+00
 P 4 1.00
     Exponent=  4.9200380510D+01 Coefficients=  5.5552416751D-03
     Exponent=  1.1346790537D+01 Coefficients=  3.8052379723D-02
     Exponent=  3.4273972411D+00 Coefficients=  1.4953671029D-01
     Exponent=  1.1785525134D+00 Coefficients=  3.4949305230D-01
 P 1 1.00
     Exponent=  4.1642204972D-01 Coefficients=  4.5843153697D-01
 P 1 1.00
     Exponent=  1.4260826011D-01 Coefficients=  2.4428771672D-01
 D 1 1.00
     Exponent=  1.6540000000D+00 Coefficients=  1.0000000000D+00
 D 1 1.00
     Exponent=  4.6900000000D-01 Coefficients=  1.0000000000D+00
 D 1 1.00
     Exponent=  1.2829642058D-01 Coefficients=  1.0000000000D+00
 F 1 1.00
     Exponent=  1.0930000000D+00 Coefficients=  1.0000000000D+00
 ****
 Ernie: Thresh=  0.10000D-02 Tol=  0.10000D-05 Strict=F.
 There are    85 symmetry adapted cartesian basis functions of A'  symmetry.
 There are    46 symmetry adapted cartesian basis functions of A"  symmetry.
 There are    75 symmetry adapted basis functions of A'  symmetry.
 There are    44 symmetry adapted basis functions of A"  symmetry.
   119 basis functions,   171 primitive gaussians,   131 cartesian basis functions
     9 alpha electrons        9 beta electrons
       nuclear repulsion energy        42.1215507304 Hartrees.
 IExCor= 4639 DFT=T Ex+Corr=wB97XD ExCW=0 ScaHFX=  1.000000
 ScaDFX=  1.000000  1.000000  1.000000  1.000000 ScalE2=  1.000000  1.000000
 IRadAn=      5 IRanWt=     -1 IRanGd=            0 ICorTp=0 IEmpDi=121
 HFx  wShort=  0.000000 wLong=  0.200000 cFull=  0.222036 cShort=  0.000000 cLong=  0.777964
 DFx  wShort=  0.000000 wLong=  0.200000 cFull=  0.000000 cShort=  0.000000 cLong=  1.000000
 NAtoms=    7 NActive=    7 NUniq=    5 SFac= 1.96D+00 NAtFMM=   60 NAOKFM=F Big=F
 Integral buffers will be    131072 words long.
 Raffenetti 1 integral format.
 Two-electron integral symmetry is turned on.
 R6Disp:  Grimme-D2 Dispersion energy=       -0.0013223148 Hartrees.
 Nuclear repulsion after empirical dispersion term =       42.1202284157 Hartrees.
 Leave Link  301 at Sun Feb 27 06:40:16 2022, MaxMem=  8589934592 cpu:               1.8 elap:               0.3
 (Enter /home/rr/g16/l302.exe)
 NPDir=0 NMtPBC=     1 NCelOv=     1 NCel=       1 NClECP=     1 NCelD=      1
         NCelK=      1 NCelE2=     1 NClLst=     1 CellRange=     0.0.
 One-electron integrals computed using PRISM.
 One-electron integral symmetry used in STVInt
 NBasis=   119 RedAO= T EigKep=  2.85D-05  NBF=    75    44
 NBsUse=   119 1.00D-06 EigRej= -1.00D+00 NBFU=    75    44
 Precomputing XC quadrature grid using
 IXCGrd= 4 IRadAn=           5 IRanWt=          -1 IRanGd=           0 AccXCQ= 0.00D+00.
 Generated NRdTot=       0 NPtTot=           0 NUsed=           0 NTot=          32
 NSgBfM=   131   131   131   131   131 MxSgAt=     7 MxSgA2=     7.
 Leave Link  302 at Sun Feb 27 06:40:17 2022, MaxMem=  8589934592 cpu:               3.2 elap:               0.5
 (Enter /home/rr/g16/l303.exe)
 DipDrv:  MaxL=1.
 Leave Link  303 at Sun Feb 27 06:40:17 2022, MaxMem=  8589934592 cpu:               1.0 elap:               0.3
 (Enter /home/rr/g16/l308.exe)
 Leave Link  308 at Sun Feb 27 06:40:18 2022, MaxMem=  8589934592 cpu:               0.7 elap:               0.2
 (Enter /home/rr/g16/l401.exe)
 ExpMin= 4.85D-02 ExpMax= 1.97D+04 ExpMxC= 6.73D+02 IAcc=3 IRadAn=         5 AccDes= 0.00D+00
 Harris functional with IExCor= 4639 and IRadAn=       5 diagonalized for initial guess.
 HarFok:  IExCor= 4639 AccDes= 0.00D+00 IRadAn=         5 IDoV= 1 UseB2=F ITyADJ=14
 ICtDFT=  3500011 ScaDFX=  1.000000  1.000000  1.000000  1.000000
 FoFCou: FMM=F IPFlag=           0 FMFlag=      100000 FMFlg1=           0
         NFxFlg=           0 DoJE=T BraDBF=F KetDBF=T FulRan=T
         wScrn=  0.000000 ICntrl=       500 IOpCl=  0 I1Cent=   200000004 NGrid=           0
         NMat0=    1 NMatS0=      1 NMatT0=    0 NMatD0=    1 NMtDS0=    0 NMtDT0=    0
 Petite list used in FoFCou.
 Harris En= -91.3971300478379    
 JPrj=0 DoOrth=F DoCkMO=F.
 Initial guess orbital symmetries:
       Occupied  (A') (A') (A') (A') (A") (A') (A') (A") (A')
       Virtual   (A') (A') (A") (A') (A") (A') (A') (A") (A') (A')
                 (A") (A') (A') (A") (A') (A') (A") (A') (A') (A")
                 (A") (A') (A") (A') (A') (A') (A") (A") (A') (A")
                 (A') (A') (A") (A') (A') (A') (A") (A') (A") (A')
                 (A') (A") (A') (A') (A") (A') (A') (A") (A') (A")
                 (A') (A') (A") (A') (A") (A") (A') (A') (A") (A')
                 (A') (A") (A") (A') (A') (A') (A') (A") (A") (A')
                 (A') (A') (A") (A') (A') (A") (A') (A') (A") (A')
                 (A") (A') (A") (A') (A") (A') (A") (A') (A') (A')
                 (A") (A') (A") (A') (A") (A") (A') (A') (A') (A")
                 (A') (A") (A') (A") (A') (A') (A") (A') (A') (A')
 The electronic state of the initial guess is 1-A'.
 Leave Link  401 at Sun Feb 27 06:40:19 2022, MaxMem=  8589934592 cpu:               6.4 elap:               1.0
 (Enter /home/rr/g16/l502.exe)
 Keep R1 ints in memory in symmetry-blocked form, NReq=76646406.
 FoFCou: FMM=F IPFlag=           0 FMFlag=           0 FMFlg1=           0
         NFxFlg=           0 DoJE=F BraDBF=F KetDBF=F FulRan=T
         wScrn=  0.000000 ICntrl=       600 IOpCl=  0 I1Cent=           0 NGrid=           0
         NMat0=    1 NMatS0=   7140 NMatT0=    0 NMatD0=    1 NMtDS0=    0 NMtDT0=    0
 Petite list used in FoFCou.
 Closed shell SCF:
 Using DIIS extrapolation, IDIIS=  1040.
 NGot=  8589934592 LenX=  8577060436 LenY=  8577042834
 Requested convergence on RMS density matrix=1.00D-08 within 100 cycles.
 Requested convergence on MAX density matrix=1.00D-06.
 Requested convergence on             energy=1.00D-06.
 No special actions if energy rises.

 Cycle   1  Pass 1  IDiag  1:
 E= -95.8445135409479    
 DIIS: error= 5.93D-02 at cycle   1 NSaved=   1.
 NSaved= 1 IEnMin= 1 EnMin= -95.8445135409479     IErMin= 1 ErrMin= 5.93D-02
 ErrMax= 5.93D-02  0.00D+00 EMaxC= 1.00D-01 BMatC= 2.01D-01 BMatP= 2.01D-01
 IDIUse=3 WtCom= 4.07D-01 WtEn= 5.93D-01
 Coeff-Com:  0.100D+01
 Coeff-En:   0.100D+01
 Coeff:      0.100D+01
 Gap=     0.390 Goal=   None    Shift=    0.000
 GapD=    0.390 DampG=1.000 DampE=0.500 DampFc=0.5000 IDamp=-1.
 Damping current iteration by 5.00D-01
 RMSDP=3.44D-03 MaxDP=1.27D-01              OVMax= 4.20D-02

 Cycle   2  Pass 1  IDiag  1:
 E= -95.8561623669637     Delta-E=       -0.011648826016 Rises=F Damp=T
 DIIS: error= 2.94D-02 at cycle   2 NSaved=   2.
 NSaved= 2 IEnMin= 2 EnMin= -95.8561623669637     IErMin= 2 ErrMin= 2.94D-02
 ErrMax= 2.94D-02  0.00D+00 EMaxC= 1.00D-01 BMatC= 4.55D-02 BMatP= 2.01D-01
 IDIUse=3 WtCom= 7.06D-01 WtEn= 2.94D-01
 Coeff-Com: -0.874D+00 0.187D+01
 Coeff-En:   0.000D+00 0.100D+01
 Coeff:     -0.617D+00 0.162D+01
 Gap=     0.395 Goal=   None    Shift=    0.000
 RMSDP=1.83D-03 MaxDP=6.43D-02 DE=-1.16D-02 OVMax= 1.86D-02

 Cycle   3  Pass 1  IDiag  1:
 E= -95.8668800792852     Delta-E=       -0.010717712322 Rises=F Damp=F
 DIIS: error= 2.48D-03 at cycle   3 NSaved=   3.
 NSaved= 3 IEnMin= 3 EnMin= -95.8668800792852     IErMin= 3 ErrMin= 2.48D-03
 ErrMax= 2.48D-03  0.00D+00 EMaxC= 1.00D-01 BMatC= 6.06D-04 BMatP= 4.55D-02
 IDIUse=3 WtCom= 9.75D-01 WtEn= 2.48D-02
 Coeff-Com: -0.291D+00 0.625D+00 0.667D+00
 Coeff-En:   0.000D+00 0.000D+00 0.100D+01
 Coeff:     -0.284D+00 0.609D+00 0.675D+00
 Gap=     0.395 Goal=   None    Shift=    0.000
 RMSDP=1.74D-04 MaxDP=3.46D-03 DE=-1.07D-02 OVMax= 6.51D-03

 Cycle   4  Pass 1  IDiag  1:
 E= -95.8673914270838     Delta-E=       -0.000511347799 Rises=F Damp=F
 DIIS: error= 2.21D-04 at cycle   4 NSaved=   4.
 NSaved= 4 IEnMin= 4 EnMin= -95.8673914270838     IErMin= 4 ErrMin= 2.21D-04
 ErrMax= 2.21D-04  0.00D+00 EMaxC= 1.00D-01 BMatC= 9.00D-06 BMatP= 6.06D-04
 IDIUse=3 WtCom= 9.98D-01 WtEn= 2.21D-03
 Coeff-Com: -0.164D-01 0.364D-01 0.104D+00 0.876D+00
 Coeff-En:   0.000D+00 0.000D+00 0.000D+00 0.100D+01
 Coeff:     -0.164D-01 0.364D-01 0.104D+00 0.876D+00
 Gap=     0.393 Goal=   None    Shift=    0.000
 RMSDP=6.95D-05 MaxDP=1.66D-03 DE=-5.11D-04 OVMax= 9.35D-04

 Cycle   5  Pass 1  IDiag  1:
 E= -95.8673994396059     Delta-E=       -0.000008012522 Rises=F Damp=F
 DIIS: error= 1.38D-04 at cycle   5 NSaved=   5.
 NSaved= 5 IEnMin= 5 EnMin= -95.8673994396059     IErMin= 5 ErrMin= 1.38D-04
 ErrMax= 1.38D-04  0.00D+00 EMaxC= 1.00D-01 BMatC= 1.64D-06 BMatP= 9.00D-06
 IDIUse=3 WtCom= 9.99D-01 WtEn= 1.38D-03
 Coeff-Com:  0.194D-01-0.418D-01-0.190D-01 0.300D+00 0.741D+00
 Coeff-En:   0.000D+00 0.000D+00 0.000D+00 0.000D+00 0.100D+01
 Coeff:      0.194D-01-0.417D-01-0.190D-01 0.300D+00 0.742D+00
 Gap=     0.394 Goal=   None    Shift=    0.000
 RMSDP=4.26D-05 MaxDP=1.02D-03 DE=-8.01D-06 OVMax= 6.74D-04

 Cycle   6  Pass 1  IDiag  1:
 E= -95.8674010836907     Delta-E=       -0.000001644085 Rises=F Damp=F
 DIIS: error= 5.88D-05 at cycle   6 NSaved=   6.
 NSaved= 6 IEnMin= 6 EnMin= -95.8674010836907     IErMin= 6 ErrMin= 5.88D-05
 ErrMax= 5.88D-05  0.00D+00 EMaxC= 1.00D-01 BMatC= 1.96D-07 BMatP= 1.64D-06
 IDIUse=1 WtCom= 1.00D+00 WtEn= 0.00D+00
 Coeff-Com:  0.874D-02-0.187D-01-0.179D-01-0.382D-02 0.262D+00 0.770D+00
 Coeff:      0.874D-02-0.187D-01-0.179D-01-0.382D-02 0.262D+00 0.770D+00
 Gap=     0.394 Goal=   None    Shift=    0.000
 RMSDP=1.26D-05 MaxDP=3.01D-04 DE=-1.64D-06 OVMax= 2.16D-04

 Cycle   7  Pass 1  IDiag  1:
 E= -95.8674013082342     Delta-E=       -0.000000224543 Rises=F Damp=F
 DIIS: error= 6.59D-06 at cycle   7 NSaved=   7.
 NSaved= 7 IEnMin= 7 EnMin= -95.8674013082342     IErMin= 7 ErrMin= 6.59D-06
 ErrMax= 6.59D-06  0.00D+00 EMaxC= 1.00D-01 BMatC= 4.53D-09 BMatP= 1.96D-07
 IDIUse=1 WtCom= 1.00D+00 WtEn= 0.00D+00
 Coeff-Com: -0.212D-02 0.454D-02 0.279D-02-0.257D-01-0.672D-01-0.211D-01
 Coeff-Com:  0.111D+01
 Coeff:     -0.212D-02 0.454D-02 0.279D-02-0.257D-01-0.672D-01-0.211D-01
 Coeff:      0.111D+01
 Gap=     0.394 Goal=   None    Shift=    0.000
 RMSDP=5.86D-06 MaxDP=1.90D-04 DE=-2.25D-07 OVMax= 1.21D-04

 Cycle   8  Pass 1  IDiag  1:
 E= -95.8674013248059     Delta-E=       -0.000000016572 Rises=F Damp=F
 DIIS: error= 2.06D-06 at cycle   8 NSaved=   8.
 NSaved= 8 IEnMin= 8 EnMin= -95.8674013248059     IErMin= 8 ErrMin= 2.06D-06
 ErrMax= 2.06D-06  0.00D+00 EMaxC= 1.00D-01 BMatC= 2.10D-10 BMatP= 4.53D-09
 IDIUse=1 WtCom= 1.00D+00 WtEn= 0.00D+00
 Coeff-Com: -0.232D-03 0.498D-03 0.539D-03 0.232D-02-0.477D-02-0.266D-01
 Coeff-Com: -0.147D+00 0.118D+01
 Coeff:     -0.232D-03 0.498D-03 0.539D-03 0.232D-02-0.477D-02-0.266D-01
 Coeff:     -0.147D+00 0.118D+01
 Gap=     0.394 Goal=   None    Shift=    0.000
 RMSDP=1.51D-06 MaxDP=5.21D-05 DE=-1.66D-08 OVMax= 3.78D-05

 Cycle   9  Pass 1  IDiag  1:
 E= -95.8674013260057     Delta-E=       -0.000000001200 Rises=F Damp=F
 DIIS: error= 5.56D-07 at cycle   9 NSaved=   9.
 NSaved= 9 IEnMin= 9 EnMin= -95.8674013260057     IErMin= 9 ErrMin= 5.56D-07
 ErrMax= 5.56D-07  0.00D+00 EMaxC= 1.00D-01 BMatC= 1.49D-11 BMatP= 2.10D-10
 IDIUse=1 WtCom= 1.00D+00 WtEn= 0.00D+00
 Coeff-Com:  0.124D-03-0.267D-03-0.165D-03 0.145D-02 0.451D-02 0.156D-02
 Coeff-Com: -0.843D-01 0.222D-01 0.105D+01
 Coeff:      0.124D-03-0.267D-03-0.165D-03 0.145D-02 0.451D-02 0.156D-02
 Coeff:     -0.843D-01 0.222D-01 0.105D+01
 Gap=     0.394 Goal=   None    Shift=    0.000
 RMSDP=4.02D-07 MaxDP=1.20D-05 DE=-1.20D-09 OVMax= 1.02D-05

 Cycle  10  Pass 1  IDiag  1:
 E= -95.8674013260833     Delta-E=       -0.000000000078 Rises=F Damp=F
 DIIS: error= 1.20D-07 at cycle  10 NSaved=  10.
 NSaved=10 IEnMin=10 EnMin= -95.8674013260833     IErMin=10 ErrMin= 1.20D-07
 ErrMax= 1.20D-07  0.00D+00 EMaxC= 1.00D-01 BMatC= 7.79D-13 BMatP= 1.49D-11
 IDIUse=1 WtCom= 1.00D+00 WtEn= 0.00D+00
 Coeff-Com: -0.135D-04 0.291D-04 0.332D-05-0.441D-03-0.486D-03 0.180D-02
 Coeff-Com:  0.223D-01-0.770D-01-0.132D+00 0.119D+01
 Coeff:     -0.135D-04 0.291D-04 0.332D-05-0.441D-03-0.486D-03 0.180D-02
 Coeff:      0.223D-01-0.770D-01-0.132D+00 0.119D+01
 Gap=     0.394 Goal=   None    Shift=    0.000
 RMSDP=8.21D-08 MaxDP=1.84D-06 DE=-7.76D-11 OVMax= 2.13D-06

 Cycle  11  Pass 1  IDiag  1:
 E= -95.8674013260861     Delta-E=       -0.000000000003 Rises=F Damp=F
 DIIS: error= 2.33D-08 at cycle  11 NSaved=  11.
 NSaved=11 IEnMin=11 EnMin= -95.8674013260861     IErMin=11 ErrMin= 2.33D-08
 ErrMax= 2.33D-08  0.00D+00 EMaxC= 1.00D-01 BMatC= 2.77D-14 BMatP= 7.79D-13
 IDIUse=1 WtCom= 1.00D+00 WtEn= 0.00D+00
 Coeff-Com: -0.362D-05 0.774D-05 0.393D-05-0.228D-04-0.161D-03-0.107D-03
 Coeff-Com:  0.151D-02 0.353D-02-0.267D-01-0.111D+00 0.113D+01
 Coeff:     -0.362D-05 0.774D-05 0.393D-05-0.228D-04-0.161D-03-0.107D-03
 Coeff:      0.151D-02 0.353D-02-0.267D-01-0.111D+00 0.113D+01
 Gap=     0.394 Goal=   None    Shift=    0.000
 RMSDP=7.63D-09 MaxDP=1.30D-07 DE=-2.81D-12 OVMax= 3.73D-07

 SCF Done:  E(RwB97XD) =  -95.8674013261     A.U. after   11 cycles
            NFock= 11  Conv=0.76D-08     -V/T= 2.0053
 KE= 9.536263853771D+01 PE=-3.072045917504D+02 EE= 7.385432347091D+01
 Leave Link  502 at Sun Feb 27 06:40:24 2022, MaxMem=  8589934592 cpu:              29.7 elap:               4.3
 (Enter /home/rr/g16/l801.exe)
 DoSCS=F DFT=T ScalE2(SS,OS)=  1.000000  1.000000
 ExpMin= 4.85D-02 ExpMax= 1.97D+04 ExpMxC= 6.73D+02 IAcc=3 IRadAn=         5 AccDes= 0.00D+00
 HarFok:  IExCor=  205 AccDes= 0.00D+00 IRadAn=         5 IDoV=-2 UseB2=F ITyADJ=14
 ICtDFT= 12500011 ScaDFX=  1.000000  1.000000  1.000000  1.000000
 Largest valence mixing into a core orbital is  6.62D-05
 Largest core mixing into a valence orbital is  1.15D-05
 Range of M.O.s used for correlation:     3   119
 NBasis=   119 NAE=     9 NBE=     9 NFC=     2 NFV=     0
 NROrb=    117 NOA=     7 NOB=     7 NVA=   110 NVB=   110

 **** Warning!!: The largest alpha MO coefficient is  0.70950187D+02

 Leave Link  801 at Sun Feb 27 06:40:25 2022, MaxMem=  8589934592 cpu:               0.6 elap:               0.1
 (Enter /home/rr/g16/l914.exe)
 RHF ground state
 Keep R1, R2, and R3 ints in memory in symmetry-blocked form, NReq=1087728714.
 FoFCou: FMM=F IPFlag=           0 FMFlag=           0 FMFlg1=           0
         NFxFlg=           0 DoJE=F BraDBF=F KetDBF=F FulRan=T
         wScrn=  0.000000 ICntrl=       600 IOpCl=  0 I1Cent=           0 NGrid=           0
         NMat0=    1 NMatS0=   7140 NMatT0=    0 NMatD0=    1 NMtDS0=    0 NMtDT0=    0
 Petite list used in FoFCou.
 MDV=  8589934592 DFT=T DoStab=F Mixed=T DoRPA=T DoScal=F NonHer=T
 Making orbital integer symmetry assigments:
 Orbital symmetries:
       Occupied  (A') (A') (A') (A') (A") (A') (A') (A") (A')
       Virtual   (A') (A') (A") (A') (A") (A') (A') (A") (A') (A')
                 (A") (A') (A') (A") (A') (A') (A") (A') (A") (A')
                 (A") (A') (A") (A') (A') (A") (A') (A") (A') (A")
                 (A') (A') (A") (A') (A') (A') (A") (A') (A") (A')
                 (A') (A") (A') (A') (A") (A') (A') (A") (A') (A")
                 (A') (A') (A") (A') (A") (A") (A') (A') (A") (A')
                 (A") (A') (A") (A') (A') (A') (A') (A") (A") (A')
                 (A') (A') (A") (A') (A') (A") (A') (A') (A') (A")
                 (A") (A') (A") (A') (A") (A') (A") (A') (A') (A')
                 (A") (A') (A") (A') (A") (A") (A') (A') (A') (A")
                 (A') (A") (A') (A") (A') (A') (A") (A') (A') (A')
   770 initial guesses have been made.
 Convergence on wavefunction:    0.001000000000000
 Davidson Disk Diagonalization:  ConvIn= 1.00D-03 SkipCon=T Conv= 1.00D-03.
 Max sub-space:  4620 roots to seek:  1540 dimension of matrix:         1540
 *** WARNING: Number of orthogonal guesses is          770
 Iteration     1 Dimension   770 NMult     0 NNew    770
 CISAX will form   770 AO SS matrices at one time.
 NMat=   770 NSing=   770 JSym2X=-1.
 New state     14 was old state     15
 New state     15 was old state     14
 New state     17 was old state     19
 New state     19 was old state     17
 New state     21 was old state     22
 New state     22 was old state     21
 New state     24 was old state     25
 New state     25 was old state     24
 New state     26 was old state     29
 New state     27 was old state     26
 New state     28 was old state     27
 New state     29 was old state     28
 New state     30 was old state     31
 New state     31 was old state     30
 New state     32 was old state     34
 New state     33 was old state     32
 New state     34 was old state     33
 New state     38 was old state     40
 New state     39 was old state     41
 New state     40 was old state     38
 New state     41 was old state     44
 New state     43 was old state     39
 New state     44 was old state     43
 New state     46 was old state     48
 New state     47 was old state     49
 New state     48 was old state     47
 New state     49 was old state     46
 New state     50 was old state     51
 New state     51 was old state     52
 New state     52 was old state     54
 New state     53 was old state     50
 New state     54 was old state     53
 New state     55 was old state     57
 New state     57 was old state     59
 New state     58 was old state     55
 New state     59 was old state     58
 New state     60 was old state     61
 New state     61 was old state     65
 New state     62 was old state     63
 New state     63 was old state     62
 New state     64 was old state     60
 New state     65 was old state     68
 New state     66 was old state     67
 New state     67 was old state     66
 New state     68 was old state     69
 New state     69 was old state     64
 New state     71 was old state     72
 New state     72 was old state     74
 New state     73 was old state     75
 New state     74 was old state     71
 New state     75 was old state     78
 New state     76 was old state     80
 New state     77 was old state     73
 New state     78 was old state     82
 New state     79 was old state     76
 New state     80 was old state     79
 New state     81 was old state     83
 New state     82 was old state     77
 New state     83 was old state     84
 New state     84 was old state     87
 New state     86 was old state     81
 New state     87 was old state     86
 New state     88 was old state     92
 New state     89 was old state     88
 New state     90 was old state     89
 New state     92 was old state     90
 New state     93 was old state     94
 New state     94 was old state     93
 New state     95 was old state     96
 New state     96 was old state     98
 New state     97 was old state     99
 New state     98 was old state     97
 New state     99 was old state    102
 New state    100 was old state    101
 New state    101 was old state    114
 New state    102 was old state    110
 New state    103 was old state    106
 New state    104 was old state    103
 New state    105 was old state    100
 New state    106 was old state    104
 New state    107 was old state    105
 New state    108 was old state    109
 New state    109 was old state    122
 New state    110 was old state    107
 New state    111 was old state    108
 New state    112 was old state    123
 New state    113 was old state    119
 New state    114 was old state    111
 New state    116 was old state    117
 New state    117 was old state    112
 New state    118 was old state    113
 New state    119 was old state    118
 New state    120 was old state    130
 New state    121 was old state    116
 New state    122 was old state    121
 New state    123 was old state    125
 New state    124 was old state    120
 New state    125 was old state    124
 New state    126 was old state    129
 New state    127 was old state    126
 New state    128 was old state    127
 New state    129 was old state    139
 New state    130 was old state    136
 New state    132 was old state    128
 New state    133 was old state    132
 New state    134 was old state    137
 New state    135 was old state    133
 New state    136 was old state    138
 New state    137 was old state    140
 New state    138 was old state    135
 New state    139 was old state    134
 New state    140 was old state    141
 New state    141 was old state    142
 New state    142 was old state    143
 New state    143 was old state    147
 New state    144 was old state    145
 New state    145 was old state    153
 New state    146 was old state    144
 New state    147 was old state    148
 New state    148 was old state    151
 New state    149 was old state    146
 New state    151 was old state    158
 New state    152 was old state    149
 New state    153 was old state    160
 New state    155 was old state    152
 New state    156 was old state    159
 New state    158 was old state    156
 New state    159 was old state    155
 New state    160 was old state    164
 New state    161 was old state    166
 New state    162 was old state    161
 New state    163 was old state    162
 New state    164 was old state    163
 New state    165 was old state    167
 New state    166 was old state    178
 New state    167 was old state    175
 New state    168 was old state    172
 New state    169 was old state    165
 New state    170 was old state    168
 New state    171 was old state    170
 New state    172 was old state    169
 New state    173 was old state    171
 New state    174 was old state    176
 New state    175 was old state    173
 New state    176 was old state    179
 New state    177 was old state    174
 New state    178 was old state    182
 New state    179 was old state    181
 New state    180 was old state    177
 New state    181 was old state    180
 New state    182 was old state    184
 New state    183 was old state    186
 New state    184 was old state    193
 New state    185 was old state    188
 New state    186 was old state    190
 New state    187 was old state    185
 New state    188 was old state    183
 New state    189 was old state    191
 New state    190 was old state    187
 New state    191 was old state    192
 New state    192 was old state    195
 New state    193 was old state    189
 New state    195 was old state    196
 New state    196 was old state    199
 New state    197 was old state    198
 New state    198 was old state    208
 New state    199 was old state    202
 New state    200 was old state    197
 New state    201 was old state    200
 New state    202 was old state    204
 New state    204 was old state    212
 New state    205 was old state    209
 New state    206 was old state    205
 New state    208 was old state    201
 New state    209 was old state    217
 New state    210 was old state    213
 New state    211 was old state    206
 New state    212 was old state    219
 New state    213 was old state    211
 New state    215 was old state    216
 New state    216 was old state    210
 New state    217 was old state    229
 New state    218 was old state    215
 New state    219 was old state    218
 New state    220 was old state    223
 New state    221 was old state    220
 New state    222 was old state    221
 New state    223 was old state    224
 New state    224 was old state    226
 New state    226 was old state    232
 New state    227 was old state    230
 New state    228 was old state    222
 New state    229 was old state    236
 New state    230 was old state    233
 New state    231 was old state    228
 New state    232 was old state    227
 New state    233 was old state    234
 New state    234 was old state    231
 New state    235 was old state    239
 New state    236 was old state    240
 New state    237 was old state    235
 New state    238 was old state    241
 New state    239 was old state    238
 New state    240 was old state    244
 New state    241 was old state    243
 New state    242 was old state    249
 New state    243 was old state    237
 New state    244 was old state    242
 New state    245 was old state    255
 New state    246 was old state    245
 New state    249 was old state    253
 New state    250 was old state    246
 New state    251 was old state    254
 New state    252 was old state    251
 New state    253 was old state    252
 New state    254 was old state    263
 New state    255 was old state    258
 New state    256 was old state    265
 New state    257 was old state    266
 New state    258 was old state    256
 New state    259 was old state    262
 New state    260 was old state    261
 New state    261 was old state    260
 New state    262 was old state    257
 New state    263 was old state    259
 New state    264 was old state    268
 New state    265 was old state    267
 New state    266 was old state    271
 New state    267 was old state    264
 New state    268 was old state    269
 New state    269 was old state    277
 New state    271 was old state    272
 New state    272 was old state    278
 New state    273 was old state    275
 New state    274 was old state    281
 New state    275 was old state    276
 New state    276 was old state    273
 New state    277 was old state    280
 New state    278 was old state    279
 New state    279 was old state    274
 New state    280 was old state    283
 New state    281 was old state    284
 New state    283 was old state    289
 New state    284 was old state    288
 New state    285 was old state    287
 New state    286 was old state    296
 New state    287 was old state    285
 New state    288 was old state    286
 New state    289 was old state    294
 New state    291 was old state    292
 New state    292 was old state    291
 New state    293 was old state    295
 New state    294 was old state    293
 New state    295 was old state    297
 New state    296 was old state    298
 New state    297 was old state    304
 New state    298 was old state    299
 New state    299 was old state    300
 New state    300 was old state    302
 New state    301 was old state    303
 New state    302 was old state    305
 New state    303 was old state    309
 New state    304 was old state    310
 New state    305 was old state    301
 New state    306 was old state    312
 New state    307 was old state    313
 New state    308 was old state    307
 New state    309 was old state    306
 New state    310 was old state    308
 New state    312 was old state    315
 No map to state    313
 New state    315 was old state    316
 New state    316 was old state    324
 New state    317 was old state    319
 New state    318 was old state    317
 New state    319 was old state    318
 New state    320 was old state    322
 New state    321 was old state    320
 New state    322 was old state    323
 New state    323 was old state    321
 New state    324 was old state    325
 New state    325 was old state    328
 New state    327 was old state    329
 New state    328 was old state    331
 New state    329 was old state    327
 New state    330 was old state    335
 New state    331 was old state    333
 New state    332 was old state    330
 New state    333 was old state    340
 New state    334 was old state    332
 New state    335 was old state    336
 New state    336 was old state    334
 New state    337 was old state    339
 New state    338 was old state    343
 New state    339 was old state    337
 New state    340 was old state    338
 New state    342 was old state    349
 New state    343 was old state    344
 New state    344 was old state    342
 New state    349 was old state    351
 New state    350 was old state    356
 New state    351 was old state    350
 New state    352 was old state    353
 New state    353 was old state    352
 New state    356 was old state    357
 New state    357 was old state    358
 No map to state    358
 New state    359 was old state    360
 New state    360 was old state    359
 New state    362 was old state    363
 New state    363 was old state    362
 New state    364 was old state    365
 New state    365 was old state    366
 New state    366 was old state    368
 New state    367 was old state    364
 New state    368 was old state    367
 New state    369 was old state    370
 New state    370 was old state    371
 New state    371 was old state    369
 New state    373 was old state    375
 New state    375 was old state    373
 New state    378 was old state    379
 New state    379 was old state    380
 New state    380 was old state    378
 New state    384 was old state    385
 New state    385 was old state    386
 New state    386 was old state    384
 New state    387 was old state    388
 New state    388 was old state    389
 New state    389 was old state    387
 New state    390 was old state    391
 New state    391 was old state    390
 New state    393 was old state    396
 New state    394 was old state    393
 New state    396 was old state    394
 New state    397 was old state    398
 New state    398 was old state    397
 New state    399 was old state    401
 New state    401 was old state    403
 New state    402 was old state    399
 New state    403 was old state    402
 New state    404 was old state    405
 New state    405 was old state    406
 New state    406 was old state    404
 New state    410 was old state    411
 New state    411 was old state    412
 New state    412 was old state    410
 New state    414 was old state    415
 New state    415 was old state    414
 New state    422 was old state    423
 New state    423 was old state    422
 New state    428 was old state    429
 New state    429 was old state    428
 New state    431 was old state    432
 New state    432 was old state    431
 New state    433 was old state    434
 New state    434 was old state    433
 New state    436 was old state    437
 New state    437 was old state    440
 New state    438 was old state    436
 New state    439 was old state    438
 New state    440 was old state    439
 New state    442 was old state    445
 New state    443 was old state    444
 New state    444 was old state    442
 New state    445 was old state    443
 New state    447 was old state    448
 New state    448 was old state    447
 New state    453 was old state    454
 New state    454 was old state    453
 New state    455 was old state    456
 New state    456 was old state    458
 New state    458 was old state    459
 New state    459 was old state    460
 New state    460 was old state    455
 New state    461 was old state    463
 New state    462 was old state    461
 New state    463 was old state    462
 New state    465 was old state    466
 New state    466 was old state    468
 New state    467 was old state    465
 New state    468 was old state    467
 New state    469 was old state    470
 New state    470 was old state    469
 New state    471 was old state    472
 New state    472 was old state    471
 New state    474 was old state    475
 New state    475 was old state    476
 New state    476 was old state    474
 New state    478 was old state    479
 New state    479 was old state    478
 New state    481 was old state    482
 New state    482 was old state    481
 New state    487 was old state    488
 New state    488 was old state    489
 New state    489 was old state    487
 New state    493 was old state    496
 New state    495 was old state    493
 New state    496 was old state    500
 New state    497 was old state    499
 New state    498 was old state    497
 New state    499 was old state    495
 New state    500 was old state    498
 New state    504 was old state    505
 New state    505 was old state    508
 New state    507 was old state    504
 New state    508 was old state    511
 New state    511 was old state    513
 New state    512 was old state    507
 New state    513 was old state    514
 New state    514 was old state    512
 New state    522 was old state    524
 New state    523 was old state    522
 New state    524 was old state    523
 New state    526 was old state    527
 New state    527 was old state    530
 New state    528 was old state    526
 New state    530 was old state    528
 New state    531 was old state    533
 New state    532 was old state    531
 New state    533 was old state    532
 New state    534 was old state    535
 New state    535 was old state    534
 New state    536 was old state    539
 New state    537 was old state    538
 New state    538 was old state    537
 New state    539 was old state    536
 New state    540 was old state    542
 New state    541 was old state    540
 New state    542 was old state    544
 New state    543 was old state    541
 New state    544 was old state    543
 New state    545 was old state    549
 New state    546 was old state    548
 New state    548 was old state    545
 New state    549 was old state    546
 New state    551 was old state    553
 New state    553 was old state    551
 New state    554 was old state    555
 New state    555 was old state    554
 New state    556 was old state    557
 New state    557 was old state    556
 New state    559 was old state    560
 New state    560 was old state    559
 New state    563 was old state    564
 New state    564 was old state    563
 New state    565 was old state    567
 New state    567 was old state    565
 New state    568 was old state    570
 New state    570 was old state    568
 New state    571 was old state    572
 New state    572 was old state    571
 New state    574 was old state    577
 New state    575 was old state    578
 New state    577 was old state    575
 New state    578 was old state    574
 New state    579 was old state    581
 New state    580 was old state    579
 New state    581 was old state    582
 New state    582 was old state    580
 New state    585 was old state    586
 New state    586 was old state    585
 New state    587 was old state    588
 New state    588 was old state    587
 New state    589 was old state    590
 New state    590 was old state    592
 New state    591 was old state    595
 New state    592 was old state    589
 New state    595 was old state    591
 New state    596 was old state    599
 New state    597 was old state    598
 New state    598 was old state    597
 New state    599 was old state    596
 New state    601 was old state    602
 New state    602 was old state    601
 New state    604 was old state    605
 New state    605 was old state    604
 New state    607 was old state    608
 New state    608 was old state    607
 New state    609 was old state    610
 New state    610 was old state    609
 New state    613 was old state    614
 New state    614 was old state    613
 New state    619 was old state    620
 New state    620 was old state    621
 New state    621 was old state    619
 New state    622 was old state    623
 New state    623 was old state    622
 New state    629 was old state    630
 New state    630 was old state    629
 New state    636 was old state    637
 New state    637 was old state    636
 New state    640 was old state    641
 New state    641 was old state    640
 New state    650 was old state    651
 New state    651 was old state    650
 New state    652 was old state    654
 New state    653 was old state    655
 New state    654 was old state    653
 New state    655 was old state    652
 New state    664 was old state    665
 New state    665 was old state    664
 New state    668 was old state    669
 New state    669 was old state    668
 New state    672 was old state    673
 New state    673 was old state    672
 New state    679 was old state    680
 New state    680 was old state    679
 New state    682 was old state    683
 New state    683 was old state    682
 New state    684 was old state    685
 New state    685 was old state    684
 New state    687 was old state    688
 New state    688 was old state    687
 New state    690 was old state    693
 New state    692 was old state    690
 New state    693 was old state    694
 New state    694 was old state    692
 New state    700 was old state    701
 New state    701 was old state    700
 New state    704 was old state    707
 New state    706 was old state    704
 New state    707 was old state    706
 New state    710 was old state    711
 New state    711 was old state    710
 New state    713 was old state    717
 New state    714 was old state    713
 New state    717 was old state    714
 New state    723 was old state    724
 New state    724 was old state    725
 New state    725 was old state    723
 New state    726 was old state    727
 New state    727 was old state    726
 New state    728 was old state    729
 New state    729 was old state    733
 New state    731 was old state    728
 New state    732 was old state    734
 New state    733 was old state    731
 New state    734 was old state    732
 New state    735 was old state    736
 New state    736 was old state    735
 New state    738 was old state    739
 New state    739 was old state    738
 New state    740 was old state    741
 New state    741 was old state    740
 New state    744 was old state    745
 New state    745 was old state    744
 Excitation Energies [eV] at current iteration:
 Root      1 :     6.062931821185637
 Root      2 :     7.238715088117965
 Root      3 :     7.761953390580230
 Root      4 :     8.370397174325149
 Root      5 :     8.845630069596060
 Root      6 :     9.157745259845937
 Root      7 :     9.337645547536905
 Root      8 :     9.654761793817524
 Root      9 :    10.024222288201160
 Root     10 :    10.397194374556200
 Root     11 :    10.546798340529920
 Root     12 :    10.738326993413750
 Root     13 :    10.960251407844980
 Root     14 :    11.108444638795500
 Root     15 :    11.433307805154890
 Root     16 :    11.560954719852150
 Root     17 :    11.641950789635850
 Root     18 :    11.682058831074400
 Root     19 :    11.896127507426740
 Root     20 :    12.191269677894760
 Root     21 :    12.285863466656460
 Root     22 :    12.340677720747390
 Root     23 :    12.425249094221820
 Root     24 :    12.560755578801540
 Root     25 :    12.600627429811370
 Root     26 :    12.637596764463770
 Root     27 :    12.752193503585310
 Root     28 :    12.864325423147320
 Root     29 :    12.913031937933530
 Root     30 :    13.140174996788410
 Root     31 :    13.223746985024300
 Root     32 :    13.384076961486980
 Root     33 :    13.452890247531750
 Root     34 :    13.507549452144100
 Root     35 :    13.719897161319510
 Root     36 :    13.735820658660480
 Root     37 :    13.752625665442500
 Root     38 :    13.867524748797290
 Root     39 :    13.888306738691700
 Root     40 :    13.888855449406530
 Root     41 :    14.127633551406010
 Root     42 :    14.212581611320530
 Root     43 :    14.246465623633000
 Root     44 :    14.308116619200050
 Root     45 :    14.512431268163190
 Root     46 :    14.662610390768490
 Root     47 :    14.726283933501090
 Root     48 :    14.755470333231570
 Root     49 :    14.788020075469480
 Root     50 :    14.996334436235640
 Root     51 :    15.001633456666630
 Root     52 :    15.200388173093600
 Root     53 :    15.203578794964560
 Root     54 :    15.325878381972850
 Root     55 :    15.442904045406970
 Root     56 :    15.481946148709690
 Root     57 :    15.596773138394000
 Root     58 :    15.609265220713940
 Root     59 :    15.707637550900410
 Root     60 :    15.793868224002080
 Root     61 :    15.849247413901680
 Root     62 :    15.885940892049660
 Root     63 :    16.038550360734230
 Root     64 :    16.049417155671450
 Root     65 :    16.191605034856040
 Root     66 :    16.254239383230690
 Root     67 :    16.319088588198310
 Root     68 :    16.336980262491750
 Root     69 :    16.518019137000530
 Root     70 :    16.525532281669240
 Root     71 :    16.694337526848380
 Root     72 :    16.716712272228680
 Root     73 :    16.733719352027670
 Root     74 :    16.840004223658700
 Root     75 :    16.917341311922990
 Root     76 :    16.940118438236780
 Root     77 :    17.052915974490340
 Root     78 :    17.117408991334930
 Root     79 :    17.146487810664500
 Root     80 :    17.269727699265890
 Root     81 :    17.282592907315380
 Root     82 :    17.298640495569580
 Root     83 :    17.422503749705750
 Root     84 :    17.473874974563510
 Root     85 :    17.485828322686370
 Root     86 :    17.508487146046810
 Root     87 :    17.599237598523320
 Root     88 :    17.867490669510560
 Root     89 :    17.876282389388620
 Root     90 :    17.947089364951300
 Root     91 :    18.058536592594340
 Root     92 :    18.098948664155400
 Root     93 :    18.120468318925930
 Root     94 :    18.219053792247340
 Root     95 :    18.315608174498820
 Root     96 :    18.318703538035050
 Root     97 :    18.343550993350200
 Root     98 :    18.431347564859300
 Root     99 :    18.520749365793060
 Root    100 :    18.607879263344830
 Root    101 :    18.648355497651660
 Root    102 :    18.909079380622330
 Root    103 :    18.942229612825350
 Root    104 :    18.994641992060020
 Root    105 :    19.027967534833000
 Root    106 :    19.104735407144090
 Root    107 :    19.164612600627980
 Root    108 :    19.296964088816430
 Root    109 :    19.319941562485970
 Root    110 :    19.358030569054790
 Root    111 :    19.399605331309600
 Root    112 :    19.420550449749040
 Root    113 :    19.479177984487300
 Root    114 :    19.539629297309570
 Root    115 :    19.574828738315710
 Root    116 :    19.654235230053670
 Root    117 :    19.699108642135730
 Root    118 :    19.779383071046510
 Root    119 :    19.819969838380700
 Root    120 :    19.841721417878950
 Root    121 :    20.025464451477580
 Root    122 :    20.116627960090200
 Root    123 :    20.173546284290980
 Root    124 :    20.206632882354260
 Root    125 :    20.289021755346830
 Root    126 :    20.395924294416020
 Root    127 :    20.462457767728070
 Root    128 :    20.561856895286620
 Root    129 :    20.677772079931590
 Root    130 :    20.691439668272100
 Root    131 :    20.782622902535910
 Root    132 :    20.826618578114900
 Root    133 :    20.895353149267110
 Root    134 :    21.035935288083320
 Root    135 :    21.063517240902620
 Root    136 :    21.185974359339410
 Root    137 :    21.195795160249440
 Root    138 :    21.230816982351830
 Root    139 :    21.255868524914610
 Root    140 :    21.316322486727540
 Root    141 :    21.503456318319130
 Root    142 :    21.531596466372650
 Root    143 :    21.609977904592670
 Root    144 :    21.675359993958100
 Root    145 :    21.799475653884820
 Root    146 :    21.871309542901910
 Root    147 :    21.984597419481010
 Root    148 :    22.054228931596890
 Root    149 :    22.155815862171630
 Root    150 :    22.215088740041350
 Root    151 :    22.279376952016760
 Root    152 :    22.304643482720380
 Root    153 :    22.437444411454370
 Root    154 :    22.549868917904370
 Root    155 :    22.635070301211870
 Root    156 :    22.674164471274150
 Root    157 :    22.743436586364120
 Root    158 :    22.861168214589100
 Root    159 :    22.954711044538740
 Root    160 :    22.978523771997790
 Root    161 :    23.083389048484300
 Root    162 :    23.144878919612620
 Root    163 :    23.175339831976040
 Root    164 :    23.358809394527110
 Root    165 :    23.381139136453890
 Root    166 :    23.418370357714780
 Root    167 :    23.538064628455370
 Root    168 :    23.636438316505370
 Root    169 :    23.669787692538330
 Root    170 :    23.760670867533060
 Root    171 :    23.787125180832120
 Root    172 :    23.868262341100820
 Root    173 :    23.988749782930880
 Root    174 :    24.036446180226010
 Root    175 :    24.122532247540630
 Root    176 :    24.185328448684340
 Root    177 :    24.257583532959880
 Root    178 :    24.320862138670070
 Root    179 :    24.364589617339730
 Root    180 :    24.421065238164570
 Root    181 :    24.574729324480440
 Root    182 :    24.741766874348500
 Root    183 :    24.821603671617490
 Root    184 :    25.047666776288760
 Root    185 :    25.064519831343240
 Root    186 :    25.081055124552520
 Root    187 :    25.227070496311870
 Root    188 :    25.244959457374350
 Root    189 :    25.378900943697360
 Root    190 :    25.399363004281920
 Root    191 :    25.537780515631870
 Root    192 :    25.633850492228690
 Root    193 :    25.665525022554900
 Root    194 :    25.782188367055510
 Root    195 :    25.896468115114660
 Root    196 :    25.914156956105870
 Root    197 :    25.921338367187720
 Root    198 :    25.998915069873990
 Root    199 :    26.010730657287110
 Root    200 :    26.121577151539710
 Root    201 :    26.164792680336880
 Root    202 :    26.305571102060170
 Root    203 :    26.357367278062030
 Root    204 :    26.370294683075700
 Root    205 :    26.432104337421880
 Root    206 :    26.479565059805000
 Root    207 :    26.582745451051740
 Root    208 :    26.640132694233140
 Root    209 :    26.704358742831410
 Root    210 :    26.964771979531790
 Root    211 :    27.076530342513270
 Root    212 :    27.114077656797760
 Root    213 :    27.236768739218850
 Root    214 :    27.262364617701240
 Root    215 :    27.365706839614580
 Root    216 :    27.456017823948810
 Root    217 :    27.490636973246690
 Root    218 :    27.759528116061230
 Root    219 :    27.882110077358770
 Root    220 :    27.941764866543820
 Root    221 :    27.989331748654270
 Root    222 :    28.104521507437240
 Root    223 :    28.270122201744380
 Root    224 :    28.294429426412770
 Root    225 :    28.458929725723290
 Root    226 :    28.481186617358170
 Root    227 :    28.540226156576790
 Root    228 :    28.583156148719940
 Root    229 :    28.679260749036860
 Root    230 :    28.816587117444680
 Root    231 :    28.837121249542220
 Root    232 :    28.900639552179940
 Root    233 :    28.977018916041930
 Root    234 :    29.009269394221370
 Root    235 :    29.132623919957500
 Root    236 :    29.326064957868980
 Root    237 :    29.340524590836010
 Root    238 :    29.496894347394930
 Root    239 :    29.506595646533420
 Root    240 :    29.686416392370890
 Root    241 :    29.749287394244520
 Root    242 :    29.841152520549220
 Root    243 :    30.017292745347150
 Root    244 :    30.145696572034600
 Root    245 :    30.201342474831740
 Root    246 :    30.390878000638690
 Root    247 :    30.433062404233920
 Root    248 :    30.473314018510650
 Root    249 :    30.495741416289760
 Root    250 :    30.581348692091170
 Root    251 :    30.762903630258190
 Root    252 :    30.858479025769740
 Root    253 :    30.998209611185620
 Root    254 :    31.061099360229540
 Root    255 :    31.064764109922550
 Root    256 :    31.272179257410930
 Root    257 :    31.281805411588080
 Root    258 :    31.310042902079120
 Root    259 :    31.333247837927210
 Root    260 :    31.552014098791670
 Root    261 :    31.565860069371670
 Root    262 :    31.585463891660460
 Root    263 :    31.626188267581930
 Root    264 :    31.693744421290370
 Root    265 :    31.754285120714480
 Root    266 :    31.889785490798740
 Root    267 :    32.035018814478780
 Root    268 :    32.188090492158300
 Root    269 :    32.276180400975550
 Root    270 :    32.415696457462570
 Root    271 :    32.454373715881680
 Root    272 :    32.592041776315570
 Root    273 :    32.707912146766800
 Root    274 :    32.804925984831590
 Root    275 :    32.948757374339770
 Root    276 :    32.998955184026410
 Root    277 :    33.168191945201520
 Root    278 :    33.362061031755250
 Root    279 :    33.488271704195660
 Root    280 :    33.525795245850600
 Root    281 :    33.600523844554820
 Root    282 :    33.716808621256500
 Root    283 :    33.871658047477470
 Root    284 :    33.973050142082090
 Root    285 :    34.155961840759510
 Root    286 :    34.302641604986990
 Root    287 :    34.536279721788700
 Root    288 :    34.543056768959370
 Root    289 :    34.591710607802110
 Root    290 :    34.615194809356140
 Root    291 :    34.756566909637320
 Root    292 :    34.828422143808920
 Root    293 :    34.876620354214340
 Root    294 :    34.961426104193200
 Root    295 :    35.012862145215460
 Root    296 :    35.086155068605870
 Root    297 :    35.144899436843130
 Root    298 :    35.638607327409480
 Root    299 :    35.732058458171370
 Root    300 :    35.864033217813880
 Root    301 :    35.906721889286150
 Root    302 :    36.253440486069280
 Root    303 :    36.350773529906140
 Root    304 :    36.573678669251020
 Root    305 :    36.640259726988670
 Root    306 :    36.739265085096310
 Root    307 :    36.816411379952360
 Root    308 :    36.916752732664270
 Root    309 :    36.941255940988680
 Root    310 :    37.052636024570270
 Root    311 :    37.221265893467980
 Root    312 :    37.310839111458290
 Root    313 :    37.333627402008120
 Root    314 :    37.502970018469360
 Root    315 :    37.873940730348420
 Root    316 :    38.170387295406480
 Root    317 :    38.258359355058620
 Root    318 :    38.372631017155940
 Root    319 :    38.778985358047210
 Root    320 :    39.030505647111940
 Root    321 :    39.193429953661880
 Root    322 :    39.354844945518920
 Root    323 :    39.584600810484030
 Root    324 :    39.779704294567590
 Root    325 :    39.992319164336430
 Root    326 :    40.171847919067130
 Root    327 :    40.222360491177650
 Root    328 :    40.373565946923760
 Root    329 :    40.611148028861620
 Root    330 :    40.679161861626120
 Root    331 :    40.885298879495920
 Root    332 :    41.202279470316210
 Root    333 :    41.438476565806190
 Root    334 :    41.664553007693490
 Root    335 :    41.997576738376060
 Root    336 :    42.055413199069320
 Root    337 :    42.462708866761000
 Root    338 :    42.945393960454600
 Root    339 :    43.073119862867160
 Root    340 :    43.127344653943000
 Root    341 :    43.155552224689320
 Root    342 :    43.478187772029350
 Root    343 :    43.762751608997010
 Root    344 :    43.862446759478590
 Root    345 :    44.085462613677670
 Root    346 :    44.314020938379720
 Root    347 :    44.445385337748480
 Root    348 :    44.672503398427280
 Root    349 :    45.351659578787280
 Root    350 :    45.389419704488570
 Root    351 :    45.751366859252410
 Root    352 :    46.572730292327100
 Root    353 :    46.597078714999000
 Root    354 :    47.235086333133100
 Root    355 :    47.318655121056960
 Root    356 :    47.700765488358390
 Root    357 :    47.819960875073260
 Root    358 :    47.927332411974540
 Root    359 :    48.357953098357110
 Root    360 :    48.460449854668620
 Root    361 :    48.586865606707480
 Root    362 :    48.947608545026330
 Root    363 :    49.094080649363140
 Root    364 :    49.361734138741700
 Root    365 :    49.424366849540020
 Root    366 :    49.913460104201160
 Root    367 :    49.945806060765970
 Root    368 :    50.006647519162140
 Root    369 :    50.168358381065050
 Root    370 :    50.462717111993780
 Root    371 :    50.638147809242120
 Root    372 :    51.102158122241210
 Root    373 :    51.402032134374030
 Root    374 :    51.735252104544940
 Root    375 :    51.941491528968920
 Root    376 :    52.550966171660010
 Root    377 :    52.772577133520360
 Root    378 :    52.880239779768610
 Root    379 :    52.925275208661890
 Root    380 :    53.069118095790540
 Root    381 :    53.329683325786890
 Root    382 :    53.543909001788360
 Root    383 :    53.836019928161230
 Root    384 :    54.525148973777620
 Root    385 :    54.893749527277930
 Root    386 :    55.114768303317610
 Root    387 :    55.175584545622570
 Root    388 :    55.259002863726390
 Root    389 :    55.449384866607500
 Root    390 :    55.573101170046480
 Root    391 :    55.864075048758450
 Root    392 :    56.132082821771160
 Root    393 :    56.210387376388650
 Root    394 :    56.370451062998950
 Root    395 :    56.759068352374700
 Root    396 :    56.942906769700500
 Root    397 :    56.958257361687000
 Root    398 :    57.017767400963140
 Root    399 :    57.410580303473650
 Root    400 :    57.706651983315550
 Root    401 :    57.740165170291490
 Root    402 :    57.800454556625490
 Root    403 :    57.850975230381500
 Root    404 :    58.093858737176210
 Root    405 :    58.220516625687430
 Root    406 :    58.367531946446820
 Root    407 :    58.447936405226360
 Root    408 :    58.663217610828410
 Root    409 :    59.275591251546150
 Root    410 :    59.411777681878780
 Root    411 :    59.679891627847330
 Root    412 :    59.736530807822230
 Root    413 :    60.119434195010830
 Root    414 :    60.424402889828850
 Root    415 :    60.523227927801340
 Root    416 :    60.524200416488700
 Root    417 :    60.867454412927830
 Root    418 :    60.973632026812360
 Root    419 :    61.389404975453470
 Root    420 :    61.512144654800440
 Root    421 :    61.718102837232970
 Root    422 :    62.018403915496740
 Root    423 :    62.096093887923990
 Root    424 :    62.242219446300620
 Root    425 :    62.359340117700400
 Root    426 :    62.584902907497930
 Root    427 :    62.962681279087410
 Root    428 :    63.214802783198130
 Root    429 :    63.314962035024710
 Root    430 :    63.640681519465480
 Root    431 :    63.922527343118460
 Root    432 :    63.971678322006180
 Root    433 :    64.298622414886380
 Root    434 :    64.305093191256660
 Root    435 :    64.711974049204500
 Root    436 :    64.921846261542060
 Root    437 :    65.010918704171350
 Root    438 :    65.263764391873790
 Root    439 :    65.574328620275100
 Root    440 :    65.837504701430940
 Root    441 :    65.931470002675880
 Root    442 :    66.310785849871000
 Root    443 :    66.551216024183860
 Root    444 :    66.719771407423290
 Root    445 :    66.747742318570970
 Root    446 :    67.122359830787260
 Root    447 :    67.555745303585890
 Root    448 :    67.585756775623990
 Root    449 :    67.785005347774260
 Root    450 :    67.823248779253490
 Root    451 :    68.620257847657580
 Root    452 :    68.867044239380520
 Root    453 :    69.092308804331310
 Root    454 :    69.139584108519950
 Root    455 :    69.320216734492530
 Root    456 :    69.390440388910720
 Root    457 :    69.554217115336130
 Root    458 :    69.881314965666190
 Root    459 :    69.990055467788440
 Root    460 :    70.117806814456100
 Root    461 :    70.296194664749040
 Root    462 :    70.338868545108380
 Root    463 :    70.539996479714790
 Root    464 :    70.795219141179250
 Root    465 :    71.032903097894750
 Root    466 :    71.117655761786820
 Root    467 :    71.247230033551420
 Root    468 :    71.270746051015720
 Root    469 :    71.537431484098290
 Root    470 :    71.586460608050670
 Root    471 :    72.045744425478180
 Root    472 :    72.332205704197360
 Root    473 :    72.373285795213010
 Root    474 :    72.745628759240790
 Root    475 :    72.938024867196650
 Root    476 :    73.217652496543140
 Root    477 :    73.493733813169610
 Root    478 :    73.799328700680050
 Root    479 :    73.998101930853640
 Root    480 :    74.025210802391750
 Root    481 :    74.052501956753530
 Root    482 :    74.432870224739180
 Root    483 :    75.034150590010600
 Root    484 :    75.098979274104170
 Root    485 :    75.212143540328170
 Root    486 :    75.499676019843150
 Root    487 :    75.926891108609010
 Root    488 :    75.979709067391130
 Root    489 :    76.149608350678760
 Root    490 :    76.425746918531330
 Root    491 :    76.482378296110910
 Root    492 :    76.965063552430350
 Root    493 :    77.081472358755510
 Root    494 :    77.239940607618650
 Root    495 :    77.301177381548910
 Root    496 :    77.488629316161980
 Root    497 :    77.628960679691560
 Root    498 :    77.761079051098040
 Root    499 :    77.882448755720770
 Root    500 :    77.919286877357450
 Root    501 :    78.133027685925500
 Root    502 :    78.459393511890110
 Root    503 :    78.966916219431300
 Root    504 :    79.615151257030620
 Root    505 :    79.995945213624010
 Root    506 :    80.125113613908880
 Root    507 :    80.312829866326540
 Root    508 :    80.432058248903150
 Root    509 :    80.658467296878230
 Root    510 :    80.671946512911180
 Root    511 :    80.947015970423810
 Root    512 :    81.061974655558430
 Root    513 :    81.109737623660380
 Root    514 :    81.556767558562630
 Root    515 :    81.664806756763110
 Root    516 :    81.678716505126800
 Root    517 :    82.010886753877320
 Root    518 :    82.191427878271710
 Root    519 :    82.636841865466350
 Root    520 :    82.662864464791750
 Root    521 :    82.822436363133970
 Root    522 :    82.879421024190990
 Root    523 :    83.346489948768240
 Root    524 :    83.460810661467110
 Root    525 :    83.635776352404680
 Root    526 :    84.138531958699960
 Root    527 :    84.333376721266800
 Root    528 :    84.527698357986640
 Root    529 :    84.574214235452470
 Root    530 :    84.689125760184300
 Root    531 :    84.915798614766670
 Root    532 :    84.979739184242120
 Root    533 :    85.171846287831410
 Root    534 :    85.567772571916680
 Root    535 :    85.695649388339490
 Root    536 :    85.896901972986770
 Root    537 :    86.002025244805640
 Root    538 :    86.026447294932450
 Root    539 :    86.380740852403630
 Root    540 :    86.952285901038390
 Root    541 :    87.057877458516510
 Root    542 :    87.111779504254660
 Root    543 :    87.394403767780500
 Root    544 :    87.530692551013620
 Root    545 :    88.037644123673840
 Root    546 :    88.136563218995050
 Root    547 :    88.242480083367110
 Root    548 :    88.327046246661520
 Root    549 :    88.520507898824060
 Root    550 :    88.552983121120040
 Root    551 :    88.794628916492160
 Root    552 :    88.941228552207800
 Root    553 :    89.052296438923960
 Root    554 :    89.457191383225880
 Root    555 :    89.712231382773790
 Root    556 :    90.896799617291010
 Root    557 :    90.945575430849840
 Root    558 :    91.628412391499180
 Root    559 :    91.995215575469690
 Root    560 :    92.100912871500430
 Root    561 :    92.177047677777200
 Root    562 :    92.638821466793080
 Root    563 :    92.743308212746370
 Root    564 :    93.059067869184900
 Root    565 :    93.384209933101770
 Root    566 :    93.424498048355890
 Root    567 :    93.692686005351360
 Root    568 :    93.708283623516370
 Root    569 :    93.860753025615380
 Root    570 :    94.404796141586470
 Root    571 :    94.419817672147970
 Root    572 :    94.770386059086310
 Root    573 :    94.928922876930440
 Root    574 :    95.027518380366270
 Root    575 :    95.128475995952950
 Root    576 :    95.269524330658240
 Root    577 :    95.376777871484480
 Root    578 :    95.506681482673070
 Root    579 :    95.841238469110340
 Root    580 :    95.863074414038860
 Root    581 :    95.914234130212690
 Root    582 :    96.112312657250480
 Root    583 :    97.216751062618880
 Root    584 :    97.447171172986370
 Root    585 :    97.642544254330900
 Root    586 :    97.836474493088250
 Root    587 :    98.041453665774450
 Root    588 :    98.389635831533000
 Root    589 :    98.831079875476450
 Root    590 :    98.853461385628550
 Root    591 :    99.092650997973450
 Root    592 :    99.195200424413370
 Root    593 :    99.275894464780780
 Root    594 :    99.399423887550000
 Root    595 :    99.591738651072320
 Root    596 :   100.172740705068600
 Root    597 :   100.232961551191900
 Root    598 :   100.278192697912600
 Root    599 :   100.615452903586200
 Root    600 :   100.791328143813700
 Root    601 :   100.863548272953200
 Root    602 :   101.036899462890000
 Root    603 :   101.423256184791700
 Root    604 :   102.027168341578200
 Root    605 :   102.439341682606900
 Root    606 :   102.950318808159100
 Root    607 :   103.320262762889400
 Root    608 :   103.824372260361600
 Root    609 :   104.042529919649200
 Root    610 :   104.361977001185200
 Root    611 :   104.933401907807100
 Root    612 :   105.150655514731800
 Root    613 :   106.024568442713200
 Root    614 :   106.165691617188600
 Root    615 :   106.258779829301900
 Root    616 :   106.319562342330000
 Root    617 :   106.641600395339600
 Root    618 :   107.126420039102500
 Root    619 :   107.534638038524100
 Root    620 :   107.704787842676200
 Root    621 :   107.752994450975200
 Root    622 :   108.140499139450900
 Root    623 :   108.412255883231900
 Root    624 :   108.771541446658000
 Root    625 :   109.350719050044200
 Root    626 :   109.723805447102200
 Root    627 :   109.900602102013900
 Root    628 :   110.883485302673600
 Root    629 :   111.200934029095700
 Root    630 :   111.323934041130300
 Root    631 :   111.792202262874700
 Root    632 :   112.185611359134300
 Root    633 :   112.913169494291900
 Root    634 :   113.515544620965500
 Root    635 :   113.846231957784100
 Root    636 :   114.683947935879400
 Root    637 :   114.858071991409400
 Root    638 :   114.972137329343100
 Root    639 :   115.326546501764500
 Root    640 :   115.733147384980200
 Root    641 :   115.780435148813300
 Root    642 :   116.754394458622100
 Root    643 :   116.906571179901000
 Root    644 :   118.017743423313100
 Root    645 :   118.367113717914500
 Root    646 :   118.522245241095700
 Root    647 :   119.931130945153300
 Root    648 :   121.413282342603100
 Root    649 :   121.902737086707100
 Root    650 :   121.974027658384600
 Root    651 :   121.976127039899600
 Root    652 :   122.431094283012600
 Root    653 :   122.563992844072300
 Root    654 :   122.948837937894300
 Root    655 :   123.107027027775000
 Root    656 :   123.498524680533400
 Root    657 :   123.713929835181300
 Root    658 :   124.617047055501800
 Root    659 :   125.045329211723900
 Root    660 :   125.546065256621600
 Root    661 :   126.872879039640800
 Root    662 :   127.008511561647000
 Root    663 :   127.326509301190000
 Root    664 :   127.479595506099100
 Root    665 :   127.709470731822000
 Root    666 :   128.160027463386900
 Root    667 :   128.583616199485100
 Root    668 :   128.838866372538900
 Root    669 :   129.204384449748800
 Root    670 :   129.723454923693200
 Root    671 :   129.775144420993500
 Root    672 :   130.122734140065200
 Root    673 :   130.389892419657500
 Root    674 :   130.764309724358000
 Root    675 :   131.035903706455100
 Root    676 :   131.430162301849600
 Root    677 :   131.888700019902900
 Root    678 :   134.013682192023000
 Root    679 :   134.510553369778900
 Root    680 :   135.507226196794800
 Root    681 :   135.735348115833900
 Root    682 :   136.259488375807700
 Root    683 :   136.603285989895200
 Root    684 :   136.974813662260900
 Root    685 :   137.523490611102400
 Root    686 :   137.959197624931400
 Root    687 :   138.655162157151200
 Root    688 :   138.786382244851500
 Root    689 :   139.446331529418500
 Root    690 :   140.267372243360100
 Root    691 :   140.609500326681900
 Root    692 :   141.091989337642400
 Root    693 :   141.155278020735900
 Root    694 :   141.323023815116700
 Root    695 :   141.726312761529300
 Root    696 :   141.814524198505300
 Root    697 :   141.840416741613400
 Root    698 :   142.821962008823200
 Root    699 :   142.827370271889600
 Root    700 :   142.962294747744400
 Root    701 :   143.261610292586900
 Root    702 :   143.586956112504600
 Root    703 :   144.062583082503500
 Root    704 :   144.102411664225900
 Root    705 :   144.487284630691400
 Root    706 :   144.572151226224000
 Root    707 :   144.804254674118900
 Root    708 :   145.939117786958400
 Root    709 :   147.023122801409400
 Root    710 :   147.232187460458900
 Root    711 :   147.303578975414100
 Root    712 :   148.068083280889000
 Root    713 :   148.820585240348500
 Root    714 :   149.108693236072900
 Root    715 :   149.207815198307000
 Root    716 :   149.593300183477700
 Root    717 :   149.768560753380700
 Root    718 :   149.872982613861200
 Root    719 :   150.210285454431500
 Root    720 :   151.041063151617800
 Root    721 :   151.263522264049600
 Root    722 :   151.569433922480500
 Root    723 :   151.910723228676100
 Root    724 :   151.937422343703900
 Root    725 :   152.521388325158100
 Root    726 :   153.264528005786800
 Root    727 :   153.436133106477100
 Root    728 :   153.721586724065100
 Root    729 :   154.381998895283100
 Root    730 :   154.498291006099400
 Root    731 :   154.666648228966600
 Root    732 :   155.322015064864200
 Root    733 :   155.591632843738000
 Root    734 :   155.800016605923700
 Root    735 :   156.274755095138400
 Root    736 :   156.365189680017600
 Root    737 :   157.665732556151500
 Root    738 :   159.420267250202200
 Root    739 :   159.668353346430900
 Root    740 :   160.442705001982000
 Root    741 :   160.543002521130100
 Root    742 :   161.899393165250600
 Root    743 :   162.000863635379300
 Root    744 :   162.148800328280900
 Root    745 :   162.626994210488900
 Root    746 :   163.391006739551700
 Root    747 :   164.847638046466100
 Root    748 :   166.763340758390300
 Root    749 :   167.770215458415900
 Root    750 :   168.290184644587700
 Root    751 :   168.700944400271400
 Root    752 :   170.071290871556700
 Root    753 :   170.775839931034700
 Root    754 :   172.949107754269300
 Root    755 :   176.325139487570000
 Root    756 :   181.085487306228100
 Root    757 :   615.801901541349800
 Root    758 :   617.795987587662100
 Root    759 :   618.812000826401700
 Root    760 :   620.085431376683700
 Root    761 :   622.944423340694800
 Root    762 :   627.095307981122100
 Root    763 :   633.493553057637800
 Root    764 :   877.983160894984300
 Root    765 :   883.269423784807500
 Root    766 :   883.697061522162200
 Root    767 :   886.014288925265100
 Root    768 :   886.474211285051800
 Root    769 :   892.486259041162800
 Root    770 :   897.320541682082300
 Convergence achieved for final wavefunctions.
 ***********************************************************************
 Excited states from <AA,BB:AA,BB> singles matrix:
 ***********************************************************************
 
 1PDM for each excited state written to RWF  633
 Ground to excited state transition densities written to RWF  633
 Ground to excited state transition electric dipole moments (Au):
       state          X           Y           Z        Dip. S.      Osc.
         1        -0.3045     -0.0161     -0.0000      0.0930      0.0138
         2        -0.4485     -0.2081     -0.0000      0.2445      0.0434
         3        -0.0000     -0.0000      0.1859      0.0346      0.0066
         4        -0.2293     -0.5955     -0.0000      0.4072      0.0835
         5         0.0000      0.0000     -0.0339      0.0011      0.0002
         6         0.0562      0.0626      0.0000      0.0071      0.0016
         7         0.1507      0.2095      0.0000      0.0666      0.0152
         8         0.0000     -0.0000     -0.2571      0.0661      0.0156
         9        -0.0000     -0.0000     -0.0321      0.0010      0.0003
        10        -0.1721      0.0036      0.0000      0.0296      0.0075
        11         0.0000      0.0000      0.5977      0.3572      0.0923
        12        -0.4576     -0.0074     -0.0000      0.2094      0.0551
        13         0.0995     -0.2795      0.0000      0.0880      0.0236
        14         0.0000     -0.0000     -0.2621      0.0687      0.0187
        15        -0.4487      0.6794     -0.0000      0.6630      0.1857
        16         0.4562     -0.0397     -0.0000      0.2097      0.0594
        17         0.0230      0.4843      0.0000      0.2351      0.0671
        18         0.0000      0.0000     -0.3289      0.1082      0.0310
        19        -0.4179     -0.3324     -0.0000      0.2851      0.0831
        20        -0.0606     -0.1831     -0.0000      0.0372      0.0111
        21         0.0000      0.0000     -0.2554      0.0653      0.0196
        22        -0.1862     -0.0386     -0.0000      0.0361      0.0109
        23         0.0000      0.0000     -0.5454      0.2975      0.0906
        24         0.0000      0.0000     -0.4388      0.1926      0.0593
        25        -0.2564     -0.0245      0.0000      0.0663      0.0205
        26         0.0000      0.0000     -0.1022      0.0104      0.0032
[...]
     13  -0.105228D-02 -0.497015D-01  0.000000D+00  0.179170D+00  0.878802D-01
     14  -0.128454D+00  0.189434D+00  0.000000D+00 -0.218986D+00  0.276349D+00
     15   0.000000D+00  0.000000D+00 -0.463859D-01  0.000000D+00  0.000000D+00
     16   0.000000D+00  0.000000D+00 -0.155382D+00  0.000000D+00  0.000000D+00
               701           702           703           704           705 
      1  -0.906026D+02 -0.905907D+02 -0.905732D+02 -0.905717D+02 -0.905576D+02
      2  -0.651827D-02  0.000000D+00 -0.871859D-01  0.000000D+00  0.000000D+00
      3  -0.143439D-01  0.000000D+00 -0.435445D-01  0.000000D+00  0.000000D+00
      4   0.000000D+00 -0.117218D-01  0.000000D+00 -0.242148D-01  0.474297D-01
      5   0.359531D-01  0.000000D+00  0.467334D+00  0.000000D+00  0.000000D+00
      6   0.690373D-01  0.000000D+00  0.243059D+00  0.000000D+00  0.000000D+00
      7   0.000000D+00  0.443679D-01  0.000000D+00  0.124367D+00 -0.247661D+00
      8   0.000000D+00 -0.274264D+00  0.000000D+00 -0.122248D+00  0.375385D+00
      9   0.000000D+00  0.767056D-02  0.000000D+00  0.243619D-01 -0.195933D-02
     10  -0.350779D-02  0.000000D+00  0.656108D+00  0.000000D+00  0.000000D+00
     11   0.425721D-02  0.000000D+00 -0.134359D+00  0.000000D+00  0.000000D+00
     12   0.682999D-02  0.000000D+00 -0.846692D+00  0.000000D+00  0.000000D+00
     13  -0.276057D-01  0.000000D+00  0.758041D-01  0.000000D+00  0.000000D+00
     14   0.215934D-02  0.000000D+00 -0.654960D+00  0.000000D+00  0.000000D+00
     15   0.000000D+00 -0.491123D-01  0.000000D+00 -0.121444D-02  0.559096D-01
     16   0.000000D+00  0.276668D-01  0.000000D+00 -0.293548D-01  0.478171D+00
               706           707           708           709           710 
      1  -0.905545D+02 -0.905459D+02 -0.905042D+02 -0.904644D+02 -0.904567D+02
      2  -0.135368D-01  0.000000D+00  0.261538D-02 -0.143368D-01  0.293141D-01
      3  -0.210790D-02  0.000000D+00 -0.314724D-01 -0.153441D-01 -0.198640D-01
      4   0.000000D+00  0.564968D-01  0.000000D+00  0.000000D+00  0.000000D+00
      5   0.774467D-01  0.000000D+00 -0.128385D-01  0.866528D-01 -0.148313D+00
      6  -0.345687D-02  0.000000D+00  0.167795D+00  0.770439D-01  0.101661D+00
      7   0.000000D+00 -0.299261D+00  0.000000D+00  0.000000D+00  0.000000D+00
      8   0.000000D+00  0.448549D+00  0.000000D+00  0.000000D+00  0.000000D+00
      9   0.000000D+00 -0.150011D-01  0.000000D+00  0.000000D+00  0.000000D+00
     10   0.114193D+00  0.000000D+00  0.160938D-01  0.107402D+00 -0.200995D+00
     11   0.573965D-02  0.000000D+00 -0.341037D-01  0.116293D-01  0.529782D-01
     12  -0.639355D-01  0.000000D+00 -0.132884D+00 -0.259001D+00 -0.138040D+00
     13   0.641549D-01  0.000000D+00 -0.104242D+00 -0.367684D-01 -0.527806D-01
     14  -0.128485D+00  0.000000D+00 -0.172865D+00 -0.164256D+00  0.109351D-01
     15   0.000000D+00  0.868315D-01  0.000000D+00  0.000000D+00  0.000000D+00
     16   0.000000D+00  0.174029D+00  0.000000D+00  0.000000D+00  0.000000D+00
               711           712           713           714           715 
      1  -0.904541D+02 -0.904260D+02 -0.903983D+02 -0.903878D+02 -0.903841D+02
      2   0.000000D+00  0.454673D-01  0.105925D-01  0.000000D+00  0.233722D-01
      3   0.000000D+00 -0.109048D-01  0.144860D-01  0.000000D+00 -0.236536D-01
      4  -0.410808D-02  0.000000D+00  0.000000D+00 -0.245003D-02  0.000000D+00
      5   0.000000D+00 -0.237115D+00 -0.571577D-01  0.000000D+00 -0.128494D+00
      6   0.000000D+00  0.493719D-01 -0.588601D-01  0.000000D+00  0.110689D+00
      7   0.114642D-01  0.000000D+00  0.000000D+00  0.104813D-01  0.000000D+00
      8  -0.384110D-02  0.000000D+00  0.000000D+00  0.325427D-02  0.000000D+00
      9   0.237873D-02  0.000000D+00  0.000000D+00  0.566074D-02  0.000000D+00
     10   0.000000D+00 -0.205116D+00 -0.139052D+00  0.000000D+00 -0.258952D+00
     11   0.000000D+00  0.179495D+00 -0.900727D-01  0.000000D+00 -0.500501D-02
     12   0.000000D+00  0.532060D-01  0.141802D+00  0.000000D+00 -0.279292D+00
     13   0.000000D+00 -0.113379D+00  0.258995D+00  0.000000D+00  0.250581D-01
     14   0.000000D+00  0.358507D+00  0.250218D+00  0.000000D+00  0.270300D+00
     15  -0.147873D-01  0.000000D+00  0.000000D+00  0.488144D-01  0.000000D+00
     16   0.611574D-01  0.000000D+00  0.000000D+00 -0.176854D-01  0.000000D+00
               716           717           718           719           720 
      1  -0.903699D+02 -0.903635D+02 -0.903597D+02 -0.903473D+02 -0.903167D+02
      2  -0.739880D-02 -0.621818D-01  0.000000D+00  0.000000D+00  0.000000D+00
      3   0.110032D-01  0.445361D-01  0.000000D+00  0.000000D+00  0.000000D+00
      4   0.000000D+00  0.000000D+00 -0.618503D-01  0.192147D-01 -0.561850D-02
      5   0.525084D-01  0.351623D+00  0.000000D+00  0.000000D+00  0.000000D+00
      6  -0.682669D-01 -0.252778D+00  0.000000D+00  0.000000D+00  0.000000D+00
      7   0.000000D+00  0.000000D+00  0.336548D+00 -0.105193D+00  0.370858D-01
      8   0.000000D+00  0.000000D+00 -0.435818D+00  0.191096D+00 -0.372450D-01
      9   0.000000D+00  0.000000D+00  0.271818D-01 -0.774096D-02 -0.146576D-02
     10   0.244954D-01  0.479571D+00  0.000000D+00  0.000000D+00  0.000000D+00
     11  -0.425701D-02 -0.125863D+00  0.000000D+00  0.000000D+00  0.000000D+00
     12   0.266592D+00  0.929444D+00  0.000000D+00  0.000000D+00  0.000000D+00
     13  -0.256226D-02 -0.673888D-01  0.000000D+00  0.000000D+00  0.000000D+00
     14  -0.712931D-01 -0.717986D+00  0.000000D+00  0.000000D+00  0.000000D+00
     15   0.000000D+00  0.000000D+00  0.636197D-01  0.201045D-02 -0.290633D-01
     16   0.000000D+00  0.000000D+00 -0.591083D+00  0.207349D+00  0.118499D-01
               721           722           723           724           725 
      1  -0.903086D+02 -0.902973D+02 -0.902848D+02 -0.902838D+02 -0.902623D+02
      2   0.000000D+00  0.000000D+00  0.460994D-01 -0.989421D-02  0.380163D-02
      3   0.000000D+00  0.000000D+00  0.589234D-02  0.358229D-02 -0.713449D-01
      4   0.139770D-02 -0.636885D-01  0.000000D+00  0.000000D+00  0.000000D+00
      5   0.000000D+00  0.000000D+00 -0.255239D+00  0.608357D-01 -0.304142D-01
      6   0.000000D+00  0.000000D+00 -0.382160D-01 -0.232414D-01  0.429659D+00
      7   0.284904D-03  0.348361D+00  0.000000D+00  0.000000D+00  0.000000D+00
      8   0.640562D-01 -0.301841D+00  0.000000D+00  0.000000D+00  0.000000D+00
      9   0.513295D-03  0.323007D-01  0.000000D+00  0.000000D+00  0.000000D+00
     10   0.000000D+00  0.000000D+00 -0.268536D+00  0.887435D-01 -0.211071D+00
     11   0.000000D+00  0.000000D+00  0.109935D+00 -0.461282D-01 -0.459870D-01
     12   0.000000D+00  0.000000D+00 -0.199214D+00  0.796503D-01 -0.913336D+00
     13   0.000000D+00  0.000000D+00 -0.440714D-01  0.188466D-01  0.430280D-01
     14   0.000000D+00  0.000000D+00  0.384356D+00 -0.110244D+00  0.146938D+00
     15   0.479657D-01  0.105599D+00  0.000000D+00  0.000000D+00  0.000000D+00
     16   0.540912D-01 -0.403154D+00  0.000000D+00  0.000000D+00  0.000000D+00
               726           727           728           729           730 
      1  -0.902350D+02 -0.902287D+02 -0.902182D+02 -0.901940D+02 -0.901897D+02
      2  -0.301152D-03  0.000000D+00  0.000000D+00 -0.158345D-01  0.000000D+00
      3   0.601439D-01  0.000000D+00  0.000000D+00  0.310591D-02  0.000000D+00
      4   0.000000D+00 -0.282070D-01 -0.973973D-02  0.000000D+00  0.318887D-01
      5  -0.707558D-02  0.000000D+00  0.000000D+00  0.101246D+00  0.000000D+00
      6  -0.361184D+00  0.000000D+00  0.000000D+00 -0.131755D-01  0.000000D+00
      7   0.000000D+00  0.133828D+00  0.454525D-01  0.000000D+00 -0.196671D+00
      8   0.000000D+00 -0.333308D+00 -0.242828D-01  0.000000D+00  0.373269D+00
      9   0.000000D+00  0.690207D-02 -0.210833D-02  0.000000D+00 -0.164866D-01
     10  -0.123084D+00  0.000000D+00  0.000000D+00  0.165574D+00  0.000000D+00
     11   0.555296D-01  0.000000D+00  0.000000D+00 -0.809403D-01  0.000000D+00
     12   0.725920D+00  0.000000D+00  0.000000D+00  0.156974D+00  0.000000D+00
     13  -0.783231D-01  0.000000D+00  0.000000D+00  0.256018D-01  0.000000D+00
     14   0.812917D-01  0.000000D+00  0.000000D+00 -0.125717D+00  0.000000D+00
     15   0.000000D+00 -0.127811D+00 -0.321658D-01  0.000000D+00 -0.108783D+00
     16   0.000000D+00 -0.374031D+00 -0.486181D-01  0.000000D+00  0.362348D+00
               731           732           733           734           735 
      1  -0.901835D+02 -0.901594D+02 -0.901495D+02 -0.901419D+02 -0.901244D+02
      2   0.952832D-02  0.000000D+00  0.124457D-01  0.241529D-01  0.000000D+00
      3  -0.502506D-01  0.000000D+00  0.299706D-01 -0.153757D-01  0.000000D+00
      4   0.000000D+00 -0.701834D-02  0.000000D+00  0.000000D+00  0.857224D-02
      5  -0.567719D-01  0.000000D+00 -0.787372D-01 -0.149119D+00  0.000000D+00
      6   0.252564D+00  0.000000D+00 -0.151695D+00  0.940346D-01  0.000000D+00
      7   0.000000D+00  0.499055D-01  0.000000D+00  0.000000D+00 -0.342188D-01
      8   0.000000D+00 -0.776681D-01  0.000000D+00  0.000000D+00 -0.745030D-01
      9   0.000000D+00 -0.771400D-02  0.000000D+00  0.000000D+00  0.603253D-02
     10  -0.627126D-02  0.000000D+00  0.767538D-01 -0.195659D+00  0.000000D+00
     11   0.119682D+00  0.000000D+00 -0.979872D-01  0.545465D-01  0.000000D+00
     12  -0.125805D+01  0.000000D+00  0.728103D+00 -0.285400D+00  0.000000D+00
     13  -0.134736D-02  0.000000D+00  0.486802D-01  0.251680D-01  0.000000D+00
     14  -0.933554D-01  0.000000D+00  0.106306D-01  0.209524D+00  0.000000D+00
     15   0.000000D+00  0.230225D-01  0.000000D+00  0.000000D+00  0.983687D-01
     16   0.000000D+00 -0.414406D+00  0.000000D+00  0.000000D+00 -0.287086D-01
               736           737           738           739           740 
      1  -0.901211D+02 -0.900733D+02 -0.900088D+02 -0.899997D+02 -0.899712D+02
      2   0.000000D+00  0.000000D+00 -0.101862D-01  0.461186D-02 -0.230302D-02
      3   0.000000D+00  0.000000D+00 -0.118677D-01  0.123333D-01  0.964002D-02
      4   0.276462D-01 -0.316330D-01  0.000000D+00  0.000000D+00  0.000000D+00
      5   0.000000D+00  0.000000D+00  0.733923D-01 -0.457186D-01  0.105835D-01
      6   0.000000D+00  0.000000D+00  0.731421D-01 -0.308444D-01 -0.533582D-01
      7  -0.157160D+00  0.208850D+00  0.000000D+00  0.000000D+00  0.000000D+00
      8   0.116499D+00 -0.258283D+00  0.000000D+00  0.000000D+00  0.000000D+00
      9  -0.134212D-01  0.186170D-01  0.000000D+00  0.000000D+00  0.000000D+00
     10   0.000000D+00  0.000000D+00  0.121504D+00 -0.676581D-01  0.414113D-01
     11   0.000000D+00  0.000000D+00 -0.453838D-01 -0.142593D+00 -0.418271D-01
     12   0.000000D+00  0.000000D+00 -0.114778D+00  0.323677D+00  0.200265D+00
     13   0.000000D+00  0.000000D+00  0.701571D-01 -0.156620D+00  0.907213D-02
     14   0.000000D+00  0.000000D+00 -0.146359D+00  0.231045D+00  0.864150D-02
     15   0.123291D+00  0.206600D-01  0.000000D+00  0.000000D+00  0.000000D+00
     16   0.155123D+00 -0.289916D+00  0.000000D+00  0.000000D+00  0.000000D+00
               741           742           743           744           745 
      1  -0.899676D+02 -0.899177D+02 -0.899140D+02 -0.899085D+02 -0.898910D+02
      2   0.000000D+00 -0.919257D-03  0.000000D+00  0.000000D+00 -0.365649D-02
      3   0.000000D+00 -0.541149D-01  0.000000D+00  0.000000D+00 -0.116728D-01
      4  -0.183536D-01  0.000000D+00  0.574256D-02  0.559155D-02  0.000000D+00
      5   0.000000D+00  0.429734D-02  0.000000D+00  0.000000D+00  0.377937D-01
      6   0.000000D+00  0.304737D+00  0.000000D+00  0.000000D+00  0.370917D-01
      7   0.754354D-01  0.000000D+00 -0.159988D-01 -0.435787D-01  0.000000D+00
      8  -0.321886D-02  0.000000D+00 -0.177651D-02  0.758643D-01  0.000000D+00
      9  -0.144070D-02  0.000000D+00 -0.640022D-02 -0.729968D-02  0.000000D+00
     10   0.000000D+00 -0.126485D-01  0.000000D+00  0.000000D+00  0.539474D-01
     11   0.000000D+00  0.212001D-01  0.000000D+00  0.000000D+00  0.375613D-01
     12   0.000000D+00 -0.367682D+00  0.000000D+00  0.000000D+00 -0.249291D+00
     13   0.000000D+00 -0.760916D-01  0.000000D+00  0.000000D+00  0.130275D+00
     14   0.000000D+00 -0.830290D-01  0.000000D+00  0.000000D+00 -0.236537D+00
     15  -0.224908D+00  0.000000D+00  0.906142D-01  0.568688D-02  0.000000D+00
     16  -0.183184D+00  0.000000D+00 -0.318587D-01  0.102398D+00  0.000000D+00
               746           747           748           749           750 
      1  -0.898629D+02 -0.898094D+02 -0.897390D+02 -0.897020D+02 -0.896829D+02
      2   0.776450D-02  0.436560D-02  0.369995D-02  0.000000D+00  0.000000D+00
      3   0.701890D-02 -0.275791D-01  0.205431D-01  0.000000D+00  0.000000D+00
      4   0.000000D+00  0.000000D+00  0.000000D+00 -0.463118D-02  0.965435D-02
      5  -0.443478D-01 -0.348259D-01 -0.130997D-01  0.000000D+00  0.000000D+00
      6  -0.374145D-01  0.204098D+00 -0.169333D+00  0.000000D+00  0.000000D+00
      7   0.000000D+00  0.000000D+00  0.000000D+00 -0.177073D-01 -0.615848D-01
      8   0.000000D+00  0.000000D+00  0.000000D+00  0.101041D+00  0.212794D-01
      9   0.000000D+00  0.000000D+00  0.000000D+00 -0.367852D-02 -0.137236D-01
     10  -0.460859D-01 -0.714118D-01  0.773383D-02  0.000000D+00  0.000000D+00
     11  -0.214447D+00  0.685133D-01 -0.795721D-02  0.000000D+00  0.000000D+00
     12   0.226989D+00 -0.413075D+00  0.632650D+00  0.000000D+00  0.000000D+00
     13   0.155032D+00  0.255689D-01  0.603406D-02  0.000000D+00  0.000000D+00
     14  -0.402432D-01  0.993938D-02  0.625881D-01  0.000000D+00  0.000000D+00
     15   0.000000D+00  0.000000D+00  0.000000D+00 -0.177464D+00  0.556200D-02
     16   0.000000D+00  0.000000D+00  0.000000D+00  0.278951D+00 -0.209376D-01
               751           752           753           754           755 
      1  -0.896678D+02 -0.896174D+02 -0.895915D+02 -0.895116D+02 -0.893876D+02
      2  -0.339997D-02 -0.533699D-02  0.000000D+00  0.000000D+00  0.294004D-02
      3  -0.154406D-02  0.445537D-02  0.000000D+00  0.000000D+00  0.174853D-01
      4   0.000000D+00  0.000000D+00 -0.277089D-02 -0.967748D-02  0.000000D+00
      5   0.136915D-01  0.356342D-01  0.000000D+00  0.000000D+00 -0.329126D-01
      6   0.469651D-01 -0.442223D-01  0.000000D+00  0.000000D+00 -0.805485D-01
      7   0.000000D+00  0.000000D+00  0.569717D-01  0.101579D+00  0.000000D+00
      8   0.000000D+00  0.000000D+00  0.363231D-01 -0.129682D+00  0.000000D+00
      9   0.000000D+00  0.000000D+00  0.697860D-02  0.166344D-01  0.000000D+00
     10  -0.633153D-01 -0.525369D-01  0.000000D+00  0.000000D+00 -0.144261D-01
     11  -0.539407D-01 -0.575175D-01  0.000000D+00  0.000000D+00  0.781627D-03
     12   0.431713D+00 -0.112874D+00  0.000000D+00  0.000000D+00  0.891756D-01
     13  -0.240133D+00  0.136321D+00  0.000000D+00  0.000000D+00 -0.885856D-01
     14  -0.118395D-01  0.498645D-01  0.000000D+00  0.000000D+00  0.341746D-01
     15   0.000000D+00  0.000000D+00  0.140484D+00 -0.627991D-01  0.000000D+00
     16   0.000000D+00  0.000000D+00 -0.116402D+00 -0.183946D+00  0.000000D+00
               756           757           758           759           760 
      1  -0.892126D+02 -0.732371D+02 -0.731638D+02 -0.731265D+02 -0.730797D+02
      2  -0.123257D-02  0.759481D-02  0.000000D+00 -0.859878D-02 -0.456557D-02
      3  -0.590319D-02  0.111082D-02  0.000000D+00  0.680054D-02 -0.106513D-01
      4   0.000000D+00  0.000000D+00 -0.118852D-01  0.000000D+00  0.000000D+00
      5   0.327529D-01 -0.802311D-01  0.000000D+00  0.105921D+00  0.611585D-01
      6   0.542968D-01 -0.235484D-01  0.000000D+00 -0.819055D-01  0.112869D+00
      7   0.000000D+00  0.000000D+00  0.142568D+00  0.000000D+00  0.000000D+00
      8   0.000000D+00  0.000000D+00  0.185314D+00  0.000000D+00  0.000000D+00
      9   0.000000D+00  0.000000D+00  0.133477D-01  0.000000D+00  0.000000D+00
     10   0.392654D-01  0.961237D-01  0.000000D+00 -0.137148D+00 -0.978572D-01
     11  -0.451186D-02  0.858277D-02  0.000000D+00 -0.945262D-03  0.258672D-01
     12  -0.123022D+00 -0.836758D-01  0.000000D+00 -0.198756D+00  0.268245D+00
     13   0.123955D-01  0.360345D-01  0.000000D+00 -0.216840D-01  0.920973D-02
     14  -0.644573D-01 -0.102248D+00  0.000000D+00  0.168577D+00  0.942372D-01
     15   0.000000D+00  0.000000D+00 -0.467362D-01  0.000000D+00  0.000000D+00
     16   0.000000D+00  0.000000D+00  0.205526D+00  0.000000D+00  0.000000D+00
               761           762           763           764           765 
      1  -0.729746D+02 -0.728221D+02 -0.725869D+02 -0.636021D+02 -0.634078D+02
      2   0.000000D+00  0.284910D-03 -0.317682D-03 -0.127977D-01  0.000000D+00
      3   0.000000D+00 -0.285684D-02  0.266707D-02 -0.293798D-02  0.000000D+00
      4  -0.275996D-02  0.000000D+00  0.000000D+00  0.000000D+00  0.111364D-01
      5   0.000000D+00 -0.454068D-02  0.246184D-02  0.202240D+00  0.000000D+00
      6   0.000000D+00  0.323071D-01 -0.436550D-01  0.734897D-01  0.000000D+00
      7   0.390704D-01  0.000000D+00  0.000000D+00  0.000000D+00 -0.159299D+00
      8   0.620632D-01  0.000000D+00  0.000000D+00  0.000000D+00  0.226363D+00
      9   0.332963D-02  0.000000D+00  0.000000D+00  0.000000D+00 -0.152248D-01
     10   0.000000D+00  0.285958D-02  0.278960D-02  0.279520D+00  0.000000D+00
     11   0.000000D+00  0.185434D+00  0.805223D-01 -0.111678D+00  0.000000D+00
     12   0.000000D+00  0.222359D+00  0.753693D-01 -0.276616D+00  0.000000D+00
     13   0.000000D+00  0.186464D+00  0.784905D-01 -0.500828D-01  0.000000D+00
     14   0.000000D+00 -0.974760D-02  0.662984D-02 -0.297460D+00  0.000000D+00
     15  -0.138015D-01  0.000000D+00  0.000000D+00  0.000000D+00 -0.724371D-02
     16   0.715456D-01  0.000000D+00  0.000000D+00  0.000000D+00  0.239938D+00
               766           767           768           769           770 
      1  -0.633921D+02 -0.633070D+02 -0.632901D+02 -0.630691D+02 -0.628915D+02
      2   0.401668D-02 -0.221083D-02  0.000000D+00  0.105171D-02 -0.622219D-03
      3  -0.972883D-02  0.118820D-02  0.000000D+00 -0.400553D-02  0.102364D-02
      4   0.000000D+00  0.000000D+00 -0.599664D-02  0.000000D+00  0.000000D+00
      5  -0.475008D-01  0.467955D-01  0.000000D+00 -0.233344D-01  0.187395D-01
      6   0.162284D+00 -0.218293D-01  0.000000D+00  0.546192D-01 -0.149875D-02
      7   0.000000D+00  0.000000D+00  0.955080D-01  0.000000D+00  0.000000D+00
      8   0.000000D+00  0.000000D+00 -0.136760D+00  0.000000D+00  0.000000D+00
      9   0.000000D+00  0.000000D+00  0.930740D-02  0.000000D+00  0.000000D+00
     10  -0.829079D-01  0.702364D-01  0.000000D+00 -0.364036D-01  0.286032D-01
     11   0.299009D-01 -0.134484D-01  0.000000D+00 -0.102625D+00  0.178564D+00
     12  -0.485128D+00  0.513534D-01  0.000000D+00 -0.199698D+00  0.202178D+00
     13   0.802571D-03 -0.273373D-01  0.000000D+00 -0.112876D+00  0.187064D+00
     14   0.564862D-01 -0.719042D-01  0.000000D+00  0.264642D-01 -0.312583D-01
     15   0.000000D+00  0.000000D+00 -0.122799D-01  0.000000D+00  0.000000D+00
     16   0.000000D+00  0.000000D+00 -0.148311D+00  0.000000D+00  0.000000D+00
 Unable to Open any file for archive entry.
 1\1\GINC-HEL16\SP\RwB97XD TD-FC\Gen\C1H5N1\RR\27-Feb-2022\0\\#P TD(Nst
 ates=10000) wB97XD/Gen SCF(maxcycles=100) Int(Grid=ultrafine)\\xGDB7_0
 0001_tier4.com\\0,1\C,0,-0.049078,0.702042,0.\N,0,-0.049078,-0.754243,
 0.\H,0,0.946109,1.166603,0.\H,0,-0.587574,1.062597,0.87777\H,0,-0.5875
 74,1.062597,-0.87777\H,0,0.433525,-1.112175,0.812504\H,0,0.433525,-1.1
 12175,-0.812504\\Version=EM64L-G16RevC.01\State=1-A'\HF=-95.8674013\RM
 SD=7.626e-09\PG=CS [SG(C1H1N1),X(H4)]\\@
 The archive entry for this job was punched.


 CONFIDENCE IS WHAT YOU FEEL BEFORE YOU FULLY
 COMPREHEND THE SITUATION.
 Job cpu time:       0 days  0 hours 12 minutes 47.7 seconds.
 Elapsed time:       0 days  0 hours  1 minutes 37.4 seconds.
 File lengths (MBytes):  RWF=    794 Int=      0 D2E=      0 Chk=    247 Scr=      1
 Normal termination of Gaussian 16 at Sun Feb 27 06:41:55 2022.
