 Entering Gaussian System, Link 0=g16
 Input=bigQM7w_TDwB97XD_def2TZVP_000010.com
 Output=bigQM7w_TDwB97XD_def2TZVP_000010.log
 Initial command:
 /home/rr/g16/l1.exe "/scratch/rr/PBS_7918663.helios/Gau-12868.inp" -scrdir="/scratch/rr/PBS_7918663.helios/"
 Entering Link 1 = /home/rr/g16/l1.exe PID=     12870.
  
 Copyright (c) 1988-2019, Gaussian, Inc.  All Rights Reserved.
  
 This is part of the Gaussian(R) 16 program.  It is based on
 the Gaussian(R) 09 system (copyright 2009, Gaussian, Inc.),
 the Gaussian(R) 03 system (copyright 2003, Gaussian, Inc.),
 the Gaussian(R) 98 system (copyright 1998, Gaussian, Inc.),
 the Gaussian(R) 94 system (copyright 1995, Gaussian, Inc.),
 the Gaussian 92(TM) system (copyright 1992, Gaussian, Inc.),
 the Gaussian 90(TM) system (copyright 1990, Gaussian, Inc.),
 the Gaussian 88(TM) system (copyright 1988, Gaussian, Inc.),
 the Gaussian 86(TM) system (copyright 1986, Carnegie Mellon
 University), and the Gaussian 82(TM) system (copyright 1983,
 Carnegie Mellon University). Gaussian is a federally registered
 trademark of Gaussian, Inc.
  
 This software contains proprietary and confidential information,
 including trade secrets, belonging to Gaussian, Inc.
  
 This software is provided under written license and may be
 used, copied, transmitted, or stored only in accord with that
 written license.
  
 The following legend is applicable only to US Government
 contracts under FAR:
  
                    RESTRICTED RIGHTS LEGEND
  
 Use, reproduction and disclosure by the US Government is
 subject to restrictions as set forth in subparagraphs (a)
 and (c) of the Commercial Computer Software - Restricted
 Rights clause in FAR 52.227-19.
  
 Gaussian, Inc.
 340 Quinnipiac St., Bldg. 40, Wallingford CT 06492
  
  
 ---------------------------------------------------------------
 Warning -- This program may not be used in any manner that
 competes with the business of Gaussian, Inc. or will provide
 assistance to any competitor of Gaussian, Inc.  The licensee
 of this program is prohibited from giving any competitor of
 Gaussian, Inc. access to this program.  By using this program,
 the user acknowledges that Gaussian, Inc. is engaged in the
 business of creating and licensing software in the field of
 computational chemistry and represents and warrants to the
 licensee that it is not a competitor of Gaussian, Inc. and that
 it will not use this program in any manner prohibited above.
 ---------------------------------------------------------------
  

 Cite this work as:
 Gaussian 16, Revision C.01,
 M. J. Frisch, G. W. Trucks, H. B. Schlegel, G. E. Scuseria, 
 M. A. Robb, J. R. Cheeseman, G. Scalmani, V. Barone, 
 G. A. Petersson, H. Nakatsuji, X. Li, M. Caricato, A. V. Marenich, 
 J. Bloino, B. G. Janesko, R. Gomperts, B. Mennucci, H. P. Hratchian, 
 J. V. Ortiz, A. F. Izmaylov, J. L. Sonnenberg, D. Williams-Young, 
 F. Ding, F. Lipparini, F. Egidi, J. Goings, B. Peng, A. Petrone, 
 T. Henderson, D. Ranasinghe, V. G. Zakrzewski, J. Gao, N. Rega, 
 G. Zheng, W. Liang, M. Hada, M. Ehara, K. Toyota, R. Fukuda, 
 J. Hasegawa, M. Ishida, T. Nakajima, Y. Honda, O. Kitao, H. Nakai, 
 T. Vreven, K. Throssell, J. A. Montgomery, Jr., J. E. Peralta, 
 F. Ogliaro, M. J. Bearpark, J. J. Heyd, E. N. Brothers, K. N. Kudin, 
 V. N. Staroverov, T. A. Keith, R. Kobayashi, J. Normand, 
 K. Raghavachari, A. P. Rendell, J. C. Burant, S. S. Iyengar, 
 J. Tomasi, M. Cossi, J. M. Millam, M. Klene, C. Adamo, R. Cammi, 
 J. W. Ochterski, R. L. Martin, K. Morokuma, O. Farkas, 
 J. B. Foresman, and D. J. Fox, Gaussian, Inc., Wallingford CT, 2019.
 
 ******************************************
 Gaussian 16:  EM64L-G16RevC.01  3-Jul-2019
                27-Feb-2022 
 ******************************************
 %mem=64gb
 %nproc=8
 Will use up to    8 processors via shared memory.
 ----------------------------------------------------------------------
 #P TD(Nstates=10000) wB97XD/Gen SCF(maxcycles=100) Int(Grid=ultrafine)
 ----------------------------------------------------------------------
 1/38=1,172=1/1;
 2/12=2,17=6,18=5,40=1/2;
 3/5=7,11=9,25=1,30=1,74=-58,75=-5/1,2,3,8;
 4//1;
 5/5=2,7=100,38=5/2;
 8/6=1,10=1,108=10000/1;
 9/41=10000,42=1,70=2/14;
 6/7=2,8=2,9=2,10=2/1;
 99/5=1,9=1/99;
 Leave Link    1 at Sun Feb 27 06:39:22 2022, MaxMem=  8589934592 cpu:               0.5 elap:               0.1
 (Enter /home/rr/g16/l101.exe)
 ---------------------
 xGDB7_00001_tier4.com
 ---------------------
 Symbolic Z-matrix:
 Charge =  0 Multiplicity = 1
 6                     0.        0.        0.66087 
 6                     0.        0.       -0.66087 
 1                     0.        0.92259   1.22926 
 1                     0.       -0.92259   1.22926 
 1                     0.        0.92259  -1.22926 
 1                     0.       -0.92259  -1.22926 
 
 ITRead=  0  0  0  0  0  0
 MicOpt= -1 -1 -1 -1 -1 -1
 NAtoms=      6 NQM=        6 NQMF=       0 NMMI=      0 NMMIF=      0
                NMic=       0 NMicF=      0.
                    Isotopes and Nuclear Properties:
 (Nuclear quadrupole moments (NQMom) in fm**2, nuclear magnetic moments (NMagM)
  in nuclear magnetons)

  Atom         1           2           3           4           5           6
 IAtWgt=          12          12           1           1           1           1
 AtmWgt=  12.0000000  12.0000000   1.0078250   1.0078250   1.0078250   1.0078250
 NucSpn=           0           0           1           1           1           1
 AtZEff=  -0.0000000  -0.0000000  -0.0000000  -0.0000000  -0.0000000  -0.0000000
 NQMom=    0.0000000   0.0000000   0.0000000   0.0000000   0.0000000   0.0000000
 NMagM=    0.0000000   0.0000000   2.7928460   2.7928460   2.7928460   2.7928460
 AtZNuc=   6.0000000   6.0000000   1.0000000   1.0000000   1.0000000   1.0000000
 Leave Link  101 at Sun Feb 27 06:39:23 2022, MaxMem=  8589934592 cpu:               1.2 elap:               0.2
 (Enter /home/rr/g16/l202.exe)
                          Input orientation:                          
 ---------------------------------------------------------------------
 Center     Atomic      Atomic             Coordinates (Angstroms)
 Number     Number       Type             X           Y           Z
 ---------------------------------------------------------------------
      1          6           0        0.000000    0.000000    0.660866
      2          6           0        0.000000    0.000000   -0.660866
      3          1           0        0.000000    0.922586    1.229258
      4          1           0        0.000000   -0.922586    1.229258
      5          1           0        0.000000    0.922586   -1.229258
      6          1           0        0.000000   -0.922586   -1.229258
 ---------------------------------------------------------------------
                    Distance matrix (angstroms):
                    1          2          3          4          5
     1  C    0.000000
     2  C    1.321732   0.000000
     3  H    1.083621   2.103267   0.000000
     4  H    1.083621   2.103267   1.845172   0.000000
     5  H    2.103267   1.083621   2.458516   3.073916   0.000000
     6  H    2.103267   1.083621   3.073916   2.458516   1.845172
                    6
     6  H    0.000000
 Stoichiometry    C2H4
 Framework group  D2H[C2"(C.C),SG(H4)]
 Deg. of freedom     3
 Full point group                 D2H     NOp   8
 Largest Abelian subgroup         D2H     NOp   8
 Largest concise Abelian subgroup D2      NOp   4
                         Standard orientation:                         
 ---------------------------------------------------------------------
 Center     Atomic      Atomic             Coordinates (Angstroms)
 Number     Number       Type             X           Y           Z
 ---------------------------------------------------------------------
      1          6           0        0.000000    0.000000    0.660866
      2          6           0        0.000000    0.000000   -0.660866
      3          1           0        0.000000    0.922586    1.229258
      4          1           0       -0.000000   -0.922586    1.229258
      5          1           0        0.000000    0.922586   -1.229258
      6          1           0       -0.000000   -0.922586   -1.229258
 ---------------------------------------------------------------------
 Rotational constants (GHZ):         147.2849410          30.4932883          25.2629480
 Leave Link  202 at Sun Feb 27 06:39:23 2022, MaxMem=  8589934592 cpu:               0.5 elap:               0.1
 (Enter /home/rr/g16/l301.exe)
 General basis read from cards:  (5D, 7F)
 Centers:       3      4      5      6
 S 3 1.00
     Exponent=  3.4061341000D+01 Coefficients=  6.0251978000D-03
     Exponent=  5.1235746000D+00 Coefficients=  4.5021094000D-02
     Exponent=  1.1646626000D+00 Coefficients=  2.0189726000D-01
 S 1 1.00
     Exponent=  3.2723041000D-01 Coefficients=  1.0000000000D+00
 S 1 1.00
     Exponent=  1.0307241000D-01 Coefficients=  1.0000000000D+00
 P 1 1.00
     Exponent=  8.0000000000D-01 Coefficients=  1.0000000000D+00
 P 1 1.00
     Exponent=  9.5774129632D-02 Coefficients=  1.0000000000D+00
 ****
 Centers:       1      2
 S 6 1.00
     Exponent=  1.3575349682D+04 Coefficients=  2.2245814352D-04
     Exponent=  2.0352333680D+03 Coefficients=  1.7232738252D-03
     Exponent=  4.6322562359D+02 Coefficients=  8.9255715314D-03
     Exponent=  1.3120019598D+02 Coefficients=  3.5727984502D-02
     Exponent=  4.2853015891D+01 Coefficients=  1.1076259931D-01
     Exponent=  1.5584185766D+01 Coefficients=  2.4295627626D-01
 S 2 1.00
     Exponent=  6.2067138508D+00 Coefficients=  4.1440263448D-01
     Exponent=  2.5764896527D+00 Coefficients=  2.3744968655D-01
 S 1 1.00
     Exponent=  5.7696339419D-01 Coefficients=  1.0000000000D+00
 S 1 1.00
     Exponent=  2.2972831358D-01 Coefficients=  1.0000000000D+00
 S 1 1.00
     Exponent=  9.5164440028D-02 Coefficients=  1.0000000000D+00
 S 1 1.00
     Exponent=  4.8475401370D-02 Coefficients=  1.0000000000D+00
 P 4 1.00
     Exponent=  3.4697232244D+01 Coefficients=  5.3333657805D-03
     Exponent=  7.9582622826D+00 Coefficients=  3.5864109092D-02
     Exponent=  2.3780826883D+00 Coefficients=  1.4215873329D-01
     Exponent=  8.1433208183D-01 Coefficients=  3.4270471845D-01
 P 1 1.00
     Exponent=  2.8887547253D-01 Coefficients=  4.6445822433D-01
 P 1 1.00
     Exponent=  1.0056823671D-01 Coefficients=  2.4955789874D-01
 D 1 1.00
     Exponent=  1.0970000000D+00 Coefficients=  1.0000000000D+00
 D 1 1.00
     Exponent=  3.1800000000D-01 Coefficients=  1.0000000000D+00
 D 1 1.00
     Exponent=  9.0985336424D-02 Coefficients=  1.0000000000D+00
 F 1 1.00
     Exponent=  7.6100000000D-01 Coefficients=  1.0000000000D+00
 ****
 Ernie: Thresh=  0.10000D-02 Tol=  0.10000D-05 Strict=F.
 There are    28 symmetry adapted cartesian basis functions of AG  symmetry.
 There are     6 symmetry adapted cartesian basis functions of B1G symmetry.
 There are    11 symmetry adapted cartesian basis functions of B2G symmetry.
 There are    16 symmetry adapted cartesian basis functions of B3G symmetry.
 There are     6 symmetry adapted cartesian basis functions of AU  symmetry.
 There are    28 symmetry adapted cartesian basis functions of B1U symmetry.
 There are    16 symmetry adapted cartesian basis functions of B2U symmetry.
 There are    11 symmetry adapted cartesian basis functions of B3U symmetry.
 There are    24 symmetry adapted basis functions of AG  symmetry.
 There are     6 symmetry adapted basis functions of B1G symmetry.
 There are    10 symmetry adapted basis functions of B2G symmetry.
 There are    15 symmetry adapted basis functions of B3G symmetry.
 There are     6 symmetry adapted basis functions of AU  symmetry.
 There are    24 symmetry adapted basis functions of B1U symmetry.
 There are    15 symmetry adapted basis functions of B2U symmetry.
 There are    10 symmetry adapted basis functions of B3U symmetry.
   110 basis functions,   160 primitive gaussians,   122 cartesian basis functions
     8 alpha electrons        8 beta electrons
       nuclear repulsion energy        33.5201042511 Hartrees.
 IExCor= 4639 DFT=T Ex+Corr=wB97XD ExCW=0 ScaHFX=  1.000000
 ScaDFX=  1.000000  1.000000  1.000000  1.000000 ScalE2=  1.000000  1.000000
 IRadAn=      5 IRanWt=     -1 IRanGd=            0 ICorTp=0 IEmpDi=121
 HFx  wShort=  0.000000 wLong=  0.200000 cFull=  0.222036 cShort=  0.000000 cLong=  0.777964
 DFx  wShort=  0.000000 wLong=  0.200000 cFull=  0.000000 cShort=  0.000000 cLong=  1.000000
 NAtoms=    6 NActive=    6 NUniq=    2 SFac= 4.00D+00 NAtFMM=   60 NAOKFM=F Big=F
 Integral buffers will be    131072 words long.
 Raffenetti 1 integral format.
 Two-electron integral symmetry is turned on.
 R6Disp:  Grimme-D2 Dispersion energy=       -0.0008304998 Hartrees.
 Nuclear repulsion after empirical dispersion term =       33.5192737513 Hartrees.
 Leave Link  301 at Sun Feb 27 06:39:24 2022, MaxMem=  8589934592 cpu:               1.8 elap:               0.3
 (Enter /home/rr/g16/l302.exe)
 NPDir=0 NMtPBC=     1 NCelOv=     1 NCel=       1 NClECP=     1 NCelD=      1
         NCelK=      1 NCelE2=     1 NClLst=     1 CellRange=     0.0.
 One-electron integrals computed using PRISM.
 One-electron integral symmetry used in STVInt
 NBasis=   110 RedAO= T EigKep=  1.36D-05  NBF=    24     6    10    15     6    24    15    10
 NBsUse=   110 1.00D-06 EigRej= -1.00D+00 NBFU=    24     6    10    15     6    24    15    10
 Precomputing XC quadrature grid using
 IXCGrd= 4 IRadAn=           5 IRanWt=          -1 IRanGd=           0 AccXCQ= 0.00D+00.
 Generated NRdTot=       0 NPtTot=           0 NUsed=           0 NTot=          32
 NSgBfM=   122   122   122   122   122 MxSgAt=     6 MxSgA2=     6.
 Leave Link  302 at Sun Feb 27 06:39:25 2022, MaxMem=  8589934592 cpu:               3.0 elap:               0.5
 (Enter /home/rr/g16/l303.exe)
 DipDrv:  MaxL=1.
 Leave Link  303 at Sun Feb 27 06:39:25 2022, MaxMem=  8589934592 cpu:               0.8 elap:               0.2
 (Enter /home/rr/g16/l308.exe)
 Leave Link  308 at Sun Feb 27 06:39:26 2022, MaxMem=  8589934592 cpu:               0.7 elap:               0.2
 (Enter /home/rr/g16/l401.exe)
 ExpMin= 4.85D-02 ExpMax= 1.36D+04 ExpMxC= 4.63D+02 IAcc=3 IRadAn=         5 AccDes= 0.00D+00
 Harris functional with IExCor= 4639 and IRadAn=       5 diagonalized for initial guess.
 HarFok:  IExCor= 4639 AccDes= 0.00D+00 IRadAn=         5 IDoV= 1 UseB2=F ITyADJ=14
 ICtDFT=  3500011 ScaDFX=  1.000000  1.000000  1.000000  1.000000
 FoFCou: FMM=F IPFlag=           0 FMFlag=      100000 FMFlg1=           0
         NFxFlg=           0 DoJE=T BraDBF=F KetDBF=T FulRan=T
         wScrn=  0.000000 ICntrl=       500 IOpCl=  0 I1Cent=   200000004 NGrid=           0
         NMat0=    1 NMatS0=      1 NMatT0=    0 NMatD0=    1 NMtDS0=    0 NMtDT0=    0
 Petite list used in FoFCou.
 Harris En= -74.7005528927669    
 JPrj=0 DoOrth=F DoCkMO=F.
 Initial guess orbital symmetries:
       Occupied  (AG) (B1U) (AG) (B1U) (B2U) (AG) (B3G) (B3U)
       Virtual   (B2G) (AG) (B1U) (B2U) (AG) (B3G) (AG) (B3U) (B1G)
                 (B1U) (B2U) (B2G) (B1U) (AG) (AU) (B1U) (B2U)
                 (B3U) (AG) (B3G) (B3G) (B1U) (B3U) (B1G) (AG)
                 (B2G) (B3G) (B2U) (B1U) (AG) (B1U) (B2U) (AU)
                 (B2G) (AG) (B1U) (B2U) (AG) (B1U) (B3G) (B1G)
                 (B1U) (B3G) (B3U) (AG) (AU) (B2U) (AG) (B2G) (B1U)
                 (B3G) (B1U) (B3U) (AG) (B2U) (B2G) (B1G) (B2U)
                 (B3G) (B1U) (B3U) (B2G) (AG) (B1U) (AG) (AU) (B3G)
                 (AG) (B2U) (B1U) (B2U) (B3U) (AG) (B1U) (B3G)
                 (AG) (B1G) (B3U) (B1U) (B3G) (B2G) (B1G) (AU)
                 (B2U) (AG) (B3G) (B2G) (B3U) (B1U) (B2U) (AU)
                 (B1U) (AG) (B2U) (B3G) (B2G) (AG) (B1U) (B3G)
                 (B1U) (AG) (B1U)
 The electronic state of the initial guess is 1-AG.
 Leave Link  401 at Sun Feb 27 06:39:27 2022, MaxMem=  8589934592 cpu:               4.7 elap:               0.9
 (Enter /home/rr/g16/l502.exe)
 Keep R1 ints in memory in symmetry-blocked form, NReq=45560384.
 FoFCou: FMM=F IPFlag=           0 FMFlag=           0 FMFlg1=           0
         NFxFlg=           0 DoJE=F BraDBF=F KetDBF=F FulRan=T
         wScrn=  0.000000 ICntrl=       600 IOpCl=  0 I1Cent=           0 NGrid=           0
         NMat0=    1 NMatS0=   6105 NMatT0=    0 NMatD0=    1 NMtDS0=    0 NMtDT0=    0
 Petite list used in FoFCou.
 Closed shell SCF:
 Using DIIS extrapolation, IDIIS=  1040.
 NGot=  8589934592 LenX=  8587462099 LenY=  8587446774
 Requested convergence on RMS density matrix=1.00D-08 within 100 cycles.
 Requested convergence on MAX density matrix=1.00D-06.
 Requested convergence on             energy=1.00D-06.
 No special actions if energy rises.

 Cycle   1  Pass 1  IDiag  1:
 E= -78.5629000838956    
 DIIS: error= 7.25D-02 at cycle   1 NSaved=   1.
 NSaved= 1 IEnMin= 1 EnMin= -78.5629000838956     IErMin= 1 ErrMin= 7.25D-02
 ErrMax= 7.25D-02  0.00D+00 EMaxC= 1.00D-01 BMatC= 1.67D-01 BMatP= 1.67D-01
 IDIUse=3 WtCom= 2.75D-01 WtEn= 7.25D-01
 Coeff-Com:  0.100D+01
 Coeff-En:   0.100D+01
 Coeff:      0.100D+01
 Gap=     0.401 Goal=   None    Shift=    0.000
 GapD=    0.401 DampG=2.000 DampE=0.500 DampFc=1.0000 IDamp=-1.
 RMSDP=3.48D-03 MaxDP=7.84D-02              OVMax= 6.12D-02

 Cycle   2  Pass 1  IDiag  1:
 E= -78.5840403673016     Delta-E=       -0.021140283406 Rises=F Damp=F
 DIIS: error= 1.07D-02 at cycle   2 NSaved=   2.
 NSaved= 2 IEnMin= 2 EnMin= -78.5840403673016     IErMin= 2 ErrMin= 1.07D-02
 ErrMax= 1.07D-02  0.00D+00 EMaxC= 1.00D-01 BMatC= 5.28D-03 BMatP= 1.67D-01
 IDIUse=3 WtCom= 8.93D-01 WtEn= 1.07D-01
 Coeff-Com:  0.834D-01 0.917D+00
 Coeff-En:   0.000D+00 0.100D+01
 Coeff:      0.745D-01 0.926D+00
 Gap=     0.441 Goal=   None    Shift=    0.000
 RMSDP=1.01D-03 MaxDP=1.69D-02 DE=-2.11D-02 OVMax= 3.26D-02

 Cycle   3  Pass 1  IDiag  1:
 E= -78.5874602355229     Delta-E=       -0.003419868221 Rises=F Damp=F
 DIIS: error= 5.97D-03 at cycle   3 NSaved=   3.
 NSaved= 3 IEnMin= 3 EnMin= -78.5874602355229     IErMin= 3 ErrMin= 5.97D-03
 ErrMax= 5.97D-03  0.00D+00 EMaxC= 1.00D-01 BMatC= 1.89D-03 BMatP= 5.28D-03
 IDIUse=3 WtCom= 9.40D-01 WtEn= 5.97D-02
 Coeff-Com:  0.226D-01 0.382D+00 0.596D+00
 Coeff-En:   0.000D+00 0.181D+00 0.819D+00
 Coeff:      0.213D-01 0.370D+00 0.609D+00
 Gap=     0.431 Goal=   None    Shift=    0.000
 RMSDP=3.12D-04 MaxDP=5.03D-03 DE=-3.42D-03 OVMax= 1.18D-02

 Cycle   4  Pass 1  IDiag  1:
 E= -78.5892425153281     Delta-E=       -0.001782279805 Rises=F Damp=F
 DIIS: error= 2.42D-04 at cycle   4 NSaved=   4.
 NSaved= 4 IEnMin= 4 EnMin= -78.5892425153281     IErMin= 4 ErrMin= 2.42D-04
 ErrMax= 2.42D-04  0.00D+00 EMaxC= 1.00D-01 BMatC= 2.12D-06 BMatP= 1.89D-03
 IDIUse=3 WtCom= 9.98D-01 WtEn= 2.42D-03
 Coeff-Com: -0.344D-02-0.522D-01-0.525D-01 0.111D+01
 Coeff-En:   0.000D+00 0.000D+00 0.000D+00 0.100D+01
 Coeff:     -0.343D-02-0.521D-01-0.524D-01 0.111D+01
 Gap=     0.431 Goal=   None    Shift=    0.000
 RMSDP=5.63D-05 MaxDP=1.00D-03 DE=-1.78D-03 OVMax= 8.55D-04

 Cycle   5  Pass 1  IDiag  1:
 E= -78.5892460781642     Delta-E=       -0.000003562836 Rises=F Damp=F
 DIIS: error= 3.33D-05 at cycle   5 NSaved=   5.
 NSaved= 5 IEnMin= 5 EnMin= -78.5892460781642     IErMin= 5 ErrMin= 3.33D-05
 ErrMax= 3.33D-05  0.00D+00 EMaxC= 1.00D-01 BMatC= 2.91D-08 BMatP= 2.12D-06
 IDIUse=1 WtCom= 1.00D+00 WtEn= 0.00D+00
 Coeff-Com: -0.324D-03-0.640D-02-0.108D-01-0.320D-01 0.105D+01
 Coeff:     -0.324D-03-0.640D-02-0.108D-01-0.320D-01 0.105D+01
 Gap=     0.431 Goal=   None    Shift=    0.000
 RMSDP=1.27D-05 MaxDP=2.17D-04 DE=-3.56D-06 OVMax= 1.45D-04

 Cycle   6  Pass 1  IDiag  1:
 E= -78.5892461536957     Delta-E=       -0.000000075531 Rises=F Damp=F
 DIIS: error= 6.77D-06 at cycle   6 NSaved=   6.
 NSaved= 6 IEnMin= 6 EnMin= -78.5892461536957     IErMin= 6 ErrMin= 6.77D-06
 ErrMax= 6.77D-06  0.00D+00 EMaxC= 1.00D-01 BMatC= 9.52D-10 BMatP= 2.91D-08
 IDIUse=1 WtCom= 1.00D+00 WtEn= 0.00D+00
 Coeff-Com:  0.866D-04 0.142D-02 0.134D-02-0.358D-01 0.328D-01 0.100D+01
 Coeff:      0.866D-04 0.142D-02 0.134D-02-0.358D-01 0.328D-01 0.100D+01
 Gap=     0.431 Goal=   None    Shift=    0.000
 RMSDP=2.99D-06 MaxDP=4.96D-05 DE=-7.55D-08 OVMax= 2.84D-05

 Cycle   7  Pass 1  IDiag  1:
 E= -78.5892461559512     Delta-E=       -0.000000002256 Rises=F Damp=F
 DIIS: error= 1.01D-06 at cycle   7 NSaved=   7.
 NSaved= 7 IEnMin= 7 EnMin= -78.5892461559512     IErMin= 7 ErrMin= 1.01D-06
 ErrMax= 1.01D-06  0.00D+00 EMaxC= 1.00D-01 BMatC= 2.82D-11 BMatP= 9.52D-10
 IDIUse=1 WtCom= 1.00D+00 WtEn= 0.00D+00
 Coeff-Com: -0.119D-04-0.173D-03-0.129D-03 0.833D-02-0.257D-01-0.233D+00
 Coeff-Com:  0.125D+01
 Coeff:     -0.119D-04-0.173D-03-0.129D-03 0.833D-02-0.257D-01-0.233D+00
 Coeff:      0.125D+01
 Gap=     0.431 Goal=   None    Shift=    0.000
 RMSDP=5.02D-07 MaxDP=1.12D-05 DE=-2.26D-09 OVMax= 6.03D-06

 Cycle   8  Pass 1  IDiag  1:
 E= -78.5892461560458     Delta-E=       -0.000000000095 Rises=F Damp=F
 DIIS: error= 1.47D-07 at cycle   8 NSaved=   8.
 NSaved= 8 IEnMin= 8 EnMin= -78.5892461560458     IErMin= 8 ErrMin= 1.47D-07
 ErrMax= 1.47D-07  0.00D+00 EMaxC= 1.00D-01 BMatC= 3.57D-13 BMatP= 2.82D-11
 IDIUse=1 WtCom= 1.00D+00 WtEn= 0.00D+00
 Coeff-Com:  0.773D-06 0.681D-05 0.428D-05-0.927D-03 0.439D-02 0.238D-01
 Coeff-Com: -0.225D+00 0.120D+01
 Coeff:      0.773D-06 0.681D-05 0.428D-05-0.927D-03 0.439D-02 0.238D-01
 Coeff:     -0.225D+00 0.120D+01
 Gap=     0.431 Goal=   None    Shift=    0.000
 RMSDP=3.59D-08 MaxDP=5.60D-07 DE=-9.45D-11 OVMax= 8.89D-07

 Cycle   9  Pass 1  IDiag  1:
 E= -78.5892461560474     Delta-E=       -0.000000000002 Rises=F Damp=F
 DIIS: error= 1.19D-08 at cycle   9 NSaved=   9.
 NSaved= 9 IEnMin= 9 EnMin= -78.5892461560474     IErMin= 9 ErrMin= 1.19D-08
 ErrMax= 1.19D-08  0.00D+00 EMaxC= 1.00D-01 BMatC= 6.03D-15 BMatP= 3.57D-13
 IDIUse=1 WtCom= 1.00D+00 WtEn= 0.00D+00
 Coeff-Com: -0.158D-07 0.823D-06-0.523D-06 0.473D-04-0.347D-03-0.832D-03
 Coeff-Com:  0.201D-01-0.198D+00 0.118D+01
 Coeff:     -0.158D-07 0.823D-06-0.523D-06 0.473D-04-0.347D-03-0.832D-03
 Coeff:      0.201D-01-0.198D+00 0.118D+01
 Gap=     0.431 Goal=   None    Shift=    0.000
 RMSDP=5.73D-09 MaxDP=9.91D-08 DE=-1.68D-12 OVMax= 8.34D-08

 SCF Done:  E(RwB97XD) =  -78.5892461560     A.U. after    9 cycles
            NFock=  9  Conv=0.57D-08     -V/T= 2.0055
 KE= 7.815752253645D+01 PE=-2.488060943967D+02 EE= 5.854005195287D+01
 Leave Link  502 at Sun Feb 27 06:39:29 2022, MaxMem=  8589934592 cpu:              11.0 elap:               1.5
 (Enter /home/rr/g16/l801.exe)
 DoSCS=F DFT=T ScalE2(SS,OS)=  1.000000  1.000000
 ExpMin= 4.85D-02 ExpMax= 1.36D+04 ExpMxC= 4.63D+02 IAcc=3 IRadAn=         5 AccDes= 0.00D+00
 HarFok:  IExCor=  205 AccDes= 0.00D+00 IRadAn=         5 IDoV=-2 UseB2=F ITyADJ=14
 ICtDFT= 12500011 ScaDFX=  1.000000  1.000000  1.000000  1.000000
 DSYEVD-2 returned Info=          75 IAlg= 4 N=    37 NDim=    37 NE2=   232159286 trying  DSYEV.
 Largest valence mixing into a core orbital is  6.79D-05
 Largest core mixing into a valence orbital is  1.15D-05
 Range of M.O.s used for correlation:     3   110
 NBasis=   110 NAE=     8 NBE=     8 NFC=     2 NFV=     0
 NROrb=    108 NOA=     6 NOB=     6 NVA=   102 NVB=   102

 **** Warning!!: The largest alpha MO coefficient is  0.97858153D+02

 Leave Link  801 at Sun Feb 27 06:39:29 2022, MaxMem=  8589934592 cpu:               0.6 elap:               0.1
 (Enter /home/rr/g16/l914.exe)
 RHF ground state
 Keep R1, R2, and R3 ints in memory in symmetry-blocked form, NReq=761565580.
 FoFCou: FMM=F IPFlag=           0 FMFlag=           0 FMFlg1=           0
         NFxFlg=           0 DoJE=F BraDBF=F KetDBF=F FulRan=T
         wScrn=  0.000000 ICntrl=       600 IOpCl=  0 I1Cent=           0 NGrid=           0
         NMat0=    1 NMatS0=   6105 NMatT0=    0 NMatD0=    1 NMtDS0=    0 NMtDT0=    0
 Petite list used in FoFCou.
 MDV=  8589934592 DFT=T DoStab=F Mixed=T DoRPA=T DoScal=F NonHer=T
 Making orbital integer symmetry assigments:
 Orbital symmetries:
       Occupied  (AG) (B1U) (AG) (B1U) (B2U) (AG) (B3G) (B3U)
       Virtual   (B2G) (AG) (B1U) (B2U) (B3G) (AG) (AG) (B3U) (B1G)
                 (B1U) (B2U) (B1U) (B2G) (AU) (AG) (B1U) (B2U)
                 (AG) (B3U) (B3G) (B1U) (B3G) (B1G) (B2G) (B3U)
                 (AG) (B3G) (B2U) (B1U) (B1U) (AG) (B2U) (AU) (B2G)
                 (AG) (B1U) (B2U) (AG) (B1U) (B3G) (B1G) (B1U)
                 (B3G) (B3U) (AG) (AU) (B2U) (AG) (B2G) (B3G) (B1U)
                 (B1U) (B3U) (AG) (B2U) (B2G) (B1G) (B2U) (B1U)
                 (B3G) (B3U) (B2G) (B1U) (AG) (AG) (AU) (B3G) (AG)
                 (B1U) (B2U) (B2U) (B3U) (AG) (B1U) (B3G) (AG)
                 (B1G) (B3U) (B1U) (B3G) (B2G) (B1G) (AU) (B2U)
                 (AG) (B3G) (B2G) (B3U) (B1U) (B2U) (AU) (B1U)
                 (AG) (B3G) (B2U) (B2G) (AG) (B1U) (B3G) (B1U)
                 (AG) (B1U)
   612 initial guesses have been made.
 Convergence on wavefunction:    0.001000000000000
 Davidson Disk Diagonalization:  ConvIn= 1.00D-03 SkipCon=T Conv= 1.00D-03.
 Max sub-space:  3672 roots to seek:  1224 dimension of matrix:         1224
 *** WARNING: Number of orthogonal guesses is          612
 Iteration     1 Dimension   612 NMult     0 NNew    612
 CISAX will form   612 AO SS matrices at one time.
 NMat=   612 NSing=   612 JSym2X=-1.
 New state      1 was old state      2
 New state      2 was old state      1
 New state      3 was old state      5
 New state      4 was old state      3
 New state      5 was old state      4
 New state      7 was old state     13
 New state      8 was old state      9
 New state      9 was old state      8
 New state     10 was old state      7
 New state     11 was old state     10
 New state     12 was old state     14
 New state     13 was old state     11
 New state     14 was old state     12
 New state     15 was old state     22
 New state     17 was old state     20
 New state     18 was old state     15
 New state     20 was old state     17
 New state     21 was old state     23
 New state     22 was old state     18
 New state     23 was old state     21
 New state     24 was old state     25
 New state     25 was old state     28
 New state     26 was old state     24
 New state     27 was old state     26
 New state     28 was old state     30
 New state     30 was old state     32
 New state     31 was old state     35
 New state     32 was old state     33
 New state     33 was old state     27
 New state     34 was old state     31
 New state     35 was old state     36
 New state     36 was old state     34
 New state     39 was old state     41
 New state     40 was old state     43
 New state     41 was old state     40
 New state     42 was old state     44
 New state     43 was old state     50
 New state     44 was old state     39
 New state     45 was old state     47
 New state     47 was old state     49
 New state     49 was old state     52
 New state     50 was old state     55
 New state     51 was old state     42
 New state     52 was old state     45
 New state     53 was old state     51
 New state     54 was old state     53
 New state     55 was old state     56
 New state     56 was old state     61
 New state     57 was old state     54
 New state     58 was old state     60
 New state     59 was old state     63
 New state     60 was old state     58
 New state     61 was old state     64
 New state     62 was old state     71
 New state     63 was old state     62
 New state     64 was old state     59
 New state     65 was old state     67
 New state     66 was old state     65
 New state     67 was old state     57
 New state     68 was old state     69
 New state     69 was old state     73
 New state     70 was old state     68
 New state     71 was old state     72
 New state     72 was old state     70
 New state     73 was old state     74
 New state     74 was old state     66
 New state     76 was old state     82
 New state     77 was old state     76
 New state     78 was old state     77
 New state     79 was old state     80
 New state     80 was old state     81
 New state     81 was old state     79
 New state     82 was old state     85
 New state     83 was old state     78
 New state     85 was old state     92
 New state     87 was old state     83
 New state     88 was old state     91
 New state     89 was old state     88
 New state     91 was old state     97
 New state     92 was old state     93
 New state     93 was old state    103
 New state     94 was old state     89
 New state     95 was old state     96
 New state     96 was old state     99
 New state     97 was old state     87
 New state     98 was old state     95
 New state     99 was old state    104
 New state    100 was old state    102
 New state    101 was old state    106
 New state    102 was old state     94
 New state    103 was old state    100
 New state    104 was old state    101
 New state    105 was old state     98
 New state    106 was old state    112
 New state    107 was old state    108
 New state    108 was old state    107
 New state    109 was old state    110
 New state    110 was old state    115
 New state    111 was old state    114
 New state    112 was old state    105
 New state    114 was old state    109
 New state    115 was old state    111
 New state    116 was old state    123
 New state    117 was old state    127
 New state    118 was old state    120
 New state    119 was old state    117
 New state    120 was old state    116
 New state    121 was old state    119
 New state    122 was old state    118
 New state    123 was old state    122
 New state    124 was old state    128
 New state    125 was old state    124
 New state    127 was old state    135
 New state    128 was old state    121
 New state    129 was old state    125
 New state    130 was old state    131
 New state    131 was old state    134
 New state    132 was old state    129
 New state    133 was old state    142
 New state    134 was old state    130
 New state    135 was old state    133
 New state    137 was old state    138
 New state    138 was old state    137
 New state    139 was old state    132
 New state    140 was old state    139
 New state    141 was old state    140
 New state    142 was old state    141
 New state    143 was old state    144
 New state    144 was old state    145
 New state    145 was old state    152
 New state    146 was old state    150
 New state    147 was old state    148
 New state    148 was old state    149
 New state    149 was old state    153
 New state    150 was old state    151
 New state    151 was old state    157
 New state    152 was old state    154
 New state    153 was old state    143
 New state    154 was old state    146
 New state    155 was old state    147
 New state    156 was old state    158
 New state    157 was old state    155
 New state    158 was old state    159
 New state    159 was old state    165
 New state    161 was old state    164
 New state    163 was old state    156
 New state    164 was old state    172
 New state    165 was old state    169
 New state    166 was old state    167
 New state    167 was old state    161
 New state    168 was old state    163
 New state    169 was old state    166
 New state    170 was old state    168
 New state    171 was old state    170
 New state    172 was old state    175
 New state    173 was old state    181
 New state    174 was old state    171
 New state    175 was old state    174
 New state    176 was old state    173
 New state    177 was old state    176
 New state    178 was old state    179
 New state    179 was old state    180
 New state    180 was old state    177
 New state    181 was old state    185
 New state    182 was old state    178
 New state    183 was old state    184
 New state    184 was old state    186
 New state    185 was old state    182
 New state    186 was old state    188
 New state    187 was old state    196
 New state    188 was old state    194
 New state    190 was old state    187
 New state    191 was old state    183
 New state    193 was old state    191
 New state    194 was old state    190
 New state    195 was old state    197
 New state    196 was old state    193
 New state    197 was old state    203
 New state    199 was old state    195
 New state    200 was old state    201
 New state    201 was old state    199
 New state    202 was old state    205
 New state    203 was old state    200
 New state    205 was old state    202
 New state    207 was old state    209
 New state    209 was old state    211
 New state    210 was old state    207
 New state    211 was old state    212
 New state    212 was old state    210
 New state    213 was old state    215
 New state    214 was old state    213
 New state    215 was old state    214
 New state    217 was old state    228
 New state    218 was old state    217
 New state    219 was old state    223
 New state    221 was old state    222
 New state    222 was old state    218
 New state    223 was old state    224
 New state    224 was old state    231
 New state    225 was old state    219
 New state    226 was old state    233
 New state    227 was old state    225
 New state    228 was old state    226
 New state    231 was old state    227
 New state    232 was old state    221
 New state    233 was old state    232
 New state    235 was old state    238
 New state    236 was old state    237
 New state    237 was old state    240
 New state    238 was old state    239
 New state    239 was old state    235
 New state    240 was old state    246
 New state    241 was old state    252
 New state    242 was old state    236
 New state    243 was old state    242
 New state    244 was old state    241
 New state    245 was old state    248
 New state    246 was old state    250
 New state    247 was old state    244
 New state    248 was old state    247
 New state    249 was old state    243
 New state    250 was old state    253
 New state    251 was old state    257
 New state    252 was old state    251
 New state    253 was old state    249
 New state    256 was old state    258
 New state    257 was old state    260
 New state    258 was old state    256
 New state    260 was old state    262
 New state    261 was old state    264
 New state    262 was old state    245
 New state    264 was old state    266
 New state    265 was old state    261
 New state    266 was old state    265
 New state    268 was old state    269
 New state    269 was old state    268
 New state    270 was old state    273
 New state    273 was old state    270
 New state    275 was old state    278
 New state    276 was old state    279
 New state    277 was old state    280
 New state    278 was old state    281
 New state    279 was old state    275
 New state    280 was old state    277
 New state    281 was old state    282
 New state    282 was old state    276
 New state    283 was old state    284
 New state    284 was old state    283
 New state    285 was old state    286
 New state    286 was old state    285
 New state    287 was old state    289
 New state    289 was old state    287
 New state    290 was old state    291
 New state    291 was old state    290
 New state    293 was old state    295
 New state    295 was old state    293
 New state    298 was old state    299
 New state    299 was old state    298
 New state    305 was old state    308
 New state    306 was old state    305
 New state    308 was old state    306
 New state    309 was old state    312
 New state    311 was old state    309
 New state    312 was old state    311
 New state    317 was old state    318
 New state    318 was old state    317
 New state    323 was old state    324
 New state    324 was old state    325
 New state    325 was old state    323
 New state    326 was old state    327
 New state    327 was old state    326
 New state    329 was old state    330
 New state    330 was old state    329
 New state    333 was old state    334
 New state    334 was old state    333
 New state    336 was old state    339
 New state    338 was old state    340
 New state    339 was old state    342
 New state    340 was old state    346
 New state    341 was old state    336
 New state    342 was old state    338
 New state    343 was old state    341
 New state    344 was old state    345
 New state    345 was old state    343
 New state    346 was old state    344
 New state    347 was old state    350
 New state    348 was old state    347
 New state    350 was old state    348
 New state    351 was old state    354
 New state    352 was old state    353
 New state    353 was old state    351
 New state    354 was old state    352
 New state    356 was old state    358
 New state    357 was old state    356
 New state    358 was old state    357
 New state    360 was old state    364
 New state    361 was old state    360
 New state    362 was old state    361
 New state    363 was old state    362
 New state    364 was old state    365
 New state    365 was old state    366
 New state    366 was old state    363
 New state    367 was old state    368
 New state    368 was old state    367
 New state    369 was old state    370
 New state    370 was old state    369
 New state    373 was old state    374
 New state    374 was old state    373
 New state    376 was old state    378
 New state    377 was old state    379
 New state    378 was old state    377
 New state    379 was old state    376
 New state    384 was old state    385
 New state    385 was old state    387
 New state    386 was old state    384
 New state    387 was old state    386
 New state    389 was old state    390
 New state    390 was old state    389
 New state    393 was old state    394
 New state    394 was old state    393
 New state    395 was old state    398
 New state    396 was old state    395
 New state    398 was old state    396
 New state    400 was old state    401
 New state    401 was old state    400
 New state    406 was old state    407
 New state    407 was old state    408
 New state    408 was old state    406
 New state    409 was old state    410
 New state    410 was old state    409
 New state    416 was old state    418
 New state    418 was old state    416
 New state    419 was old state    420
 New state    420 was old state    419
 New state    423 was old state    424
 New state    424 was old state    423
 New state    425 was old state    426
 New state    426 was old state    425
 New state    429 was old state    430
 New state    430 was old state    429
 New state    431 was old state    432
 New state    432 was old state    431
 New state    436 was old state    439
 New state    437 was old state    436
 New state    438 was old state    442
 New state    439 was old state    438
 New state    440 was old state    443
 New state    442 was old state    444
 New state    443 was old state    440
 New state    444 was old state    437
 New state    445 was old state    446
 New state    446 was old state    445
 New state    453 was old state    455
 New state    455 was old state    453
 New state    456 was old state    458
 New state    457 was old state    459
 New state    458 was old state    456
 New state    459 was old state    460
 New state    460 was old state    463
 New state    461 was old state    457
 New state    462 was old state    461
 New state    463 was old state    462
 New state    464 was old state    465
 New state    465 was old state    464
 New state    467 was old state    470
 New state    469 was old state    467
 New state    470 was old state    471
 New state    471 was old state    472
 New state    472 was old state    473
 New state    473 was old state    469
 New state    474 was old state    475
 New state    475 was old state    474
 New state    476 was old state    477
 New state    477 was old state    476
 New state    480 was old state    481
 New state    481 was old state    480
 New state    482 was old state    483
 New state    483 was old state    482
 New state    488 was old state    489
 New state    489 was old state    494
 New state    490 was old state    488
 New state    493 was old state    490
 New state    494 was old state    493
 New state    495 was old state    497
 New state    496 was old state    495
 New state    497 was old state    496
 New state    499 was old state    500
 New state    500 was old state    501
 New state    501 was old state    499
 New state    502 was old state    503
 New state    503 was old state    502
 New state    504 was old state    506
 New state    505 was old state    504
 New state    506 was old state    505
 New state    507 was old state    510
 New state    508 was old state    507
 New state    509 was old state    508
 New state    510 was old state    512
 New state    511 was old state    514
 New state    512 was old state    511
 New state    514 was old state    509
 New state    516 was old state    518
 New state    517 was old state    516
 New state    518 was old state    517
 New state    524 was old state    526
 New state    526 was old state    527
 New state    527 was old state    524
 New state    528 was old state    531
 New state    529 was old state    528
 New state    530 was old state    529
 New state    531 was old state    530
 New state    535 was old state    536
 New state    536 was old state    535
 New state    537 was old state    538
 New state    538 was old state    537
 New state    541 was old state    543
 New state    543 was old state    541
 New state    545 was old state    546
 New state    546 was old state    545
 New state    559 was old state    560
 New state    560 was old state    559
 New state    564 was old state    565
 New state    565 was old state    566
 New state    566 was old state    564
 New state    572 was old state    573
 New state    573 was old state    572
 New state    575 was old state    576
 New state    576 was old state    575
 New state    579 was old state    580
 New state    580 was old state    579
 New state    583 was old state    584
 New state    584 was old state    583
 Excitation Energies [eV] at current iteration:
 Root      1 :     7.513799885615037
 Root      2 :     7.770918384416800
 Root      3 :     8.155577525523588
 Root      4 :     8.257040565047598
 Root      5 :     8.736059891702482
 Root      6 :     9.656209056515333
 Root      7 :     9.703394102468955
 Root      8 :     9.819561373135134
 Root      9 :    10.314613459914800
 Root     10 :    10.317750647277250
 Root     11 :    10.526074945959430
 Root     12 :    11.017200523600720
 Root     13 :    11.018381247498190
 Root     14 :    11.047703697888910
 Root     15 :    11.320464616637570
 Root     16 :    11.691758378763510
 Root     17 :    11.732688156861230
 Root     18 :    11.745261508102340
 Root     19 :    12.040499734305710
 Root     20 :    12.213447047945530
 Root     21 :    12.473699986670620
 Root     22 :    12.710316644798450
 Root     23 :    12.714283517486950
 Root     24 :    12.818187408553930
 Root     25 :    12.929236494773490
 Root     26 :    12.943196768041830
 Root     27 :    13.108714423563270
 Root     28 :    13.182929938113540
 Root     29 :    13.547745406348170
 Root     30 :    13.562166394745910
 Root     31 :    13.803098360641400
 Root     32 :    13.856621160092420
 Root     33 :    13.874430641662450
 Root     34 :    13.990395864138590
 Root     35 :    14.106118902135060
 Root     36 :    14.265788399414730
 Root     37 :    14.343710268395500
 Root     38 :    14.345745660703880
 Root     39 :    14.451230467862960
 Root     40 :    14.679787505237020
 Root     41 :    14.685461550005020
 Root     42 :    14.818094697120400
 Root     43 :    14.906683528297480
 Root     44 :    14.916320286542700
 Root     45 :    15.049722106516890
 Root     46 :    15.350531723693460
 Root     47 :    15.430099250622110
 Root     48 :    15.685554460732860
 Root     49 :    15.793251502062960
 Root     50 :    15.917354497486660
 Root     51 :    15.930592347165550
 Root     52 :    15.967474176645220
 Root     53 :    16.073672101959420
 Root     54 :    16.237987088919220
 Root     55 :    16.294700202597910
 Root     56 :    16.319050814580790
 Root     57 :    16.361314099694190
 Root     58 :    16.457640581385870
 Root     59 :    16.513954383379210
 Root     60 :    16.568904714027130
 Root     61 :    16.645516480556850
 Root     62 :    16.787887066723210
 Root     63 :    16.827730247591980
 Root     64 :    16.855842041481500
 Root     65 :    16.896331499631580
 Root     66 :    17.016489279475610
 Root     67 :    17.031721983899960
 Root     68 :    17.223881922546700
 Root     69 :    17.315865308945310
 Root     70 :    17.422291333271690
 Root     71 :    17.455613463425200
 Root     72 :    17.488866237685000
 Root     73 :    17.492995366630400
 Root     74 :    17.597175904701240
 Root     75 :    17.726685198021260
 Root     76 :    17.796713837092190
 Root     77 :    17.831185709330960
 Root     78 :    17.954814617004520
 Root     79 :    18.199620541758390
 Root     80 :    18.208499343010970
 Root     81 :    18.222894839101880
 Root     82 :    18.253598493176970
 Root     83 :    18.369486803004560
 Root     84 :    18.527478061437570
 Root     85 :    18.792317570306460
 Root     86 :    18.797117326118620
 Root     87 :    19.011086462714960
 Root     88 :    19.117576635934750
 Root     89 :    19.127654982698580
 Root     90 :    19.154062632133170
 Root     91 :    19.160565789991750
 Root     92 :    19.236586440975080
 Root     93 :    19.311675297771590
 Root     94 :    19.422260249372000
 Root     95 :    19.510199142824610
 Root     96 :    19.516577757614920
 Root     97 :    19.550283434748840
 Root     98 :    19.656024541205480
 Root     99 :    19.756353543690910
 Root    100 :    19.830298212887330
 Root    101 :    19.872852241728050
 Root    102 :    19.883053542211690
 Root    103 :    19.956981768105420
 Root    104 :    19.979258629756800
 Root    105 :    20.057750473311950
 Root    106 :    20.150541601826550
 Root    107 :    20.244237854542890
 Root    108 :    20.319653462907190
 Root    109 :    20.395378948734610
 Root    110 :    20.408975876263340
 Root    111 :    20.424789242048970
 Root    112 :    20.568451650306100
 Root    113 :    20.633832919246330
 Root    114 :    20.880848707990270
 Root    115 :    20.923831276611520
 Root    116 :    20.952522016623170
 Root    117 :    21.063536267340140
 Root    118 :    21.205110806498220
 Root    119 :    21.275687648149880
 Root    120 :    21.368839809980080
 Root    121 :    21.372909965177560
 Root    122 :    21.447686457818140
 Root    123 :    21.518871354544820
 Root    124 :    21.541155042607810
 Root    125 :    21.797459772672610
 Root    126 :    21.803226277274110
 Root    127 :    21.849296875725850
 Root    128 :    21.988068068895450
 Root    129 :    22.013736881264190
 Root    130 :    22.057007606214970
 Root    131 :    22.170979548783220
 Root    132 :    22.278130697949930
 Root    133 :    22.377136388668210
 Root    134 :    22.412660214121910
 Root    135 :    22.435553558193860
 Root    136 :    22.464885323650930
 Root    137 :    22.633074702649070
 Root    138 :    22.703734603174850
 Root    139 :    22.825132636794090
 Root    140 :    22.888685647092650
 Root    141 :    23.019366653484540
 Root    142 :    23.043371503408340
 Root    143 :    23.225100151381540
 Root    144 :    23.309384925049650
 Root    145 :    23.373650348100300
 Root    146 :    23.485241604480490
 Root    147 :    23.512165556969720
 Root    148 :    23.545887028853920
 Root    149 :    23.586867256003660
 Root    150 :    23.688209106282310
 Root    151 :    23.760731201665080
 Root    152 :    23.863590539220200
 Root    153 :    23.982164705328850
 Root    154 :    24.099071152939660
 Root    155 :    24.146838464135540
 Root    156 :    24.300290146696490
 Root    157 :    24.416308816278420
 Root    158 :    24.481765784559580
 Root    159 :    24.647088244095900
 Root    160 :    24.737272334465420
 Root    161 :    24.748591933654510
 Root    162 :    24.757307304267930
 Root    163 :    24.792729816047390
 Root    164 :    24.998084501173320
 Root    165 :    25.112031941925790
 Root    166 :    25.246736905718440
 Root    167 :    25.348099558180700
 Root    168 :    25.412382595853170
 Root    169 :    25.456899751657940
 Root    170 :    25.530997221409800
 Root    171 :    25.732643502004500
 Root    172 :    25.829314861702570
 Root    173 :    25.898688636010700
 Root    174 :    25.900447335618930
 Root    175 :    26.012280825303180
 Root    176 :    26.133718217453940
 Root    177 :    26.214223914406710
 Root    178 :    26.231871035087580
 Root    179 :    26.252287095771720
 Root    180 :    26.389821102088280
 Root    181 :    26.464978104953770
 Root    182 :    26.520858651440410
 Root    183 :    26.564140985703240
 Root    184 :    26.751736491832410
 Root    185 :    26.760338847521910
 Root    186 :    26.966548697428590
 Root    187 :    27.104496288639200
 Root    188 :    27.105659811652860
 Root    189 :    27.107895811175400
 Root    190 :    27.343918911344820
 Root    191 :    27.350816056364310
 Root    192 :    27.520100696639430
 Root    193 :    27.689528191289610
 Root    194 :    27.774424860023380
 Root    195 :    28.075131588220100
 Root    196 :    28.101099931275910
 Root    197 :    28.221293368979480
 Root    198 :    28.231647115422640
 Root    199 :    28.384465938565210
 Root    200 :    28.529335982747120
 Root    201 :    28.558045662833970
 Root    202 :    28.867920916938880
 Root    203 :    28.954390617835540
 Root    204 :    29.065425454655660
 Root    205 :    29.140799885052810
 Root    206 :    29.165731304966000
 Root    207 :    29.320735813773180
 Root    208 :    29.338652291634680
 Root    209 :    29.560435292193120
 Root    210 :    29.842002085817680
 Root    211 :    29.847337717936610
 Root    212 :    30.255043753837480
 Root    213 :    30.272240006234720
 Root    214 :    30.277095440313790
 Root    215 :    30.281587049839660
 Root    216 :    30.538489586739000
 Root    217 :    30.635300096030710
 Root    218 :    30.647489959458640
 Root    219 :    30.701661452583050
 Root    220 :    30.723605249470540
 Root    221 :    30.950692325183010
 Root    222 :    31.039448224041170
 Root    223 :    31.052877652713710
 Root    224 :    31.207084329814600
 Root    225 :    31.287345408160860
 Root    226 :    31.319817593864740
 Root    227 :    31.364999641124560
 Root    228 :    31.514043079011220
 Root    229 :    31.578018064340410
 Root    230 :    31.621408679751380
 Root    231 :    31.688526362832040
 Root    232 :    31.740449297699160
 Root    233 :    32.045136201958380
 Root    234 :    32.117936213206520
 Root    235 :    32.343636121313660
 Root    236 :    32.556055508006570
 Root    237 :    32.726678274806660
 Root    238 :    33.051358336261810
 Root    239 :    33.206420113391960
 Root    240 :    33.454849270883870
 Root    241 :    33.476993789618860
 Root    242 :    33.609779462781400
 Root    243 :    33.693253471409680
 Root    244 :    33.768953308776200
 Root    245 :    33.898622690096320
 Root    246 :    33.939339408668190
 Root    247 :    34.037781538957210
 Root    248 :    34.098580910163170
 Root    249 :    34.191477691204080
 Root    250 :    34.346130143732730
 Root    251 :    34.729074828265520
 Root    252 :    34.928658550629020
 Root    253 :    34.962293932451530
 Root    254 :    35.239538023171400
 Root    255 :    35.400378225659320
 Root    256 :    35.445396819662360
 Root    257 :    35.573328403918920
 Root    258 :    35.882062750549280
 Root    259 :    36.320913396838880
 Root    260 :    36.608252049224830
 Root    261 :    36.741274890434270
 Root    262 :    36.809552015794810
 Root    263 :    37.159823759011180
 Root    264 :    37.219365643937090
 Root    265 :    37.313062174546300
 Root    266 :    37.460233538515290
 Root    267 :    37.820124816627170
 Root    268 :    38.529468424528960
 Root    269 :    38.663691384426780
 Root    270 :    38.990838357333490
 Root    271 :    39.020111878762560
 Root    272 :    39.051744201332010
 Root    273 :    39.232716350067330
 Root    274 :    39.723774684816470
 Root    275 :    39.744052599726600
 Root    276 :    40.073825264470020
 Root    277 :    40.084519438002400
 Root    278 :    40.092991634849160
 Root    279 :    40.277266782417680
 Root    280 :    40.377342406338980
 Root    281 :    40.503180935576570
 Root    282 :    40.871131101856850
 Root    283 :    41.018707403485440
 Root    284 :    41.257525127827950
 Root    285 :    42.078845176517930
 Root    286 :    42.102378342687640
 Root    287 :    42.162838040078710
 Root    288 :    42.684274798265320
 Root    289 :    42.804943518915560
 Root    290 :    42.856013259424610
 Root    291 :    43.040702860692150
 Root    292 :    43.169835603047080
 Root    293 :    43.986142453785220
 Root    294 :    44.206310053088380
 Root    295 :    44.328736044752990
 Root    296 :    45.174223177024840
 Root    297 :    45.419373861639360
 Root    298 :    45.827063385868230
 Root    299 :    45.853430035377010
 Root    300 :    46.454393365427380
 Root    301 :    46.455470109042980
 Root    302 :    46.833787109542400
 Root    303 :    47.832032996790400
 Root    304 :    48.098243271224360
 Root    305 :    48.174273071757630
 Root    306 :    48.785227532581210
 Root    307 :    48.850565943028290
 Root    308 :    48.961180016474670
 Root    309 :    49.500709847477920
 Root    310 :    49.647615146828680
 Root    311 :    49.665269195949160
 Root    312 :    50.286457281338300
 Root    313 :    51.218931810882720
 Root    314 :    52.261413430479070
 Root    315 :    52.747367167939670
 Root    316 :    52.880922015127870
 Root    317 :    53.500611603507910
 Root    318 :    53.797238380422040
 Root    319 :    53.968781448285450
 Root    320 :    54.192445420728030
 Root    321 :    54.367443786085800
 Root    322 :    54.899891709878310
 Root    323 :    55.299670876943930
 Root    324 :    55.651643033257390
 Root    325 :    55.883896802534860
 Root    326 :    56.185124798875780
 Root    327 :    56.536907355325940
 Root    328 :    56.537667785508460
 Root    329 :    56.994351613718890
 Root    330 :    57.215723676691870
 Root    331 :    57.572539710161450
 Root    332 :    57.761321942660210
 Root    333 :    57.965930535211660
 Root    334 :    58.158295325289990
 Root    335 :    58.389332852602080
 Root    336 :    58.848568035685770
 Root    337 :    58.884161278924240
 Root    338 :    58.971498070820380
 Root    339 :    59.015888353322450
 Root    340 :    59.087431076087780
 Root    341 :    59.189572926519390
 Root    342 :    59.232313227694780
 Root    343 :    59.233970133135190
 Root    344 :    59.535577207551070
 Root    345 :    59.813216159257090
 Root    346 :    59.898187179003690
 Root    347 :    60.300744871786720
 Root    348 :    60.315515023195640
 Root    349 :    60.628001056808450
 Root    350 :    60.652256478686670
 Root    351 :    61.343761080736530
 Root    352 :    61.453619763111160
 Root    353 :    61.557551362488660
 Root    354 :    61.694570054549970
 Root    355 :    61.768597090052950
 Root    356 :    62.252700019275470
 Root    357 :    62.397603641925470
 Root    358 :    62.476578203189670
 Root    359 :    62.879318837143410
 Root    360 :    63.441121322320780
 Root    361 :    63.467283475853630
 Root    362 :    63.500463721458570
 Root    363 :    64.117404865907760
 Root    364 :    64.210063140248280
 Root    365 :    64.456619216157040
 Root    366 :    64.543524908834190
 Root    367 :    64.788073069697970
 Root    368 :    64.884944917307140
 Root    369 :    65.314773777034120
 Root    370 :    65.559161841522870
 Root    371 :    65.835598282135410
 Root    372 :    66.244773271920080
 Root    373 :    66.621902917912540
 Root    374 :    66.659544329914300
 Root    375 :    66.983517854726900
 Root    376 :    67.414586765991340
 Root    377 :    67.921386374861680
 Root    378 :    68.027706297119850
 Root    379 :    68.390153520428580
 Root    380 :    68.413878798748870
 Root    381 :    69.079403146209060
 Root    382 :    69.445087611104310
 Root    383 :    70.009145610838910
 Root    384 :    70.264655303435390
 Root    385 :    70.577085192624080
 Root    386 :    70.588259344933310
 Root    387 :    70.823114237752250
 Root    388 :    71.018489051207150
 Root    389 :    71.322850967746110
 Root    390 :    71.411998075630240
 Root    391 :    71.593851210961190
 Root    392 :    71.617214297966400
 Root    393 :    71.830663828194450
 Root    394 :    72.486898927472580
 Root    395 :    72.817991308105480
 Root    396 :    72.921933531771150
 Root    397 :    73.103722078326110
 Root    398 :    73.342959729844510
 Root    399 :    73.797253730390570
 Root    400 :    74.031800290455680
 Root    401 :    74.070155156301820
 Root    402 :    74.497918768341880
 Root    403 :    74.865440151227490
 Root    404 :    74.924419600176680
 Root    405 :    75.391942906891880
 Root    406 :    75.762908546237990
 Root    407 :    75.865561344091260
 Root    408 :    76.006184750272870
 Root    409 :    76.431954736008180
 Root    410 :    76.623458974580590
 Root    411 :    76.658130854405440
 Root    412 :    77.331427248279380
 Root    413 :    77.410436414668270
 Root    414 :    77.962104712852420
 Root    415 :    78.863561643810290
 Root    416 :    79.074619959345330
 Root    417 :    79.179271071589850
 Root    418 :    79.409166705745050
 Root    419 :    79.429447805542790
 Root    420 :    79.539672336787450
 Root    421 :    79.980289968076960
 Root    422 :    80.313118340786200
 Root    423 :    80.359219249662810
 Root    424 :    80.564328582006880
 Root    425 :    80.873891169133370
 Root    426 :    81.109746097039900
 Root    427 :    81.282336902140170
 Root    428 :    81.835159711412090
 Root    429 :    81.915424005075920
 Root    430 :    82.403819400651190
 Root    431 :    82.842871077312130
 Root    432 :    83.562261005399630
 Root    433 :    83.652396973504750
 Root    434 :    83.983221062188090
 Root    435 :    84.276747668339920
 Root    436 :    84.424472541991380
 Root    437 :    84.551825849434100
 Root    438 :    85.033175577794950
 Root    439 :    85.111828500027710
 Root    440 :    85.169431825057770
 Root    441 :    85.342816089924100
 Root    442 :    85.408261766952830
 Root    443 :    85.474366063268720
 Root    444 :    85.495331136947200
 Root    445 :    86.286123248294630
 Root    446 :    86.470752138746330
 Root    447 :    86.922926505085430
 Root    448 :    87.330742925354220
 Root    449 :    87.442487615855700
 Root    450 :    87.881683541662820
 Root    451 :    87.930811459054400
 Root    452 :    88.442083274283310
 Root    453 :    88.502488173799210
 Root    454 :    88.541473527061240
 Root    455 :    88.841181343853720
 Root    456 :    89.200213071093340
 Root    457 :    89.488443627693020
 Root    458 :    89.645812311779470
 Root    459 :    89.769114575586030
 Root    460 :    89.855529391902540
 Root    461 :    89.902544416360830
 Root    462 :    90.672839855572410
 Root    463 :    90.682923810173950
 Root    464 :    91.127597866108420
 Root    465 :    91.257739585542680
 Root    466 :    91.984560972766930
 Root    467 :    92.250336120103980
 Root    468 :    92.435629959767130
 Root    469 :    92.639274582948130
 Root    470 :    92.745282975676690
 Root    471 :    92.882540605800780
 Root    472 :    92.918907177024250
 Root    473 :    93.068197102753430
 Root    474 :    93.198624109966760
 Root    475 :    93.495918586214100
 Root    476 :    93.593812390945760
 Root    477 :    93.793763726581330
 Root    478 :    94.167312231272830
 Root    479 :    94.700778022854980
 Root    480 :    94.798768498756810
 Root    481 :    95.003763083765580
 Root    482 :    95.094622874486160
 Root    483 :    95.413244914853830
 Root    484 :    95.632243189528410
 Root    485 :    96.016653280731230
 Root    486 :    96.017753365912740
 Root    487 :    96.047805061375930
 Root    488 :    96.865668800135610
 Root    489 :    97.329197720303230
 Root    490 :    97.341128022205790
 Root    491 :    97.387951476964060
 Root    492 :    97.567239036046620
 Root    493 :    97.585064234685400
 Root    494 :    97.922976919668570
 Root    495 :    98.169715544448960
 Root    496 :    98.250557381070390
 Root    497 :    98.475598866830340
 Root    498 :    98.481674818165330
 Root    499 :    98.899853427981810
 Root    500 :    99.163474259734340
 Root    501 :    99.538618434774480
 Root    502 :   100.247264723898600
 Root    503 :   100.301758130051300
 Root    504 :   100.515240312819100
 Root    505 :   100.860509598291100
 Root    506 :   100.873967926096100
 Root    507 :   100.970862202440600
 Root    508 :   101.031962258127000
 Root    509 :   101.128478772625200
 Root    510 :   101.729377789249800
 Root    511 :   101.908239513300000
 Root    512 :   102.013204446182400
 Root    513 :   102.035951037819400
 Root    514 :   102.239358565702500
 Root    515 :   103.160961341145100
 Root    516 :   103.169256118638900
 Root    517 :   103.189909311605900
 Root    518 :   103.311671213961900
 Root    519 :   103.649798082125000
 Root    520 :   103.955934299724700
 Root    521 :   104.423097440137400
 Root    522 :   105.055508946738900
 Root    523 :   105.067140924052700
 Root    524 :   105.773363578267600
 Root    525 :   105.800990851802600
 Root    526 :   105.893169098443600
 Root    527 :   106.084667874775500
 Root    528 :   106.183347452209000
 Root    529 :   106.472215063308000
 Root    530 :   106.502386586436700
 Root    531 :   107.055021449161400
 Root    532 :   107.298286036062800
 Root    533 :   107.491295698820900
 Root    534 :   108.378790880296500
 Root    535 :   108.985270100777200
 Root    536 :   109.033004398764600
 Root    537 :   109.487110592832600
 Root    538 :   109.629083490870500
 Root    539 :   110.520057690464700
 Root    540 :   110.528670352075000
 Root    541 :   111.058036387589100
 Root    542 :   111.218698038425600
 Root    543 :   111.302910140802700
 Root    544 :   112.108992757943900
 Root    545 :   112.841091959912100
 Root    546 :   112.890965309930100
 Root    547 :   114.255271190716100
 Root    548 :   115.249213722421600
 Root    549 :   115.443006970502000
 Root    550 :   115.953254569328500
 Root    551 :   118.599215607094500
 Root    552 :   119.897106226714400
 Root    553 :   120.754107836024200
 Root    554 :   121.247997845170300
 Root    555 :   122.148599092445300
 Root    556 :   122.360783774141400
 Root    557 :   122.729533932863900
 Root    558 :   124.167187837423800
 Root    559 :   124.297192966576200
 Root    560 :   124.356782587987100
 Root    561 :   124.924921418622400
 Root    562 :   126.077183656745800
 Root    563 :   126.196891456178300
 Root    564 :   127.489636243335100
 Root    565 :   127.826580636883700
 Root    566 :   127.967505109058600
 Root    567 :   128.082623597530400
 Root    568 :   128.511956444237200
 Root    569 :   128.936739043535800
 Root    570 :   130.834164170205400
 Root    571 :   130.867835986815400
 Root    572 :   130.904396701167800
 Root    573 :   131.148994980004900
 Root    574 :   131.458156582113000
 Root    575 :   132.237094719566800
 Root    576 :   132.305664184735500
 Root    577 :   132.631978786950300
 Root    578 :   133.836363550780900
 Root    579 :   134.089285473938900
 Root    580 :   134.231024751978000
 Root    581 :   134.909180185012300
 Root    582 :   135.843818940212500
 Root    583 :   135.918488103930000
 Root    584 :   136.012140929149000
 Root    585 :   136.267778879100100
 Root    586 :   137.290676745852000
 Root    587 :   137.351232904717300
 Root    588 :   138.070991382337100
 Root    589 :   138.475891011838500
 Root    590 :   140.342533744227000
 Root    591 :   141.213498612176900
 Root    592 :   141.951160031902300
 Root    593 :   144.122032867856500
 Root    594 :   145.227856022380500
 Root    595 :   145.705722138848800
 Root    596 :   146.470976953522000
 Root    597 :   148.220004053742300
 Root    598 :   149.545523108837100
 Root    599 :   152.782216986463300
 Root    600 :   157.607988183117000
 Root    601 :   608.279609131443100
 Root    602 :   611.166835811392200
 Root    603 :   612.203208357869100
 Root    604 :   614.137112629227900
 Root    605 :   617.826667662235100
 Root    606 :   622.662388324568400
 Root    607 :   624.552070053938300
 Root    608 :   627.643793287769000
 Root    609 :   628.558811913475900
 Root    610 :   630.612459163146200
 Root    611 :   634.253408783528400
 Root    612 :   638.900515092657000
 Convergence achieved for final wavefunctions.
 ***********************************************************************
 Excited states from <AA,BB:AA,BB> singles matrix:
 ***********************************************************************
 
 1PDM for each excited state written to RWF  633
 Ground to excited state transition densities written to RWF  633
 Ground to excited state transition electric dipole moments (Au):
       state          X           Y           Z        Dip. S.      Osc.
         1        -0.7130      0.0000      0.0000      0.5083      0.0936
         2        -0.0000     -0.0000     -1.3997      1.9592      0.3730
         3         0.0000     -0.0000     -0.0000      0.0000      0.0000
         4         0.0000      0.0000     -0.0000      0.0000      0.0000
         5         0.0000      0.0000      0.0000      0.0000      0.0000
         6         0.0000     -0.0000      0.0000      0.0000      0.0000
         7        -0.0000      0.0000     -0.0000      0.0000      0.0000
         8         0.7247      0.0000      0.0000      0.5252      0.1263
         9        -0.0000     -0.0000     -0.0000      0.0000      0.0000
        10         0.0000     -0.7116     -0.0000      0.5063      0.1280
        11         0.6020      0.0000      0.0000      0.3624      0.0934
        12        -0.0000     -0.6899      0.0000      0.4759      0.1285
        13        -0.0000      0.0000      0.7568      0.5727      0.1546
        14         0.0000      0.0000     -0.0000      0.0000      0.0000
        15        -0.0000      0.0000     -0.0000      0.0000      0.0000
        16         0.0000     -0.0000      0.0000      0.0000      0.0000
        17        -0.0000     -0.0000      0.0000      0.0000      0.0000
        18        -0.0000      0.0000      0.0000      0.0000      0.0000
        19         0.0000     -0.0000      0.0000      0.0000      0.0000
        20        -0.0000      0.0000     -0.7864      0.6184      0.1850
        21         0.0000     -0.0000      0.0000      0.0000      0.0000
        22        -0.0000     -0.0000      0.0000      0.0000      0.0000
        23         0.0000     -0.0000      0.0000      0.0000      0.0000
        24        -0.0000      0.7901     -0.0000      0.6243      0.1960
        25        -0.0000      0.0000      0.0000      0.0000      0.0000
        26        -0.0000     -0.0000      0.2128      0.0453      0.0144
        27         0.0000     -0.5759     -0.0000      0.3316      0.1065
        28        -0.0000      0.0000      0.0000      0.0000      0.0000
        29        -0.0000     -0.0000      0.0000      0.0000      0.0000
        30         0.3457     -0.0000     -0.0000      0.1195      0.0397
        31         0.0000      0.0000     -0.0000      0.0000      0.0000
        32        -0.0000      0.0000     -0.0000      0.0000      0.0000
        33        -0.0000     -0.0000     -0.0000      0.0000      0.0000
        34        -0.0000     -1.0670     -0.0000      1.1385      0.3902
        35         0.0000     -0.0000      0.0000      0.0000      0.0000
        36         0.0000      0.0000     -0.0000      0.0000      0.0000
        37         0.0000      0.0000     -0.0000      0.0000      0.0000
        38        -0.0000      0.0000     -1.1041      1.2190      0.4285
        39        -0.0000      0.0000      0.0000      0.0000      0.0000
        40        -0.0000      0.0000     -0.0000      0.0000      0.0000
        41         0.0000     -0.0572      0.0000      0.0033      0.0012
        42         0.4766      0.0000      0.0000      0.2271      0.0825
        43        -0.0240     -0.0000     -0.0000      0.0006      0.0002
        44         0.0000      0.0000      0.0000      0.0000      0.0000
        45        -0.0000     -0.0000     -0.0000      0.0000      0.0000
        46         0.0000     -0.2872     -0.0000      0.0825      0.0310
        47        -0.0285     -0.0000      0.0000      0.0008      0.0003
        48         0.0000     -0.0000      0.0826      0.0068      0.0026
        49        -0.0000     -0.0000     -0.0000      0.0000      0.0000
        50         0.0000     -0.0492      0.0000      0.0024      0.0009
        51        -1.1653     -0.0000      0.0000      1.3580      0.5300
        52        -0.0000      0.0000     -0.0747      0.0056      0.0022
        53        -0.0000     -0.0000      0.0000      0.0000      0.0000
        54         0.0000      0.6847     -0.0000      0.4688      0.1865
        55        -0.0000      0.5493     -0.0000      0.3017      0.1205
        56        -0.0000      0.0000      0.0000      0.0000      0.0000
        57        -0.0000     -0.0000     -0.2409      0.0581      0.0233
        58         0.0000     -0.0000      0.0000      0.0000      0.0000
        59        -0.0000      0.0000      0.0000      0.0000      0.0000
        60         0.0000     -0.0000     -0.1200      0.0144      0.0058
        61        -0.0000      0.0000     -0.0000      0.0000      0.0000
        62        -0.0000     -0.0000      0.0000      0.0000      0.0000
        63        -0.8174      0.0000      0.0000      0.6682      0.2755
        64        -0.0000      0.0000     -1.1784      1.3887      0.5735
        65         0.0000     -0.0000      0.0000      0.0000      0.0000
        66        -0.0000     -0.0000      0.0000      0.0000      0.0000
        67        -0.0000      0.0000     -0.0000      0.0000      0.0000
        68         0.0000      0.2977     -0.0000      0.0886      0.0374
        69         0.0000      0.0000     -0.0000      0.0000      0.0000
        70        -0.0000     -0.0000     -0.0000      0.0000      0.0000
        71        -0.0000     -0.0000      0.0000      0.0000      0.0000
        72        -0.0000      0.0000     -0.0922      0.0085      0.0036
        73        -0.0157      0.0000     -0.0000      0.0002      0.0001
        74        -0.0000     -0.0000     -0.0000      0.0000      0.0000
        75         0.0000      0.0000     -0.0000      0.0000      0.0000
        76        -0.0000      0.0000      0.0000      0.0000      0.0000
        77         0.0000      0.0000      0.0000      0.0000      0.0000
        78        -0.0000      0.0000      0.3418      0.1169      0.0514
        79         0.0000     -0.0000      0.0000      0.0000      0.0000
        80        -0.0000     -0.2359     -0.0000      0.0557      0.0248
        81        -0.0000     -0.0000     -0.0000      0.0000      0.0000
        82         0.0000      0.0000     -0.0000      0.0000      0.0000
        83         0.0000     -0.0000     -0.0000      0.0000      0.0000
        84        -0.0000      0.0000      0.0237      0.0006      0.0003
        85        -0.4037      0.0000      0.0000      0.1630      0.0750
        86        -0.0000      0.0000     -0.0000      0.0000      0.0000
        87         0.0000      0.3579      0.0000      0.1281      0.0596
        88        -0.0000     -0.0000      0.0000      0.0000      0.0000
        89         0.0000      0.0000     -0.3595      0.1292      0.0606
        90        -0.0000      0.2209     -0.0000      0.0488      0.0229
        91         0.0000     -0.0000     -0.0000      0.0000      0.0000
        92        -0.0000      0.0000      0.0000      0.0000      0.0000
        93        -0.5883     -0.0000     -0.0000      0.3461      0.1637
        94        -0.0000      0.0000     -0.0000      0.0000      0.0000
        95         0.0000      0.0000      0.0000      0.0000      0.0000
        96        -0.0000      0.0000      0.0000      0.0000      0.0000
        97        -0.0000      1.1582     -0.0000      1.3415      0.6425
        98         0.0000     -0.0000     -0.0000      0.0000      0.0000
        99        -0.0000     -0.0000     -0.0000      0.0000      0.0000
       100         0.0000     -0.0000      0.0000      0.0000      0.0000
       101         0.0000     -0.0000      0.0000      0.0000      0.0000
       102         0.0000     -0.0000      0.0000      0.0000      0.0000
       103         0.0000      0.0000     -0.0000      0.0000      0.0000
       104         0.0000      0.0000      0.0000      0.0000      0.0000
       105         0.0000     -0.0000      0.0000      0.0000      0.0000
       106        -0.0000      0.0000      0.0000      0.0000      0.0000
       107         0.0000      0.0000      0.0000      0.0000      0.0000
       108         0.0000      0.0000      0.2326      0.0541      0.0269
       109        -0.0000      0.0000      0.0000      0.0000      0.0000
       110         0.0000      0.2910      0.0000      0.0847      0.0423
       111        -0.0000      0.0000      0.0000      0.0000      0.0000
       112         0.0000      0.0000      0.0000      0.0000      0.0000
       113        -0.0000     -0.0000     -0.4067      0.1654      0.0836
       114         0.0000      0.2688      0.0000      0.0723      0.0370
       115        -0.0000     -0.0000     -0.0000      0.0000      0.0000
       116        -0.0420      0.0000      0.0000      0.0018      0.0009
       117         0.0000      0.0000      0.0408      0.0017      0.0009
       118         0.0000     -0.0000     -0.0000      0.0000      0.0000
       119        -0.0000      0.0000     -0.0000      0.0000      0.0000
       120         0.0000     -0.0000     -0.0000      0.0000      0.0000
       121        -0.1315      0.0000     -0.0000      0.0173      0.0091
       122        -0.0000     -0.0000      0.1326      0.0176      0.0092
       123        -0.0000      0.0000      0.0000      0.0000      0.0000
       124        -0.0000     -0.0000      0.0000      0.0000      0.0000
       125         0.0000     -0.0828     -0.0000      0.0069      0.0037
       126         0.0000     -0.0000      0.0000      0.0000      0.0000
       127         0.1328      0.0000      0.0000      0.0176      0.0094
       128         0.0000     -0.0000     -0.0935      0.0087      0.0047
       129         0.0000      0.0000     -0.0000      0.0000      0.0000
       130        -0.0000      0.0000     -0.1347      0.0181      0.0098
       131         0.0000      0.3891      0.0000      0.1514      0.0822
       132        -0.0000      0.0000      0.0000      0.0000      0.0000
       133        -0.0000     -0.0000      0.0000      0.0000      0.0000
       134        -0.0000      0.0000     -0.1111      0.0123      0.0068
       135        -0.0000     -0.0000      0.0000      0.0000      0.0000
       136        -0.0000      0.0000     -0.8245      0.6798      0.3741
       137        -0.5990      0.0000     -0.0000      0.3589      0.1990
       138        -0.0000      0.0171      0.0000      0.0003      0.0002
       139        -0.0000     -0.0000      0.0000      0.0000      0.0000
       140        -0.0000     -0.0000      0.0000      0.0000      0.0000
       141        -0.1184      0.0000     -0.0000      0.0140      0.0079
       142        -0.0000     -0.0000     -0.0000      0.0000      0.0000
       143         0.0000     -0.3122      0.0000      0.0974      0.0554
       144         0.0000     -0.0000     -0.2928      0.0857      0.0490
       145        -0.0000     -0.0000     -0.0000      0.0000      0.0000
       146         0.0000     -0.0000      0.0000      0.0000      0.0000
       147        -0.0000     -0.0000      0.0000      0.0000      0.0000
       148         0.0000     -0.0000      0.1799      0.0324      0.0187
       149         0.0000     -0.0000     -0.0000      0.0000      0.0000
       150         0.0000     -0.0000      0.0000      0.0000      0.0000
       151        -0.0000      0.0000      0.0000      0.0000      0.0000
       152        -0.0000      0.1060      0.0000      0.0112      0.0066
       153        -0.0000      0.0000      0.5454      0.2974      0.1747
       154        -0.0000      0.0000      0.3800      0.1444      0.0853
       155         0.0000     -0.0000      0.0000      0.0000      0.0000
       156        -0.0000      0.0000      0.0000      0.0000      0.0000
       157         0.0000     -0.0000     -0.0000      0.0000      0.0000
       158         0.0000     -0.0000     -0.0000      0.0000      0.0000
       159         0.0000      0.0745      0.0000      0.0055      0.0034
       160         0.0366      0.0000      0.0000      0.0013      0.0008
       161         0.0000     -0.0000      0.0000      0.0000      0.0000
       162        -0.0000     -0.0000     -0.0000      0.0000      0.0000
       163        -0.0000      0.0657     -0.0000      0.0043      0.0026
       164        -0.0000      0.0000      0.0000      0.0000      0.0000
       165        -0.0000      0.0000      0.0000      0.0000      0.0000
       166        -0.0000     -0.2560     -0.0000      0.0656      0.0406
       167         0.0000      0.0000     -0.0000      0.0000      0.0000
       168        -0.0000      0.0000      0.0425      0.0018      0.0011
       169        -0.0000      0.0000     -0.0000      0.0000      0.0000
       170         0.0000      0.0000      0.0000      0.0000      0.0000
       171         0.0000      0.1502     -0.0000      0.0226      0.0142
       172        -0.0000      0.0000      0.0000      0.0000      0.0000
       173        -0.0302      0.0000      0.0000      0.0009      0.0006
       174         0.0000     -0.0000      0.0000      0.0000      0.0000
       175        -0.0000      0.0000      0.0000      0.0000      0.0000
       176         0.0525     -0.0000      0.0000      0.0028      0.0018
       177         0.0000     -0.0000      0.2125      0.0452      0.0290
       178        -0.0000     -0.0000     -0.0000      0.0000      0.0000
       179        -0.0000      0.0000     -0.0000      0.0000      0.0000
       180        -0.0000     -0.1452     -0.0000      0.0211      0.0136
       181         0.0000      0.0000      0.0000      0.0000      0.0000
       182         0.0000      0.0000      0.0472      0.0022      0.0014
       183         0.0000      0.0000      0.0000      0.0000      0.0000
       184         0.0000     -0.0000     -0.0000      0.0000      0.0000
       185         0.0000      0.0000     -0.0000      0.0000      0.0000
       186        -0.0000      0.2279     -0.0000      0.0519      0.0343
       187        -0.0000     -0.0000      0.0000      0.0000      0.0000
       188         0.0000      0.4338      0.0000      0.1882      0.1249
       189         0.0000     -0.0000      0.0000      0.0000      0.0000
       190        -0.0000      0.0000      0.0000      0.0000      0.0000
       191         0.0000     -0.0000     -0.0000      0.0000      0.0000
       192        -0.0000     -0.0000      0.1551      0.0240      0.0162
       193         0.0000      0.3443     -0.0000      0.1185      0.0804
       194        -0.0000      0.0000      0.0898      0.0081      0.0055
       195        -0.0000     -0.0000      0.2933      0.0860      0.0592
       196        -0.0000      0.0584     -0.0000      0.0034      0.0023
[...]
      4   0.000000D+00 -0.519817D-02  0.000000D+00  0.000000D+00  0.000000D+00
      5   0.000000D+00  0.000000D+00  0.000000D+00  0.000000D+00  0.477089D-01
      6   0.000000D+00  0.000000D+00  0.000000D+00  0.000000D+00  0.000000D+00
      7   0.000000D+00  0.282963D-01  0.000000D+00  0.000000D+00  0.000000D+00
      8   0.000000D+00  0.000000D+00 -0.154085D+00  0.000000D+00  0.000000D+00
      9  -0.672350D-01  0.000000D+00  0.000000D+00 -0.105564D+00  0.000000D+00
     10   0.000000D+00  0.000000D+00  0.000000D+00  0.000000D+00  0.000000D+00
     11   0.000000D+00  0.000000D+00  0.000000D+00  0.000000D+00  0.000000D+00
     12   0.000000D+00  0.000000D+00  0.000000D+00  0.000000D+00  0.000000D+00
     13   0.000000D+00  0.000000D+00  0.000000D+00  0.000000D+00  0.000000D+00
     14   0.000000D+00  0.000000D+00  0.000000D+00  0.000000D+00  0.000000D+00
     15   0.733115D-01  0.000000D+00  0.000000D+00  0.240444D+00  0.000000D+00
     16   0.000000D+00  0.000000D+00  0.467045D-01  0.000000D+00  0.000000D+00
               546           547           548           549           550 
      1  -0.744406D+02 -0.743904D+02 -0.743539D+02 -0.743468D+02 -0.743280D+02
      2   0.000000D+00  0.000000D+00  0.000000D+00  0.000000D+00  0.000000D+00
      3   0.000000D+00  0.000000D+00  0.000000D+00  0.381019D-01  0.000000D+00
      4   0.000000D+00 -0.166404D-01  0.000000D+00  0.000000D+00  0.000000D+00
      5   0.000000D+00  0.000000D+00  0.000000D+00  0.000000D+00  0.000000D+00
      6   0.000000D+00  0.000000D+00  0.000000D+00 -0.120028D+00  0.000000D+00
      7   0.000000D+00  0.825258D-01  0.000000D+00  0.000000D+00  0.000000D+00
      8   0.405542D+00  0.000000D+00  0.000000D+00  0.000000D+00  0.000000D+00
      9   0.000000D+00  0.000000D+00  0.000000D+00  0.000000D+00  0.000000D+00
     10   0.000000D+00  0.000000D+00 -0.624988D-02  0.000000D+00  0.000000D+00
     11   0.000000D+00  0.000000D+00  0.000000D+00  0.000000D+00  0.170771D-01
     12   0.000000D+00  0.000000D+00  0.000000D+00  0.000000D+00 -0.110883D+00
     13   0.000000D+00  0.000000D+00  0.000000D+00  0.000000D+00  0.315850D-01
     14   0.000000D+00  0.000000D+00 -0.217281D-02  0.000000D+00  0.000000D+00
     15   0.000000D+00  0.000000D+00  0.000000D+00  0.000000D+00  0.000000D+00
     16  -0.587096D+00  0.000000D+00  0.000000D+00  0.000000D+00  0.000000D+00
               551           552           553           554           555 
      1  -0.742308D+02 -0.741831D+02 -0.741516D+02 -0.741335D+02 -0.741004D+02
      2  -0.613985D-01  0.000000D+00  0.000000D+00  0.000000D+00  0.000000D+00
      3   0.000000D+00  0.000000D+00  0.000000D+00  0.000000D+00  0.000000D+00
      4   0.000000D+00  0.000000D+00 -0.161155D-01  0.000000D+00  0.000000D+00
      5   0.268477D+00  0.000000D+00  0.000000D+00  0.000000D+00  0.000000D+00
      6   0.000000D+00  0.000000D+00  0.000000D+00  0.000000D+00  0.000000D+00
      7   0.000000D+00  0.000000D+00  0.430794D-01  0.000000D+00  0.000000D+00
      8   0.000000D+00  0.000000D+00  0.000000D+00  0.147755D+00  0.000000D+00
      9   0.000000D+00  0.000000D+00  0.000000D+00  0.000000D+00  0.000000D+00
     10   0.000000D+00  0.000000D+00  0.000000D+00  0.000000D+00  0.000000D+00
     11   0.000000D+00  0.000000D+00  0.000000D+00  0.000000D+00  0.000000D+00
     12   0.000000D+00  0.000000D+00  0.000000D+00  0.000000D+00  0.000000D+00
     13   0.000000D+00  0.000000D+00  0.000000D+00  0.000000D+00  0.000000D+00
     14   0.000000D+00  0.000000D+00  0.000000D+00  0.000000D+00  0.000000D+00
     15   0.000000D+00  0.000000D+00  0.000000D+00  0.000000D+00  0.000000D+00
     16   0.000000D+00  0.000000D+00  0.000000D+00 -0.336043D+00  0.000000D+00
               556           557           558           559           560 
      1  -0.740926D+02 -0.740790D+02 -0.740262D+02 -0.740214D+02 -0.740192D+02
      2   0.000000D+00  0.000000D+00  0.000000D+00  0.000000D+00  0.000000D+00
      3   0.000000D+00  0.000000D+00  0.000000D+00  0.000000D+00  0.404860D-01
      4   0.000000D+00  0.000000D+00  0.000000D+00 -0.316263D-01  0.000000D+00
      5   0.000000D+00  0.000000D+00  0.000000D+00  0.000000D+00  0.000000D+00
      6   0.000000D+00  0.000000D+00  0.000000D+00  0.000000D+00 -0.172333D+00
      7   0.000000D+00  0.000000D+00  0.000000D+00  0.191002D+00  0.000000D+00
      8   0.000000D+00  0.000000D+00  0.000000D+00  0.000000D+00  0.000000D+00
      9   0.000000D+00  0.000000D+00  0.000000D+00  0.000000D+00  0.000000D+00
     10   0.323139D-01  0.000000D+00  0.000000D+00  0.000000D+00  0.000000D+00
     11   0.000000D+00  0.299345D+00  0.248865D+00  0.000000D+00  0.000000D+00
     12   0.000000D+00 -0.231230D+00 -0.281658D+00  0.000000D+00  0.000000D+00
     13   0.000000D+00 -0.284038D+00 -0.765885D+00  0.000000D+00  0.000000D+00
     14  -0.213063D+00  0.000000D+00  0.000000D+00  0.000000D+00  0.000000D+00
     15   0.000000D+00  0.000000D+00  0.000000D+00  0.000000D+00  0.000000D+00
     16   0.000000D+00  0.000000D+00  0.000000D+00  0.000000D+00  0.000000D+00
               561           562           563           564           565 
      1  -0.739983D+02 -0.739560D+02 -0.739516D+02 -0.739041D+02 -0.738917D+02
      2   0.000000D+00  0.000000D+00  0.000000D+00  0.000000D+00  0.000000D+00
      3   0.000000D+00  0.000000D+00 -0.506641D-01  0.000000D+00  0.000000D+00
      4   0.557717D-01  0.000000D+00  0.000000D+00  0.373344D-01  0.000000D+00
      5   0.000000D+00  0.000000D+00  0.000000D+00  0.000000D+00  0.000000D+00
      6   0.000000D+00  0.000000D+00  0.260013D+00  0.000000D+00  0.000000D+00
      7  -0.285206D+00  0.000000D+00  0.000000D+00 -0.227544D+00  0.000000D+00
      8   0.000000D+00  0.613471D-01  0.000000D+00  0.000000D+00  0.000000D+00
      9   0.000000D+00  0.000000D+00  0.000000D+00  0.000000D+00  0.000000D+00
     10   0.000000D+00  0.000000D+00  0.000000D+00  0.000000D+00 -0.333702D-02
     11   0.000000D+00  0.000000D+00  0.000000D+00  0.000000D+00  0.000000D+00
     12   0.000000D+00  0.000000D+00  0.000000D+00  0.000000D+00  0.000000D+00
     13   0.000000D+00  0.000000D+00  0.000000D+00  0.000000D+00  0.000000D+00
     14   0.000000D+00  0.000000D+00  0.000000D+00  0.000000D+00 -0.856596D-01
     15   0.000000D+00  0.000000D+00  0.000000D+00  0.000000D+00  0.000000D+00
     16   0.000000D+00 -0.347351D+00  0.000000D+00  0.000000D+00  0.000000D+00
               566           567           568           569           570 
      1  -0.738865D+02 -0.738823D+02 -0.738665D+02 -0.738509D+02 -0.737812D+02
      2   0.000000D+00  0.000000D+00 -0.445639D-01  0.000000D+00  0.000000D+00
      3   0.000000D+00  0.000000D+00  0.000000D+00  0.000000D+00 -0.267102D-01
      4  -0.120999D-03  0.000000D+00  0.000000D+00  0.000000D+00  0.000000D+00
      5   0.000000D+00  0.000000D+00  0.174955D+00  0.000000D+00  0.000000D+00
      6   0.000000D+00  0.000000D+00  0.000000D+00  0.000000D+00  0.560907D-01
      7  -0.164202D-02  0.000000D+00  0.000000D+00  0.000000D+00  0.000000D+00
      8   0.000000D+00  0.000000D+00  0.000000D+00  0.000000D+00  0.000000D+00
      9   0.000000D+00  0.000000D+00  0.000000D+00 -0.264303D+00  0.000000D+00
     10   0.000000D+00  0.000000D+00  0.000000D+00  0.000000D+00  0.000000D+00
     11   0.000000D+00 -0.819414D-01  0.000000D+00  0.000000D+00  0.000000D+00
     12   0.000000D+00  0.162248D+00  0.000000D+00  0.000000D+00  0.000000D+00
     13   0.000000D+00  0.582836D+00  0.000000D+00  0.000000D+00  0.000000D+00
     14   0.000000D+00  0.000000D+00  0.000000D+00  0.000000D+00  0.000000D+00
     15   0.000000D+00  0.000000D+00  0.000000D+00  0.133805D-01  0.000000D+00
     16   0.000000D+00  0.000000D+00  0.000000D+00  0.000000D+00  0.000000D+00
               571           572           573           574           575 
      1  -0.737799D+02 -0.737786D+02 -0.737696D+02 -0.737582D+02 -0.737296D+02
      2   0.000000D+00  0.000000D+00  0.000000D+00  0.000000D+00  0.000000D+00
      3   0.000000D+00  0.000000D+00  0.000000D+00  0.000000D+00  0.000000D+00
      4   0.000000D+00  0.000000D+00  0.000000D+00  0.000000D+00  0.000000D+00
      5   0.000000D+00  0.000000D+00  0.000000D+00  0.000000D+00  0.000000D+00
      6   0.000000D+00  0.000000D+00  0.000000D+00  0.000000D+00  0.000000D+00
      7   0.000000D+00  0.000000D+00  0.000000D+00  0.000000D+00  0.000000D+00
      8  -0.201132D+00  0.000000D+00  0.403379D-01  0.000000D+00  0.000000D+00
      9   0.000000D+00  0.000000D+00  0.000000D+00 -0.336872D+00  0.000000D+00
     10   0.000000D+00  0.000000D+00  0.000000D+00  0.000000D+00  0.000000D+00
     11   0.000000D+00  0.000000D+00  0.000000D+00  0.000000D+00  0.496716D-02
     12   0.000000D+00  0.000000D+00  0.000000D+00  0.000000D+00  0.928365D-01
     13   0.000000D+00  0.000000D+00  0.000000D+00  0.000000D+00 -0.786372D+00
     14   0.000000D+00  0.000000D+00  0.000000D+00  0.000000D+00  0.000000D+00
     15   0.000000D+00  0.000000D+00  0.000000D+00 -0.132428D+00  0.000000D+00
     16   0.398042D+00  0.000000D+00 -0.248978D+00  0.000000D+00  0.000000D+00
               576           577           578           579           580 
      1  -0.737271D+02 -0.737151D+02 -0.736709D+02 -0.736616D+02 -0.736563D+02
      2   0.000000D+00  0.000000D+00  0.299037D-01  0.000000D+00  0.000000D+00
      3   0.000000D+00  0.000000D+00  0.000000D+00  0.227707D-01  0.316176D-01
      4   0.000000D+00  0.000000D+00  0.000000D+00  0.000000D+00  0.000000D+00
      5   0.000000D+00  0.000000D+00 -0.118341D+00  0.000000D+00  0.000000D+00
      6   0.000000D+00  0.000000D+00  0.000000D+00 -0.144656D+00 -0.151000D+00
      7   0.000000D+00  0.000000D+00  0.000000D+00  0.000000D+00  0.000000D+00
      8   0.000000D+00  0.000000D+00  0.000000D+00  0.000000D+00  0.000000D+00
      9   0.000000D+00  0.000000D+00  0.000000D+00  0.000000D+00  0.000000D+00
     10   0.000000D+00  0.000000D+00  0.000000D+00  0.000000D+00  0.000000D+00
     11   0.000000D+00 -0.654267D-01  0.000000D+00  0.000000D+00  0.000000D+00
     12   0.000000D+00 -0.304418D+00  0.000000D+00  0.000000D+00  0.000000D+00
     13   0.000000D+00  0.388773D+00  0.000000D+00  0.000000D+00  0.000000D+00
     14   0.000000D+00  0.000000D+00  0.000000D+00  0.000000D+00  0.000000D+00
     15   0.000000D+00  0.000000D+00  0.000000D+00  0.000000D+00  0.000000D+00
     16   0.000000D+00  0.000000D+00  0.000000D+00  0.000000D+00  0.000000D+00
               581           582           583           584           585 
      1  -0.736314D+02 -0.735971D+02 -0.735943D+02 -0.735909D+02 -0.735815D+02
      2   0.000000D+00  0.000000D+00  0.000000D+00  0.000000D+00  0.000000D+00
      3   0.000000D+00  0.000000D+00  0.196714D-01  0.000000D+00  0.000000D+00
      4   0.000000D+00  0.000000D+00  0.000000D+00 -0.537411D-01  0.000000D+00
      5   0.000000D+00  0.000000D+00  0.000000D+00  0.000000D+00  0.000000D+00
      6   0.000000D+00  0.000000D+00 -0.569310D-01  0.000000D+00  0.000000D+00
      7   0.000000D+00  0.000000D+00  0.000000D+00  0.278701D+00  0.000000D+00
      8   0.000000D+00 -0.451617D-01  0.000000D+00  0.000000D+00 -0.395924D+00
      9   0.000000D+00  0.000000D+00  0.000000D+00  0.000000D+00  0.000000D+00
     10   0.000000D+00  0.000000D+00  0.000000D+00  0.000000D+00  0.000000D+00
     11  -0.265975D-01  0.000000D+00  0.000000D+00  0.000000D+00  0.000000D+00
     12   0.200855D+00  0.000000D+00  0.000000D+00  0.000000D+00  0.000000D+00
     13   0.396021D+00  0.000000D+00  0.000000D+00  0.000000D+00  0.000000D+00
     14   0.000000D+00  0.000000D+00  0.000000D+00  0.000000D+00  0.000000D+00
     15   0.000000D+00  0.000000D+00  0.000000D+00  0.000000D+00  0.000000D+00
     16   0.000000D+00  0.778724D-01  0.000000D+00  0.000000D+00  0.315300D+00
               586           587           588           589           590 
      1  -0.735439D+02 -0.735417D+02 -0.735152D+02 -0.735004D+02 -0.734318D+02
      2   0.000000D+00  0.000000D+00  0.000000D+00  0.000000D+00  0.000000D+00
      3   0.000000D+00  0.000000D+00  0.000000D+00  0.000000D+00  0.000000D+00
      4  -0.411934D-01  0.000000D+00 -0.612820D-01  0.000000D+00  0.000000D+00
      5   0.000000D+00  0.000000D+00  0.000000D+00  0.000000D+00  0.000000D+00
      6   0.000000D+00  0.000000D+00  0.000000D+00  0.000000D+00  0.000000D+00
      7   0.214654D+00  0.000000D+00  0.306525D+00  0.000000D+00  0.000000D+00
      8   0.000000D+00  0.331222D+00  0.000000D+00  0.000000D+00  0.000000D+00
      9   0.000000D+00  0.000000D+00  0.000000D+00  0.664872D-01  0.000000D+00
     10   0.000000D+00  0.000000D+00  0.000000D+00  0.000000D+00  0.000000D+00
     11   0.000000D+00  0.000000D+00  0.000000D+00  0.000000D+00  0.298830D-01
     12   0.000000D+00  0.000000D+00  0.000000D+00  0.000000D+00 -0.371313D-01
     13   0.000000D+00  0.000000D+00  0.000000D+00  0.000000D+00  0.451266D+00
     14   0.000000D+00  0.000000D+00  0.000000D+00  0.000000D+00  0.000000D+00
     15   0.000000D+00  0.000000D+00  0.000000D+00  0.139430D+00  0.000000D+00
     16   0.000000D+00 -0.352782D+00  0.000000D+00  0.000000D+00  0.000000D+00
               591           592           593           594           595 
      1  -0.733997D+02 -0.733726D+02 -0.732929D+02 -0.732522D+02 -0.732347D+02
      2   0.000000D+00  0.000000D+00  0.000000D+00  0.000000D+00  0.000000D+00
      3  -0.285045D-01  0.000000D+00  0.000000D+00  0.000000D+00  0.000000D+00
      4   0.000000D+00  0.000000D+00  0.000000D+00 -0.253192D-01  0.000000D+00
      5   0.000000D+00  0.000000D+00  0.000000D+00  0.000000D+00  0.000000D+00
      6   0.160317D+00  0.000000D+00  0.000000D+00  0.000000D+00  0.000000D+00
      7   0.000000D+00  0.000000D+00  0.000000D+00  0.720176D-01  0.000000D+00
      8   0.000000D+00  0.000000D+00  0.000000D+00  0.000000D+00  0.323277D-01
      9   0.000000D+00  0.000000D+00  0.196622D+00  0.000000D+00  0.000000D+00
     10   0.000000D+00  0.000000D+00  0.000000D+00  0.000000D+00  0.000000D+00
     11   0.000000D+00 -0.872047D-01  0.000000D+00  0.000000D+00  0.000000D+00
     12   0.000000D+00  0.154591D+00  0.000000D+00  0.000000D+00  0.000000D+00
     13   0.000000D+00  0.776531D+00  0.000000D+00  0.000000D+00  0.000000D+00
     14   0.000000D+00  0.000000D+00  0.000000D+00  0.000000D+00  0.000000D+00
     15   0.000000D+00  0.000000D+00  0.317719D+00  0.000000D+00  0.000000D+00
     16   0.000000D+00  0.000000D+00  0.000000D+00  0.000000D+00 -0.756851D-01
               596           597           598           599           600 
      1  -0.732065D+02 -0.731423D+02 -0.730935D+02 -0.729746D+02 -0.727973D+02
      2   0.000000D+00  0.000000D+00  0.000000D+00  0.000000D+00  0.000000D+00
      3  -0.778548D-02  0.000000D+00  0.000000D+00  0.000000D+00  0.000000D+00
      4   0.000000D+00 -0.457838D-02  0.000000D+00  0.000000D+00  0.215306D-01
      5   0.000000D+00  0.000000D+00  0.000000D+00  0.000000D+00  0.000000D+00
      6   0.207245D-01  0.000000D+00  0.000000D+00  0.000000D+00  0.000000D+00
      7   0.000000D+00 -0.295228D-02  0.000000D+00  0.000000D+00 -0.148287D+00
      8   0.000000D+00  0.000000D+00 -0.390623D-01  0.000000D+00  0.000000D+00
      9   0.000000D+00  0.000000D+00  0.000000D+00  0.000000D+00  0.000000D+00
     10   0.000000D+00  0.000000D+00  0.000000D+00  0.000000D+00  0.000000D+00
     11   0.000000D+00  0.000000D+00  0.000000D+00 -0.299630D-01  0.000000D+00
     12   0.000000D+00  0.000000D+00  0.000000D+00 -0.614578D-01  0.000000D+00
     13   0.000000D+00  0.000000D+00  0.000000D+00 -0.154746D+00  0.000000D+00
     14   0.000000D+00  0.000000D+00  0.000000D+00  0.000000D+00  0.000000D+00
     15   0.000000D+00  0.000000D+00  0.000000D+00  0.000000D+00  0.000000D+00
     16   0.000000D+00  0.000000D+00 -0.222383D+00  0.000000D+00  0.000000D+00
               601           602           603           604           605 
      1  -0.562354D+02 -0.561293D+02 -0.560912D+02 -0.560201D+02 -0.558845D+02
      2  -0.182525D-01  0.000000D+00  0.000000D+00  0.000000D+00  0.000000D+00
      3   0.000000D+00  0.000000D+00  0.000000D+00 -0.156525D-01  0.000000D+00
      4   0.000000D+00  0.000000D+00  0.000000D+00  0.000000D+00 -0.680233D-02
      5   0.185819D+00  0.000000D+00  0.000000D+00  0.000000D+00  0.000000D+00
      6   0.000000D+00  0.000000D+00  0.000000D+00  0.176840D+00  0.000000D+00
      7   0.000000D+00  0.000000D+00  0.000000D+00  0.000000D+00  0.120999D+00
      8   0.000000D+00 -0.203174D+00  0.000000D+00  0.000000D+00  0.000000D+00
      9   0.000000D+00  0.000000D+00  0.000000D+00  0.000000D+00  0.000000D+00
     10   0.000000D+00  0.000000D+00  0.000000D+00  0.000000D+00  0.000000D+00
     11   0.000000D+00  0.000000D+00 -0.373541D-01  0.000000D+00  0.000000D+00
     12   0.000000D+00  0.000000D+00  0.960234D-02  0.000000D+00  0.000000D+00
     13   0.000000D+00  0.000000D+00  0.456696D+00  0.000000D+00  0.000000D+00
     14   0.000000D+00  0.000000D+00  0.000000D+00  0.000000D+00  0.000000D+00
     15   0.000000D+00  0.000000D+00  0.000000D+00  0.000000D+00  0.000000D+00
     16   0.000000D+00  0.247181D+00  0.000000D+00  0.000000D+00  0.000000D+00
               606           607           608           609           610 
      1  -0.557068D+02 -0.556374D+02 -0.555238D+02 -0.554901D+02 -0.554147D+02
      2   0.000000D+00  0.000000D+00  0.000000D+00  0.000000D+00  0.000000D+00
      3   0.000000D+00  0.000000D+00 -0.104592D-01  0.000000D+00  0.000000D+00
      4   0.000000D+00  0.000000D+00  0.000000D+00 -0.148047D-01  0.000000D+00
      5   0.000000D+00  0.000000D+00  0.000000D+00  0.000000D+00  0.000000D+00
      6   0.000000D+00  0.000000D+00  0.118092D+00  0.000000D+00  0.000000D+00
      7   0.000000D+00  0.000000D+00  0.000000D+00  0.196301D+00  0.000000D+00
      8   0.000000D+00  0.000000D+00  0.000000D+00  0.000000D+00 -0.166236D+00
      9   0.000000D+00  0.203891D+00  0.000000D+00  0.000000D+00  0.000000D+00
     10   0.000000D+00  0.000000D+00  0.000000D+00  0.000000D+00  0.000000D+00
     11   0.238178D+00  0.000000D+00  0.000000D+00  0.000000D+00  0.000000D+00
     12   0.245761D+00  0.000000D+00  0.000000D+00  0.000000D+00  0.000000D+00
     13   0.225231D+00  0.000000D+00  0.000000D+00  0.000000D+00  0.000000D+00
     14   0.000000D+00  0.000000D+00  0.000000D+00  0.000000D+00  0.000000D+00
     15   0.000000D+00  0.201664D+00  0.000000D+00  0.000000D+00  0.000000D+00
     16   0.000000D+00  0.000000D+00  0.000000D+00  0.000000D+00  0.202049D+00
               611           612 
      1  -0.552809D+02 -0.551101D+02
      2   0.000000D+00  0.000000D+00
      3   0.000000D+00  0.000000D+00
      4   0.000000D+00 -0.304363D-02
      5   0.000000D+00  0.000000D+00
      6   0.000000D+00  0.000000D+00
      7   0.000000D+00 -0.597226D-02
      8   0.000000D+00  0.000000D+00
      9   0.000000D+00  0.000000D+00
     10   0.000000D+00  0.000000D+00
     11   0.159309D+00  0.000000D+00
     12   0.188599D+00  0.000000D+00
     13   0.390509D+00  0.000000D+00
     14   0.000000D+00  0.000000D+00
     15   0.000000D+00  0.000000D+00
     16   0.000000D+00  0.000000D+00
 Unable to Open any file for archive entry.
 1\1\GINC-HEL17\SP\RwB97XD TD-FC\Gen\C2H4\RR\27-Feb-2022\0\\#P TD(Nstat
 es=10000) wB97XD/Gen SCF(maxcycles=100) Int(Grid=ultrafine)\\xGDB7_000
 01_tier4.com\\0,1\C,0,0.,0.,0.660866\C,0,0.,0.,-0.660866\H,0,0.,0.9225
 86,1.229258\H,0,0.,-0.922586,1.229258\H,0,0.,0.922586,-1.229258\H,0,0.
 ,-0.922586,-1.229258\\Version=EM64L-G16RevC.01\State=1-AG\HF=-78.58924
 62\RMSD=5.731e-09\PG=D02H [C2"(C1.C1),SG(H4)]\\@
 The archive entry for this job was punched.


 One man practicing sportsmanship is far better than 50 preaching it.
 -- Knute K. Rockne
 Job cpu time:       0 days  0 hours  3 minutes 57.8 seconds.
 Elapsed time:       0 days  0 hours  0 minutes 30.8 seconds.
 File lengths (MBytes):  RWF=    508 Int=      0 D2E=      0 Chk=    166 Scr=      1
 Normal termination of Gaussian 16 at Sun Feb 27 06:39:56 2022.
